3795
 energy: -5103.663340586656 gnorm: 0.000851982880 xtb: 6.6.1 (8d0f1dd)
C          129.10469954108663      112.29923434983067      102.16826374733149
C          129.57606514392214      113.10567338453541      103.35572083641480
C          127.77748007763756      111.62321449549528      102.53195384941577
C          127.23035375453031      110.76251341593129      101.39484812613242
H          127.92838052990477      111.00805236006082      103.42201060773391
H          127.04286726749497      112.38952701404197      102.78621941967889
C          125.90966399948442      110.10000882648716      101.80744799120220
H          127.05284330292551      111.38563038453698      100.51804969214854
H          127.96819830709786      110.00548371034181      101.12302875813465
C          126.14614942694425      109.17005614645917      102.97662549595356
H          125.20270624641094      110.87458138667685      102.10867495052423
H          125.48257202708922      109.54819196130228      100.96750730589009
N          126.84817382828136      108.06659852246730      102.67329206525156
O          128.96100895882975      114.26882377898069      103.45533157903438
O          130.40620505379781      112.71719853294734      104.14894069743399
H          129.23260031245491      114.77102149933161      104.27037335203670
H          129.85767502111054      111.54819974394751      101.93174769310528
H          128.96225296970249      112.96204497309297      101.31564295562764
C          127.51441361309764      107.23332172357935      103.65231853937365
H          127.12699942873235      107.93109329541407      101.71237578057536
C          129.02073459161332      107.23629781096739      103.38730611087097
H          127.28898165960565      107.64750643396980      104.63654268511661
H          127.12371299970897      106.21127169573020      103.60468962650251
C          129.82016016331528      106.36362202237240      104.35322299829022
H          129.19034813940007      106.88067596805557      102.36816966581083
H          129.38664190255568      108.26382579519131      103.44789675765024
C          129.88037594682464      106.92023959360748      105.77557935471245
H          129.40247300923679      105.35576562410655      104.37647085947091
H          130.83989842585237      106.28992785432497      103.97072412538743
C          130.97843130089277      106.22905875277388      106.58266739663236
H          130.08482816683653      107.99265487611417      105.74008790292325
H          128.92202024431006      106.78067389026209      106.27742852751769
C          130.98030877979753      106.64348580850839      108.04905003940353
H          130.84059777904881      105.14693724350623      106.53448432561366
H          131.95037449063241      106.46763855333528      106.14972422997656
N          129.82530603338321      106.08339141542153      108.71958212227320
H          131.89606419658051      106.28439705812315      108.53485342083778
H          130.94324892531694      107.73063612686708      108.16090382471417
C          129.27302314050019      106.61109044101111      109.81043533978102
H          129.54113340718342      105.16478127799803      108.38785654954231
O          125.74858989125318      109.40258712892744      104.11350868810042
C          128.09236362067310      105.83865833313865      110.36699411687633
C          126.78281932049390      106.62388476050452      110.27303812539148
H          127.98744114955440      104.89087801393215      109.84003833893898
H          128.29425002566069      105.63728959026824      111.42181786029889
C          125.67667895049509      105.87681474305310      111.01292460675505
H          126.91696034175078      107.61489796230906      110.70704425517866
H          126.50990153890211      106.75583954447460      109.22417948338831
C          124.36794233493760      106.66830394288399      111.09259058032077
H          125.49666184107065      104.92253268172722      110.51356877093662
H          126.01473795134514      105.65883132669632      112.02895831434662
C          124.40589196548092      107.68983803607414      112.21275388583609
H          124.16792276961586      107.16436122524971      110.14600245076871
H          123.55345125331102      105.97886412803858      111.31658165899152
N          124.49855901808438      108.96489190168293      111.82946719034643
C          124.49746289776951      110.06638196108533      112.77217086079054
H          124.56823379651557      109.19157924000946      110.84461856346333
O          129.67470228723374      107.65138505967842      110.33620829003199
C          124.99832906573329      111.35593681772005      112.13391537968211
H          123.48085453818690      110.21648142624304      113.15637888917637
H          125.13168592289237      109.79308505992304      113.62186897143408
C          123.95337850797810      112.01372642258571      111.23316380535876
H          125.26385869478072      112.04715142543941      112.93513930372006
H          125.90439716534975      111.14115120784523      111.56360761836143
C          124.45073397234607      113.33987143725547      110.66079956053009
H          123.70447188344794      111.34118456790709      110.41048536101970
H          123.04564985486559      112.19183220428083      111.81277998906310
C          123.36928843784075      114.07151765932051      109.86947293083952
H          124.80609359883910      113.98136691576101      111.47011921107404
H          125.29422473509686      113.14745518986088      109.99483103549288
C          123.93092139781041      115.21551777393746      109.02962203544328
N          124.64391926858582      114.69182796918335      107.88035717032906
H          123.11695865977278      115.87561611724355      108.70887224724643
H          124.62876212033697      115.82603588294124      109.60992577961089
C          125.50498610949099      115.41553275802974      107.15672534490213
H          124.29260626738953      113.81533364321712      107.50818891127597
O          124.34158727161150      107.34933118236762      113.39473824112123
C          126.16813070847259      114.67025721778229      106.00819695065969
C          125.18594083030042      114.17486368643775      104.94698099149471
H          126.90113487166482      115.34303241444780      105.55850160166649
H          126.70847673211475      113.81637245332119      106.42226603550451
C          124.34694140987804      115.31441234724602      104.37839524531569
H          125.75672192434178      113.69956032080654      104.14628998830487
H          124.52759132070804      113.41709118694887      105.37332517879034
C          123.38855231606084      114.84259513549223      103.28119671721716
H          123.76451447322496      115.75959288439265      105.18779483009844
H          124.99687889919356      116.10155994600991      103.99201776501552
C          124.11232361560475      114.13660920492869      102.15100003274935
H          122.65640838707455      114.14681256440819      103.69664784694872
H          122.86594391341553      115.70681032248768      102.86503178883224
N          125.03505236262677      114.88011940260188      101.53420138763232
C          125.88440562337148      114.37972249208045      100.47585846082981
H          125.16889984425524      115.83364626592061      101.83597564250175
H          122.87991412909032      113.36014502056612      109.20197458674009
H          122.61703877749095      114.46853060342066      110.55103644315261
O          125.79661925133992      116.57812221073397      107.42945957622264
O          123.85287438501753      112.97937393918093      101.83115659048616
C          125.81495363063880      115.22803083702115       99.20178529551588
H          126.91676729788898      114.33141569530883      100.83801003531788
H          125.53598155154349      113.36395922981599      100.27439242955774
C          126.87752156483170      116.32415922721067       99.12382254624514
H          125.94354460361120      114.56629825778263       98.34434768173392
H          124.82177328440609      115.67376700304638       99.13310174202080
C          126.69459399405137      117.43682187856018      100.15336709550742
H          127.86450905717194      115.87435305946025       99.25051894446655
H          126.84420038820922      116.76430150065954       98.12516445658463
C          127.73995739716260      118.53578414307538       99.96419220005848
H          125.69712789825911      117.87061383548412      100.05816778965847
H          126.78254647704424      117.02805716081312      101.16080752129210
C          127.53949531072628      119.70786230648261      100.91507439906347
H          128.73873232101008      118.11903274287616      100.11126317798239
H          127.68469463895309      118.91573294853342       98.94331617245111
N          127.66565014061686      119.28947374015625      102.29720514473371
H          128.27766509500032      120.49111521923179      100.70497216138169
H          126.54384612011633      120.14371714972563      100.78757311284174
C          127.19027181794129      120.00265667351478      103.32032864013601
H          128.09383949363067      118.39579684329564      102.47462065238405
C          127.34090655297393      119.37893898102263      104.69220229106152
C          128.66740827655835      118.65779130473433      104.93749784399769
H          127.22318429128914      120.17770212565010      105.42654662705515
H          126.50494472782077      118.68784477998975      104.82856433392384
C          128.86338837299343      118.39731362514354      106.43029835888902
H          128.69770300524263      117.70055362934582      104.41597411850714
H          129.49047017447367      119.27856686408211      104.57315316037209
C          130.21226873808820      117.75508470433466      106.75427159960506
H          128.80708584542649      119.35161042172501      106.95893411249310
H          128.05527081948713      117.75973037266246      106.79291868711285
C          130.31543304915121      116.27070113890377      106.43922625053384
H          131.00147497909930      118.25348282910082      106.18414139207550
H          130.44200572318658      117.89053089598811      107.81165190354851
N          131.28244593938120      115.66122690882150      107.12239156528673
C          131.69236892291218      114.27505865000336      106.99784300938217
H          131.84562283867982      116.22095696164961      107.75462588836511
O          126.66883472862683      121.10468178832318      103.15689502564459
C          133.21300546962760      114.18406898968480      107.09203535735486
H          131.23875624890874      113.68656454916952      107.80196602882971
H          131.32883286703637      113.87750546790028      106.04704101959715
C          133.73237575267819      112.74792114858590      107.16304523101164
H          133.64832616775601      114.66874079738987      106.21527793458424
H          133.54085818545880      114.74287088299479      107.97029456170863
C          133.30161152900348      111.95657137948882      108.40153451823861
H          133.39009588569863      112.21137742977791      106.27539758306054
H          134.82383138344576      112.78378162063213      107.13140092039890
C          133.70328079316138      112.61893419220377      109.72116074294814
H          132.22438027059528      111.80268314699084      108.37892153932840
H          133.77345357660630      110.97268869060356      108.34562273299461
C          133.56100377913828      111.67695977868190      110.91271830824893
H          134.74688579154747      112.93285449851736      109.66229455506260
H          133.09039450619383      113.50311795397249      109.89640250619773
N          132.17124681065920      111.39041615040580      111.21073676406230
H          134.09294098149826      110.73822538982479      110.71099046396496
H          134.00449370171035      112.11877245307377      111.81099708075629
O          129.58119736518699      115.70371369108580      105.62682376578927
C          131.77094976721307      110.88668595691715      112.38303871612284
H          131.50105840071592      111.51504199813458      110.46068858242799
C          130.28066701715684      110.59352844960050      112.45131736130179
C          129.83052317949731      110.21933500126644      113.86079844586752
H          129.72866196672672      111.46193995613649      112.08818936774230
H          130.09845688164162      109.76878569169354      111.76005424582608
C          128.37725175990713      109.75691301521680      113.93677145655793
H          130.48530969268654      109.43417430909950      114.24359774125202
H          129.94420434611584      111.08748545698904      114.51450985243427
C          128.10538533415968      108.43293428486507      113.21164613517627
H          128.11183207751807      109.64783560759828      114.99015735597595
H          127.73460042521877      110.52551574328476      113.50223861316486
C          128.88174696442238      107.30335158697531      113.84825834483529
H          127.04416365978146      108.19445641091539      113.29686574690858
H          128.37144926394424      108.51468150912538      112.15999102949780
N          130.04283170887712      107.00420132220167      113.24732929190044
O          132.53564712248601      110.66937758939687      113.31970593029919
C          130.92882782007604      105.95847899664768      113.71000098260431
H          130.23726942099034      107.41426511947184      112.34271115598217
C          130.97501796565541      104.78046335205677      112.73580534305407
H          131.93147491546296      106.37535446015112      113.84781205654087
H          130.54476714789274      105.62886479139742      114.67689685387957
C          131.64789361246176      103.54322703724989      113.33006787201731
H          129.95103946162752      104.52098152039989      112.46004782739543
H          131.49687536582451      105.09005566072815      111.82783669181222
C          130.80767971496300      102.90669245506554      114.43987532955043
H          131.78945602825559      102.81511992953781      112.52882826619127
H          132.63468628157665      103.80732065228955      113.71318306924800
C          131.23835593541895      101.47172469355614      114.74286000524405
H          130.89351855064692      103.49747918746279      115.35313807112311
H          129.75824006630560      102.91562665818597      114.13920074765238
C          130.38214741766902      100.84271911046032      115.83891596422677
H          131.16936314746184      100.86216025890387      113.84029031641481
H          132.27872325184313      101.46854010946404      115.07048555427683
N          129.05724610061918      100.51334960818012      115.35489734447353
H          130.83294043056611       99.91482558139865      116.20249845535180
H          130.30239522563508      101.54028805585962      116.68144924613628
C          128.31436886633341       99.53028148138256      115.86104193591422
H          128.63612504764734      101.14413298457210      114.67547485149984
O          128.49060383472099      106.73416206077324      114.86325349620103
C          126.96251916582975       99.36028133554863      115.19384246973867
C          127.00754052327585       98.21263740052183      114.17989321800060
H          126.21643308577394       99.14112548576065      115.95690815288690
H          126.69220444024420      100.28368071515010      114.68639331060771
C          125.84964336094060       98.26087310044146      113.18381837649140
H          127.94687660003326       98.26062097180754      113.62352846353041
H          126.98828316606513       97.25964992423927      114.71054640306650
C          124.47326547475193       98.28449030459565      113.85625414656958
H          125.93779482233155       99.14426154976658      112.54855053227971
H          125.91276292826389       97.37533267370526      112.54778258802172
C          123.41786224841826       98.01029727081198      112.80333823652110
H          124.42497077594814       97.51124773196454      114.62104291355180
H          124.28282886359389       99.25723807190245      114.30925900614038
N          123.22834815372617       96.70383783785981      112.57355503616358
C          122.38220500580205       96.19875436280185      111.51799100342612
H          123.72314700351123       96.02612246515170      113.14458495646009
O          128.69738531959649       98.79297034009319      116.77199965503286
C          123.16019417232276       95.29509874052285      110.56098869587214
H          121.54644936227673       95.63967973024205      111.94854276166198
H          121.98592287166316       97.07521142208712      111.00090514789729
C          122.29852082776780       94.82090901394560      109.38970029735418
H          124.03016853901188       95.83722311695799      110.18378923448759
H          123.52495456009962       94.43294664281679      111.12304606898188
C          121.99548916555385       95.94202158515409      108.39892610861078
H          122.81668051283631       94.01440303270117      108.86787574604405
H          121.36028801345633       94.41731008881496      109.77606872329149
C          121.05023826943591       95.50184026381832      107.28441889565755
H          121.53835486530858       96.77832319034859      108.92922963113776
H          122.92746715278059       96.29753944131363      107.95807536170459
C          120.55765196100447       96.70065920012013      106.47197723404545
H          121.55124817201572       94.79682711451414      106.62102562091583
H          120.17944496151129       95.00611890282497      107.71821913870168
N          119.68656068530562       97.53191286474510      107.27513246830276
H          121.39480679153816       97.31962386741463      106.13997000117368
H          120.00082864495137       96.35363380431400      105.59630070633017
C          119.99526518634164       98.76071188111335      107.69118274503867
H          118.92333996389078       97.03866659212797      107.72672000777003
O          122.83261671783251       98.89955388346763      112.19404653196308
C          119.02017495931563       99.35451840748544      108.68414128912372
C          119.36277011025737       98.83662305780823      110.08693912105936
H          119.08603787879173      100.44178850566880      108.63506324794785
H          118.00703376360848       99.04789737131982      108.42182992621866
C          118.26554957764267       99.08926657346690      111.11642960004194
H          119.50680932572436       97.75499426088874      110.02525964354649
H          120.30205482037063       99.27947986812110      110.42931194965678
C          117.96652205943367      100.56461002433122      111.37370559908018
H          117.34979528839212       98.58482260095282      110.79833578392851
H          118.57375303150116       98.63494072158267      112.06123868825060
C          117.30920338620999      100.76326362801555      112.72973170946403
H          118.90404823546207      101.12832341020882      111.38899294212584
H          117.33355678160729      100.98010666023684      110.59011345917961
N          116.79675314419528      101.96548845042530      112.99119881941527
O          120.99455247042701       99.36924786686934      107.29897906096788
C          116.81915545103193      103.13484759591904      112.13620265572067
H          116.42418312809768      102.10182583804092      113.93117209423481
C          116.53819676766332      104.38246747889714      112.96992510861044
H          117.80405318423635      103.22699373945002      111.66812907314522
H          116.07553679237023      103.02623244380358      111.33909535836824
C          116.68842903118420      105.67906163591644      112.17621677098013
H          115.53492390184782      104.31361218716586      113.39279434109221
H          117.24952521781424      104.39027257704338      113.79824230443759
C          115.55583984434786      105.93890982269036      111.18384396861903
H          116.73772010677494      106.51900996597453      112.87174433707682
H          117.63562106417002      105.64588033835817      111.63431601371691
C          115.83080437472552      107.22238890811587      110.40282450875748
H          115.46897904607536      105.11364820252915      110.47577938934432
H          114.60927934584332      106.02494697261028      111.71859047676048
C          114.82741053064501      107.47527195131596      109.28656278177310
H          115.85163125349361      108.07657538874795      111.08314976341497
H          116.82128255077470      107.13762779680218      109.95341710158216
N          113.59092267116537      108.05479268310634      109.77670417420289
H          115.25978498112210      108.16073748257730      108.54875795892778
H          114.58605088626780      106.53489884803200      108.78012371924407
C          112.59576880246482      108.36285792403567      108.94171906574631
H          113.62078729474997      108.50460791637418      110.68042658529946
O          117.28434077320146       99.86920705789085      113.58008680561323
C          111.38063577628566      109.00422029384700      109.57821226581648
C          110.23893863211731      107.98973258567607      109.67276258507611
H          111.63839139977692      109.39777952618881      110.55909925614414
H          111.05182243994605      109.82367706884379      108.93586931834793
C          108.91400710334953      108.64747054364054      110.05323075634898
H          110.12479871802886      107.51308688856192      108.69603329121529
H          110.49330858370766      107.21174763651290      110.39503176098303
C          108.90114275450495      109.19563066629540      111.48366194419877
H          108.70539102310450      109.46125396302450      109.35644343207473
H          108.11662377176692      107.90706096748956      109.95358228365627
C          107.49546503606528      109.60729107782464      111.86531350013892
H          109.23169275157180      108.42365513978328      112.17969950451966
H          109.56495628933747      110.05526513450467      111.56535699785556
N          107.00444421461876      110.66030353434587      111.21364448610794
C          105.64696235928903      111.12039350969293      111.42565433109451
H          107.56424703297358      111.15487426520376      110.52579551336910
O          112.63583202428633      108.10448469937832      107.73921241892502
C          105.48552507640186      112.56232851867023      110.96927740605109
H          104.95338467432374      110.46589258762663      110.88263348287788
H          105.42509789270703      111.02536934446938      112.49390565104747
C          104.06127369899666      113.06962813497762      111.18774513471321
H          106.19243387428862      113.17721460463160      111.52499627863780
H          105.73721633148543      112.62927356301829      109.91105697381845
C          103.89429582981509      114.54082595575231      110.80290011175101
H          103.37596540521098      112.46174029530459      110.59286603193445
H          103.78922876149213      112.94203724566140      112.23724729847289
C          104.59819292307157      115.48073179748413      111.77760554838649
H          104.28624922222681      114.70795434339381      109.79889004644401
H          102.83174087348964      114.79121521645285      110.78647508714992
C          104.59156142635335      116.92103799897228      111.28159933068014
H          104.10182082357757      115.43837107325632      112.74962313887279
H          105.63693242714081      115.18017139234253      111.91230084783432
N          105.23478877126675      117.76750688230571      112.26613602113460
H          105.09981849667126      116.99378482809247      110.31449325721483
H          103.57079781294178      117.28593607598144      111.14111853046450
C          104.80508323287809      118.98723539517076      112.57453626253692
H          106.04682417127870      117.37045356248728      112.72812630292647
O          106.83549687155306      108.98863462486432      112.70205895934809
C          105.48324172888950      119.65010455644808      113.75680939697227
C          104.87996283859097      119.14441191040409      115.07671216582521
H          106.55276735450046      119.44194928973404      113.74658547000256
H          105.33829236720671      120.72723228590644      113.67291409533649
C          103.35066034143735      119.11878411297391      115.10214764706716
H          105.23237872582706      118.13032761967530      115.26782740326577
H          105.24489379373452      119.77675583246393      115.88782872344402
C          102.71229538502357      120.46368681010172      114.76273238207489
H          102.98886373387343      118.37964341750150      114.38448281276696
H          103.03236910059960      118.79169163502155      116.09457474492712
C          101.20384216575042      120.42979030713872      114.86390361941496
H          103.09038232732614      121.25617095429560      115.40975755741042
H          102.95666976064585      120.73242609989713      113.73332645777990
N          100.60661354649631      121.59419455358980      114.56669926966988
O          103.88503926734543      119.54116616662766      111.96971871509365
C           99.17111254509290      121.78081006616328      114.57990834743052
H          101.17941630992827      122.41066039248108      114.40866346483955
C           98.76389900072792      122.91223439385115      115.51902749706086
H           98.82515634506146      121.99492687141905      113.56296935529011
H           98.72918078586788      120.83608842934997      114.90664661077777
C           97.25083563623480      123.05095989742912      115.65497983788248
H           99.19517386269237      122.73372611807548      116.50534886176149
H           99.17809076363508      123.84837000839815      115.14159889242249
C           96.89461426080773      124.17066012175552      116.63201023083219
H           96.80806645418753      123.25732920835301      114.67848831300137
H           96.83060561646710      122.10864238743481      116.01360091664996
C           95.39490486310315      124.25346961259110      116.89796401639514
H           97.41735965358443      124.00346953192184      117.57660237508620
H           97.23893179807465      125.12543171271106      116.22931480193056
C           95.06061715795316      125.35120713352705      117.91681975297610
H           94.86653418923763      124.45605610727047      115.96211374836579
H           95.03813646405641      123.29245878888483      117.27948142103395
N           93.64736266148215      125.48693403987362      118.23364276525677
H           95.58881240340074      125.14875300310078      118.85318730955723
H           95.40565078653424      126.31758359117173      117.53890434755560
H           93.29043805625949      124.60558604062454      118.58737346555588
H           93.12761373475425      125.70407872920967      117.39002603318454
O          100.56071861156200      119.42808423690146      115.16169401375285
C          119.47918306774702      109.45266539687167      112.75629114181895
C          119.35056475913603      110.76008339294638      112.02848069907621
C          119.60488437634824      108.17613200281859      111.92618134958857
C          120.99296782474927      107.91967594045806      111.33633535776845
H          119.36861095138043      107.34973288134965      112.59752111353380
H          118.84811600035268      108.17856859784031      111.14362596319835
C          121.33444778308115      108.76672229950836      110.10364201653033
H          121.74706501296923      108.09877169424743      112.10496965230962
H          121.05851835617098      106.86801635669818      111.05161509580086
C          120.47577310356071      108.35495483525395      108.92407039599206
H          121.18679346724180      109.82363865389183      110.32075980806582
H          122.37938406583292      108.61264668475444      109.83477061418166
N          119.32025912966472      109.01298611933808      108.84265135710814
O          119.74983526483337      111.77581633533062      112.77024846291890
O          118.89330001759009      110.90653561046231      110.91044673725125
H          119.58415027262022      112.66121747357080      112.34767596302092
H          118.54871873133901      109.36104505819742      113.33001759045754
H          120.29972583534727      109.53930992727055      113.46725540329567
C          118.32631101797401      108.80651315020111      107.81251562552222
H          119.08412889914602      109.68589502327185      109.56903987847315
C          117.31643554756107      109.94571993927936      107.84448628242272
H          118.83264445754401      108.75699526076735      106.84350391323102
H          117.82045075895178      107.84774091538209      107.97276798551680
C          117.96566384800724      111.28639590275833      107.51195710825020
H          116.52109418454586      109.73453057408315      107.13231099621561
H          116.88134329401129      110.00177527717720      108.84415969277028
C          116.99048455746374      112.45454825548229      107.63785079511845
H          118.79182112943820      111.45272903456438      108.20502212288420
H          118.35815938132816      111.24484295521228      106.49246192281772
C          116.03220344371144      112.56539121354560      106.45608265740657
H          116.42340191587985      112.34512898833511      108.56443833658318
H          117.55850876091080      113.38395556425432      107.70756314699194
C          115.13924064663011      113.79009306365714      106.60010665246662
H          116.59851470460580      112.64722452162356      105.52630733193085
H          115.40833932846417      111.67499828608388      106.39175889001824
N          114.32582945274240      114.00262226527514      105.42531677518949
H          114.49714799564866      113.68025072859560      107.48403729605734
H          115.74236182940554      114.69088687683994      106.73778855089166