3536
 energy: -3716.247305364079 gnorm: 0.000662906715 xtb: 6.6.1 (8d0f1dd)
C           60.32579520340443       43.04729877380387       62.31231553081243
C           61.06757150551898       43.91489407681674       63.32903670757219
C           62.56437761997237       43.62151020668951       63.27218713381329
C           60.47444378236569       43.67292367191779       64.72317441361764
C           61.11035032770100       44.44469025203086       65.88889884355247
C           60.51425718843299       43.93261138049984       67.20017274334967
C           60.89201011878601       45.95502729435199       65.74892721454944
C           61.76978825911930       46.84095826295412       66.64572828265317
C           61.20513609871912       48.26050915896132       66.66061090225224
C           63.21810841289673       46.83575565227749       66.14425437433744
C           64.26415400397921       47.49236559024724       67.05700675538495
C           65.56751187712631       47.61809465613931       66.26917209287822
C           64.47113906812501       46.66885947917525       68.33319300799587
C           65.28231168771961       47.33847326493417       69.45156482920132
C           65.66614335008262       46.26968242706513       70.47573696775221
C           64.49296894941862       48.46835761662761       70.12506140652251
C           65.32530861474231       49.37155348288219       71.05540612258544
C           64.54442350739238       49.65985970120832       72.33951276858697
C           65.70723561210276       50.70591777244493       70.39956761560722
C           66.58113871968818       50.60633273493246       69.14478702361620
C           67.97647942368012       50.07619018712102       69.46858652885646
C           66.69128378384963       51.97608718335093       68.45563389321431
C           66.86780079408274       51.87998004721326       66.93480706388370
C           67.40237162132462       53.19436551844236       66.36995280701294
C           65.57371791771837       51.44966826308541       66.22799649409461
C           64.40424641613569       52.44708673186662       66.33432570353084
C           63.18171281088404       51.76854239191692       66.94986250935656
C           64.07050064604312       53.03546176958340       64.95924591037361
C           63.13324767487570       54.24928893969103       64.97191251396822
C           62.74367601642265       54.59246091672107       63.53356428929776
C           63.77460210408894       55.46432988854502       65.66544328915691
C           63.32077739157366       55.69397948043657       67.11573753518419
C           61.91534260011197       56.28692689445588       67.13659340727494
C           64.32836202509367       56.60775558822369       67.82535399135857
C           64.15104618749876       56.75174067034132       69.34335059248529
C           64.95809353873423       57.95881552104939       69.82068248958056
C           64.59193568680283       55.48032811888217       70.08003076490238
C           64.15466436480604       55.41985318682148       71.55087433485485
C           65.06174637509346       54.46931872469128       72.33056982039324
C           62.68738020788260       54.98981360685816       71.68011675909466
C           62.03671590308782       55.39021006153984       73.01983836782038
C           61.68965999545900       54.16105204508415       73.86054697600839
C           60.77041136574996       56.22860215451136       72.79851767084706
C           61.03351291231253       57.62082634858617       72.20219386590323
C           61.46854930221670       58.59646831553698       73.29308473654159
C           59.77154544774623       58.11004698630462       71.48168462102436
C           59.86500305032603       59.46327155030465       70.76064627617070
C           58.50692119092433       59.75669145550830       70.12343620372425
C           60.99338482444696       59.45076502901693       69.72058732795963
C           61.05538600735632       60.64416855455599       68.75625761071666
C           62.18994429525045       60.41147285997936       67.75959270111623
C           61.25047330677846       61.96670711244640       69.50562086013197
C           60.99770989911516       63.23206567053300       68.67245768473624
C           61.54637848095824       64.44103758067531       69.43107247169299
C           59.49903408384846       63.39982615994378       68.39108663115907
C           59.12131657544504       64.46396711725201       67.34782001678504
C           57.79584691762152       65.11529157645779       67.75024803643986
C           58.96751503069428       63.89400176284159       65.93067984047998
C           60.23483488924536       63.38011303495533       65.23416346687637
C           61.29128052849008       64.47852725021926       65.14992420517542
C           59.85140855524999       62.90407937408836       63.82492525149113
C           60.94092076310566       62.12479331686286       63.07045758459522
C           60.77785283415248       62.35484866529324       61.56822106660078
C           60.88223748662681       60.63199935340260       63.41593934497210
C           62.12584609831005       59.83167509908318       63.00435547629450
C           61.78627391023456       58.34381038788426       62.94638487054059
C           63.28922212504074       60.08013641924113       63.97238331749611
C           64.67266364751443       59.74037006314184       63.40269988821267
C           65.68157828614342       59.57472106500460       64.53729765535192
C           65.14683298629718       60.75391618159635       62.34871451001434
C           65.42733233537405       62.18551133266898       62.84602134949976
C           64.86154106690822       63.19611267363792       61.84780120903623
C           66.93587997013799       62.39543555680623       63.03511392316933
C           67.36682320156834       63.66455842618586       63.78679587867497
C           68.77469508309501       64.05340827702709       63.32422270912854
C           67.39359840572797       63.49057324667478       65.31472407439171
C           66.06122280443061       63.54204465172277       66.07231593122614
C           65.29928946938624       64.83555518566334       65.78637425012013
C           66.28518152557895       63.42598814407185       67.58967143167332
C           66.73842388392150       62.04173285895676       68.09271764625795
C           66.01719987565370       61.71172296678984       69.40035256144276
C           68.25838428234917       61.98478158497890       68.30034200483983
C           68.86226392505790       60.57841670475146       68.44810602003149
C           70.32206530787671       60.71568680337041       68.88230937361078
C           68.74033630104397       59.79042707691275       67.13727629544638
C           69.38475975099890       58.39639933301893       67.10714515722246
C           69.21873665908485       57.81222676612243       65.70438538456227
C           68.77612091766110       57.46623603416175       68.16069266503818
C           69.50861366466869       56.13308906546606       68.29882714694801
C           68.95246666447147       55.30813386324611       69.45323953774616
H           60.69469453760082       43.23575726981247       61.30637230887834
H           60.46826495050611       41.99122603341602       62.53404311019246
H           59.25850709386263       43.25856481880034       62.33240084933240
H           69.49656148432342       54.37123505430633       69.55739570937396
H           69.03603047885319       55.85420999815085       70.39126166028041
H           67.90287447656529       55.07737388259920       69.28305564140190
H           68.80055202046181       57.96181159079041       69.13328040096503
H           67.72925954374375       57.27941589794245       67.90870071944616
H           67.68341509112881       59.66953218446110       66.89439669722944
H           69.19586916142057       60.38716220082389       66.34181401744239
H           68.31947175798923       60.05091394672720       69.23775528406094
H           70.39769625842038       61.34320504099900       69.76835322986624
H           70.75547204848833       59.74829528420726       69.12167221732045
H           70.91212426415588       61.17301363946047       68.09023343943628
H           68.76122566752787       62.48155864280982       67.46996381449478
H           68.49224568158498       62.55703989079935       69.20300058374508
H           67.00354649499668       64.18585291468679       67.90715844123609
H           65.33527595943032       63.66704860724601       68.07295118256087
H           70.45660079290917       58.49404903333467       67.30717280035169
H           69.58962321289557       58.51255258106767       64.95873508453279
H           69.77482065529426       56.88431593756481       65.59943282996598
H           68.16964644994218       57.61333955585084       65.49650487376385
H           66.44674990175643       61.29530729138232       67.34899824932342
H           64.93965548566206       61.70009920968679       69.24899215727152
H           66.31603450312377       60.73778713105965       69.77862778329585
H           66.24687270952120       62.45839306892104       70.15878919756423
H           65.43352486488025       62.69897999005055       65.76796168900394
H           65.91614765422831       65.70118836245329       66.01963096105321
H           65.00201578477595       64.89714886048556       64.74382534495992
H           64.39668270309421       64.88773418562224       66.39149009866638
H           67.87774737402104       62.53664457535329       65.53022634346320
H           68.02583703639196       64.28237961391221       65.72881523507532
H           66.70225774607572       64.49110202510354       63.52701935991996
H           69.48124147895967       63.25722685582972       63.55139013674791
H           68.79208619419846       64.23076316790034       62.25104330753696
H           69.11134941248663       64.96186206829785       63.82022026808653
H           67.35718264358921       61.53423770236710       63.55480821378628
H           67.38455550105668       62.41827052073889       62.03758732540290
H           64.92343443982175       62.34325162441839       63.80091771500826
H           63.78336240727796       63.08141534558734       61.75821926837683
H           65.06658950027588       64.21854713588978       62.15871068745003
H           65.30555215749251       63.04862166712909       60.86526412708380
H           66.05339423527307       60.36226859854422       61.88047208369245
H           64.38696967011786       60.79762851359610       61.56647225097606
H           64.59857877092986       58.77264215695265       62.89071176647160
H           65.74488207311006       60.47990005694893       65.13559241699726
H           65.38391319288368       58.75545200133887       65.19007897751766
H           66.67149131030301       59.35221044434444       64.14423152959000
H           63.28331889488724       61.12409757452921       64.28815895963822
H           63.12328877494664       59.47796497929427       64.86924352262241
H           62.42568179852607       60.14735686548304       62.00109870243999
H           61.43448327513437       57.99864223657653       63.91655805308448
H           61.00421933953704       58.15653305898563       62.21294783850679
H           62.65843935320866       57.75719749317286       62.66740083796057
H           60.73661843628421       60.51602820146789       64.49275162194323
H           60.00896266828570       60.20211014264645       62.91899521205545
H           61.92166279018041       62.51074603683963       63.36254610063504
H           61.53143614745967       61.81722042418594       60.99881381823169
H           59.79798791623652       62.02342630528749       61.23434755036140
H           60.87661879837508       63.41389461063144       61.33658867823963
H           58.95877314824995       62.27697513315370       63.89236173039875
H           59.57806758936773       63.78457736790754       63.24095319890979
H           60.63575557502163       62.53076631037575       65.79557452514874
H           61.65095657648515       64.76552294166898       66.13421773965675
H           62.15112829401124       64.15221617182145       64.57092747499762
H           60.87316200099941       65.36063473023299       64.67100377470548
H           58.23470873483173       63.08297298932678       65.96713457376062
H           58.54548262548318       64.68130543166411       65.29995684884265
H           59.88183285413391       65.24874467354363       67.33353327132470
H           57.00841529459276       64.36671570941400       67.80456895124487
H           57.87966570082826       65.59746038706820       68.72235713139195
H           57.49617422962221       65.86931025254435       67.02492113036254
H           59.08295835442556       62.44676426633984       68.06201068039327
H           59.01699664348826       63.64932565966048       69.34073702231730
H           61.53886739150844       63.15032411678677       67.72833096738050
H           61.37026700818173       65.36627753302518       68.88738482212818
H           61.06914750268972       64.52636665736621       70.40599374934249
H           62.61939989022066       64.34158924858114       69.58589733879738
H           60.58259336088626       62.00084862072809       70.36806031028776
H           62.27426408828621       61.99397217860935       69.89004023347768
H           60.12066754781046       60.68135931264523       68.19114107668280
H           63.14618475597162       60.35053098408828       68.27557846148150
H           62.03459960677231       59.47910839867657       67.22204066977612
H           62.24897530518443       61.21529957715894       67.03078636910138
H           61.95095699453130       59.39095154204252       70.24240301524202
H           60.88669865751650       58.54393646778587       69.11956512102363
H           60.06617555362177       60.23814662526348       71.50680837868968
H           57.71644377533205       59.64266286812075       70.86257944031465
H           58.45794239552868       60.77215708504728       69.74159605238410
H           58.31338413209691       59.06482648951540       69.30604946053802
H           59.48211299367909       57.35783877310007       70.74228136035663
H           58.96569094659532       58.17070095825575       72.21827527688322
H           61.84568383233140       57.53689913039792       71.47624769540589
H           62.29868006093504       58.18794239772030       73.86544728047498
H           61.79135912361775       59.54248354721904       72.86560202852033
H           60.64671816043798       58.79237730881538       73.97994611059814
H           60.10563077742954       55.66630170657034       72.13801562722027
H           60.24897891171138       56.34891131188883       73.75192978086778
H           62.75160581925284       55.99186641471279       73.59171707034140
H           61.32114555365723       54.45748887449582       74.84108085516826
H           60.91504933654800       53.57353328759429       73.37205991421662
H           62.56307977900714       53.52878083414038       74.00412020621710
H           62.12021509555399       55.43177938961159       70.86030287499473
H           62.63228429534729       53.90606374816728       71.55413663107112
H           64.26066752021732       56.41834460791243       71.98715675417641
H           65.01378772246163       53.46750873688843       71.90777949458207
H           66.09592856911165       54.80660815736622       72.29368931692439
H           64.76013813678142       54.41723436094798       73.37430245759401
H           64.19640601851444       54.59957528323991       69.56997895119527
H           65.68237709825696       55.42114215579159       70.03226566504613
H           63.09684053130269       56.94490876586622       69.55892081674169
H           64.84068484497944       58.12151925120933       70.88954806780006
H           66.01657243307808       57.81399817447098       69.61304734012310
H           64.62903343091723       58.85913097076814       69.30747216073551
H           65.33982035066198       56.23271748552303       67.64102496336106
H           64.26428673469866       57.60047006400274       67.37145510174528
H           63.28826151801712       54.73296184815445       67.63596351598923
H           61.91253632451218       57.27216324595246       66.67327414263777
H           61.22696443262748       55.65037735501281       66.58755761516920
H           61.54116798435412       56.38227183488540       68.15289806440254
H           64.86009713246381       55.34413274634689       65.64803160705908
H           63.54832023711923       56.36997418698050       65.09742014757873
H           62.21921680797992       53.97574012816976       65.50644265651690
H           62.26600462787743       53.74079561265652       63.05243584979562
H           62.04982681916491       55.42949608622055       63.51352794075520
H           63.62329846239384       54.86446339821391       62.95324796401638
H           65.00217855582549       53.33129678786165       64.47089830809328
H           63.61601255267745       52.24793554506930       64.35126789306459
H           64.70336209589732       53.26591320407845       66.99071321327521
H           63.43144052180017       51.34022766566262       67.91903194316551
H           62.36835757761433       52.47567332427496       67.09811139993798
H           62.82406891440679       50.97113857577075       66.30135752105559
H           65.81046454001095       51.27620043404897       65.17778270073843
H           65.26180989811608       50.48949844756754       66.63777866216698
H           67.61782772797034       51.10562842551980       66.72818640094754
H           67.48334196948160       53.13827208545239       65.28669800883749
H           66.74944653411146       54.02541738706249       66.62401534367943
H           68.38862470385951       53.40451635955411       66.77609523120010
H           65.79968242366172       52.56682224038918       68.67067523847206
H           67.53973594946886       52.51569337657756       68.88219214597497
H           66.09844063182595       49.91180403812604       68.45406829444339
H           68.46122361238776       50.70846427516592       70.21084646553038
H           67.94063228396594       49.06224167909037       69.86034957178863
H           68.59512191556493       50.06831668744064       68.57318469414085
H           64.78125207189046       51.22735900261448       70.13874493668165
H           66.22980877970453       51.32143503219111       71.13806983967297
H           66.24516027210306       48.85210049495991       71.33829174621543
H           64.32222074596244       48.73627767877904       72.86999684208732
H           65.11676134902063       50.30372642443808       73.00513505876866
H           63.60422441898438       50.15676166558562       72.10773127402729
H           64.02185111642167       49.09057883329826       69.36305439369718
H           63.68699688644951       48.00848751603650       70.70088996577024
H           66.20253929052917       47.74751039396634       69.02842205006237
H           64.77358408941114       45.77906198338744       70.86018562214215
H           66.30106277893471       45.51260345294131       70.02034204129188
H           66.20522562871258       46.69868863793950       71.31701331995673
H           63.49996831390673       46.39601950682248       68.75138279483761
H           64.97605908320600       45.74088966440618       68.05422542055182
H           63.92312639102958       48.49634044071596       67.32351980407834
H           65.42146905124910       48.23328231724536       65.38364411335726
H           66.35584781205819       48.06788740759075       66.86656397913698
H           65.90319084103434       46.63386152772635       65.94871721743026
H           63.53545345983861       45.80495441686680       65.97283150948068
H           63.23798025303194       47.34653137839612       65.17711572195013
H           61.73501950296843       46.44996197049151       67.66679120378726
H           60.18764576622943       48.26675523170251       67.04330427628051
H           61.80075937876040       48.90989835411350       67.29554870979049
H           61.19214543232552       48.67479451655690       65.65390197362576
H           61.07710186998800       46.24906669026064       64.71503589142897
H           59.84142481591242       46.16381696219767       65.96620007053862
H           62.18121769752449       44.22778177789171       65.90243045995672
H           60.95321836902095       44.43934773567509       68.05585215153408
H           59.43905730437343       44.09925401141485       67.21912806257410
H           60.69609281826703       42.86562063582129       67.31416436734276
H           59.40794628417921       43.91407333372803       64.69030867760070
H           60.55673615267236       42.60408908176686       64.94195447073147
H           60.91389593219899       44.95939629232082       63.04591424860970
H           63.12398802986227       44.34908285537906       63.85422855513668
H           62.77608312974484       42.62592270141457       63.65790291476762
H           62.91813140978012       43.67216722830831       62.24439399872092
H           69.41328074772044       55.55904831442786       67.37597685975152
H           70.57266788333041       56.32079282430794       68.46731694586609
C           65.90719669639920       43.88278942145362       57.59148005048568
C           65.94965659606194       43.36374313636128       59.02643175903803
C           65.12513564644736       42.08157910616351       59.14054176849340
C           65.42108222792997       44.40316742266095       60.02147040494916
C           66.26616256639460       45.67254670284907       60.17348618986111
C           67.66851893511915       45.35430633197973       60.69271936091432
C           65.59976547692978       46.65788998390457       61.14408845259275
C           64.24593433447973       47.25090533649512       60.72391416712144
C           64.33297871703201       47.96439973887717       59.37761139812797
C           63.79702063151984       48.21255872437503       61.83358461884171
C           62.39921417328433       48.83192363919597       61.69160264137076
C           62.26860497801779       49.97812360686437       62.69182391642214
C           61.31252806776723       47.77531163483595       61.91096195013503
C           59.85331869730538       48.21323093885542       61.70542529542636
C           58.94627352576000       47.06474568905600       62.14974245461529
C           59.59677808173112       48.58885136741675       60.24213015163014
C           58.18763186329471       49.09865545121443       59.90831393482078
C           57.98774616897132       49.03130000222027       58.39392417608370
C           57.94565773655663       50.53112588507255       60.40306653695590
C           56.45562054129685       50.86750326334396       60.59114808829187
C           56.18990841783415       52.33526018083277       60.26260135449035
C           55.99897010495941       50.54842160744149       62.02277181315375
C           54.50116094553481       50.23290661729000       62.14781580332249
C           54.06460841636793       50.33105459252167       63.60900313966655
C           54.18712730462587       48.83735583783959       61.57379307147917
C           53.12681733148757       48.82007099503524       60.46564415149706
C           51.72247274890292       48.87159631033835       61.06137434054718
C           53.26897518549450       47.57132751762211       59.58431453844817
C           54.47645513099955       47.60470137052124       58.64167635442364
C           54.24516374969676       48.58602300122039       57.49163407589525
C           54.78302902910061       46.22732146487286       58.04282972571289
C           55.14588327329861       45.09373687923554       59.01345454548583
C           56.17722191082471       45.53106343172377       60.05191782001540
C           55.72056077677846       43.90107714224077       58.23335463814415
C           54.76684287618710       43.25469535423367       57.22060786793782
C           53.72773503127972       42.38807456526736       57.92742848076842
C           55.58023819034712       42.44475907874433       56.20519275127663
C           54.79234106883793       41.84215028613717       55.03255904273388
C           55.77315181254310       41.07853229729135       54.14542154919224
C           54.06059418621221       42.93487958571279       54.24398891806082
C           53.26874348229327       42.48494110721476       53.00722896314086
C           52.61647575919701       43.71634297275730       52.37833409293904
C           52.22593928560836       41.43102830215236       53.39653380321391
C           51.25597357467369       40.97794717099512       52.29582633931557
C           50.28988600746597       39.95914731816507       52.89869577655764
C           52.01692574123329       40.38871815574728       51.10386864856017
C           51.16380681686388       39.81581091544329       49.96202667169031
C           52.10475328012932       39.20025610930740       48.92620856779317
C           50.26754134478558       40.89697695549962       49.34747195610264
C           49.34194398273331       40.40535315196993       48.21938679779138
C           49.86845355097054       40.84277089122504       46.85173389609774
C           47.91196717910306       40.93774081233092       48.39392612066616
C           47.08137020198315       40.24813729929917       49.48685837070776
C           46.66319182758357       38.85171408480658       49.03013638280312
C           45.85016858648788       41.11211663901373       49.80057865493306
C           44.98917267614777       40.65204656746360       50.99325154705152
C           43.50953998337811       40.64607205993273       50.60424141316054
C           45.18151558689701       41.54299846647559       52.22894362701279
C           46.53272611583907       41.38053059103535       52.93323873887103
C           46.62564941494601       40.00671676567723       53.60015394202897
C           46.75032353344370       42.45429666495231       54.00986823723067
C           46.73336780557631       43.91376602431366       53.54018648558029
C           47.67739341777406       44.13820191068563       52.35858846790057
C           47.15289941792395       44.86614462230832       54.67113799120936
C           46.40754849076742       44.74266586204105       56.00543776907927
C           44.90819692116173       44.97235133601433       55.82850009755215
C           46.95563539669556       45.76638444076464       57.00989101142185
C           48.34917707310778       45.43831096657674       57.56704839388799
C           48.22461475239887       44.61712605601748       58.84967137880606
C           49.15107419823470       46.71913717717327       57.83339422866450
C           49.63649040349816       47.41366014100120       56.55357667137105
C           50.84104643151393       46.68575778422970       55.96075056387701
C           49.97815505006693       48.88795640609894       56.81270576213764
C           49.97873682033830       49.74798619645023       55.53408170026129
C           51.26352069791552       50.56706547539700       55.43249133878865
C           48.77289266057345       50.69579145035689       55.48138991727438
C           47.40431488890996       50.00867631514069       55.42342065593825
C           47.15831436046783       49.39768243218647       54.04444149637730
C           46.27270138288289       50.99603892051254       55.74831519821247
C           46.12055639250980       51.38273890630820       57.22712061557910
C           45.68754320577554       50.17749661788836       58.06133983405517
C           45.08936113347675       52.52066444874277       57.37433535038029
C           45.64709695187643       53.93078410349609       57.62396819108191
C           46.62026399687479       54.36213053217824       56.52888012062391
C           46.33148265805297       54.10401935238761       58.98563133125475
C           45.50486995210493       53.77234205352011       60.23500065416365
C           44.19023779332918       54.54830791239177       60.27068174396769
C           46.35158797629830       54.07351970646550       61.48015889034524
C           45.82432368746280       53.43767662664424       62.76435288205387
C           46.69552615071713       53.79870915326452       63.96108359098776
H           66.23577825181776       43.11086058713916       56.89893850604109
H           64.89274741092004       44.17261259073094       57.32345289912539
H           66.55770348995873       44.74431163451319       57.46680062975143
H           47.71361821994731       53.44286842114980       63.81372933840020
H           46.72718833518900       54.87826346423468       64.09754005981947
H           46.30531702182351       53.34974103600707       64.87204627156628
H           47.37005309270686       53.71318783581060       61.31208572868749
H           46.41177252410523       55.15575512418194       61.61907056635169
H           47.23468652068492       53.49247962288220       59.00229381862231
H           46.65161936034364       55.14740900277710       59.06303597347711
H           44.79041104159960       54.61430013862402       57.58448227074152
H           46.14969654844555       54.30138726326821       55.55174641550492
H           46.93482529032593       55.39100430666677       56.69201991337275
H           47.50961260093463       53.73815560698922       56.52407929192373
H           44.47920175963888       52.55932073747088       56.46860408873597
H           44.40746379456326       52.28282380536112       58.19248350737130
H           46.43150326674112       51.90150022669012       55.15946543587986
H           45.32523739465593       50.55606355789151       55.42252424898903
H           45.27749724146405       52.70127523056291       60.23530155694132
H           43.54742242754436       54.26579522826111       59.44076279699856
H           43.65004702789508       54.34648606407093       61.19248317951988