3536
 energy: -3716.230001422383 gnorm: 0.000978621784 xtb: 6.6.1 (8d0f1dd)
C           60.32653777030357       43.04785637136470       62.31258072456605
C           61.06815004848380       43.91546857230255       63.32944281483341
C           62.56495264599563       43.62055376395547       63.27269215635146
C           60.47476872209764       43.67272679184090       64.72349703690448
C           61.11116434826696       44.44374391354253       65.88948270584685
C           60.51455635465413       43.93240365329761       67.20070159473607
C           60.89237499575479       45.95432237935915       65.74897459821766
C           61.76999722529858       46.84030764407323       66.64606248718297
C           61.20516749704414       48.26014251261633       66.66147278138422
C           63.21831238309390       46.83539167254990       66.14430938656334
C           64.26418082507811       47.49204466577928       67.05755801381378
C           65.56730901991889       47.61746418812067       66.26860369815796
C           64.47152060499283       46.66810955833638       68.33358241438094
C           65.28300180870286       47.33820105925393       69.45170609184504
C           65.66584717073005       46.26919986649800       70.47573792351052
C           64.49280303252597       48.46788590264465       70.12527130649876
C           65.32516289712160       49.37121793226297       71.05572678631613
C           64.54397153680401       49.65999817661963       72.33932734714199
C           65.70684335766008       50.70563330040893       70.39987602969865
C           66.58067511297719       50.60511252451175       69.14490586526752
C           67.97638706751427       50.07618281748437       69.46889344177804
C           66.69049294164971       51.97575530030699       68.45676918287283
C           66.86768866766874       51.88019229987394       66.93600049193364
C           67.40247287421539       53.19456885192221       66.37067056243464
C           65.57373321028462       51.44964533877383       66.22855211504373
C           64.40440999874092       52.44738263111584       66.33545539820857
C           63.18150599746206       51.76886401370390       66.95060807261189
C           64.07113211479341       53.03522912886178       64.95978678251774
C           63.13358259796765       54.24911240896327       64.97294445421022
C           62.74401041128515       54.59228168677978       63.53419402098866
C           63.77521333673416       55.46439222067488       65.66625188895135
C           63.32105436395483       55.69392499689693       67.11676127067079
C           61.91530238733270       56.28694771173171       67.13675965060622
C           64.32872118803064       56.60816880428660       67.82595067204684
C           64.15082948646933       56.75186663320272       69.34416846051795
C           64.95862424045377       57.95880749816386       69.82077563597164
C           64.59187526105536       55.48001948296503       70.08041259887897
C           64.15454805229591       55.42003445769191       71.55142302432999
C           65.06129386636012       54.46883976115340       72.33027466400694
C           62.68699545777017       54.98971107287552       71.67974850646038
C           62.03634308761650       55.39024006937374       73.01965014784216
C           61.68894334035004       54.16114122391743       73.85997141827126
C           60.76999329496792       56.22871332023077       72.79840844370453
C           61.03389526523687       57.62088358267921       72.20168781752805
C           61.46783075683732       58.59673696872207       73.29251321540310
C           59.77145424862465       58.10991229516444       71.48121720423980
C           59.86505012122635       59.46365858127439       70.76083767505263
C           58.50675225506332       59.75739531030052       70.12378613306130
C           60.99340675189563       59.45085989615352       69.72049642121280
C           61.05513627173919       60.64462425772297       68.75621451923804
C           62.19069684125813       60.41205143843067       67.75987019225188
C           61.25026938845345       61.96693919441317       69.50587734226181
C           60.99813882953708       63.23179083261368       68.67163203937545
C           61.54604875301673       64.44056202500597       69.43059072702245
C           59.49903781408343       63.39920537400004       68.39064169572710
C           59.12160192443952       64.46414600709556       67.34808082144936
C           57.79586499307349       65.11490261198850       67.75021190126600
C           58.96745897267548       63.89410067429937       65.93079835832168
C           60.23540593151182       63.38019815769538       65.23487506705551
C           61.29173688380968       64.47882107941655       65.15010208415178
C           59.85136453868355       62.90435698706560       63.82538223788346
C           60.94122882115630       62.12546401493233       63.07068373323543
C           60.77790428219123       62.35538312666294       61.56818969151240
C           60.88239468255786       60.63242119637322       63.41617982188654
C           62.12638842364826       59.83242213867712       63.00398466657027
C           61.78651642920177       58.34420624390782       62.94640555289234
C           63.28958627072750       60.08084558770805       63.97242706446745
C           64.67293676403190       59.74029945078469       63.40224576799869
C           65.68142016471896       59.57545057990345       64.53757978628373
C           65.14687206536249       60.75446341919335       62.34830595449719
C           65.42778565089532       62.18599470131582       62.84631246568233
C           64.86232656858671       63.19635322884096       61.84730932329977
C           66.93668534278154       62.39538397493564       63.03464734215032
C           67.36698552812932       63.66472975066890       63.78660759808566
C           68.77482034442457       64.05265441685135       63.32359343522678
C           67.39336368621467       63.49002950322494       65.31447761618432
C           66.06059513093355       63.54132265648059       66.07198178504221
C           65.29959814071202       64.83559651363861       65.78617805565047
C           66.28537344596663       63.42569966154399       67.58930123345419
C           66.73845301016186       62.04105295496502       68.09172662226547
C           66.01752179132201       61.71185671306634       69.39981669062284
C           68.25851156913723       61.98462969884643       68.29985817531639
C           68.86223761486417       60.57833664110194       68.44826733150553
C           70.32197421559550       60.71535194701073       68.88164028197920
C           68.74054647811104       59.79079124549805       67.13692489086854
C           69.38525465450697       58.39676510771948       67.10749809399903
C           69.21929511836872       57.81236592646012       65.70449181646251
C           68.77607415340370       57.46651409927748       68.16068561866976
C           69.50823932482280       56.13287385862274       68.29798254332904
C           68.95136620059823       55.30797080596409       69.45223585291259
H           60.69588465457346       43.23659527410366       61.30675184609142
H           60.46983188002235       41.99254426706766       62.53513128564207
H           59.25930509629817       43.25913482935634       62.33248608520162
H           69.49573619644769       54.37143980110457       69.55621531861829
H           69.03483974410803       55.85462154985044       70.38949305325725
H           67.90177410831686       55.07708196290653       69.28176717428633
H           68.80143989970188       57.96194388642687       69.13271423225940
H           67.72900439239862       57.28092980944584       67.90808861519308
H           67.68368110905506       59.66936384903661       66.89309328724572
H           69.19667711998291       60.38691217751533       66.34141498931409
H           68.31873694257501       60.05060706530381       69.23661687141936
H           70.39702569939824       61.34305794694916       69.76716175613805
H           70.75492424484362       59.74793966148800       69.12108973270993
H           70.91137801630992       61.17232174518797       68.08903833262740
H           68.76162266378806       62.48135561106987       67.46985817938756
H           68.49073406066621       62.55574446802397       69.20285425137008
H           67.00437995521901       64.18456996444203       67.90547488710401
H           65.33566011236370       63.66653318512283       68.07246200518455
H           70.45639628789148       58.49442600037666       67.30686947953474
H           69.58885472359322       58.51307902064775       64.95854219157867
H           69.77579631504706       56.88484162259762       65.59925671127047
H           68.17004188356307       57.61205260382679       65.49669578027627
H           66.44614278536363       61.29466527056723       67.34802626620562
H           64.93990864863079       61.70037530123681       69.24876583815809
H           66.31641166424616       60.73811860370785       69.77838387019467
H           66.24815206364933       62.45921235422882       70.15665440947504
H           65.43227247072100       62.69833221415482       65.76835137808447
H           65.91774467663036       65.69973291955129       66.01954021229727
H           65.00230778555556       64.89739043499043       64.74360786267800
H           64.39720863680418       64.88802592136136       66.39151362629956
H           67.87769771283632       62.53627217324706       65.52963147535510
H           68.02404718948507       64.28240431866362       65.72777350490003
H           66.70195763688007       64.49011717607489       63.52652568161425
H           69.48061469364909       63.25581244694596       63.55017955655707
H           68.79135597442973       64.23045760716070       62.25035524515629
H           69.11079924449244       64.96047647386148       63.82003389673105
H           67.35743947643540       61.53372004314767       63.55390872362420
H           67.38404620484779       62.41808450745658       62.03675208526175
H           64.92404059550697       62.34314731219949       63.80081666374983
H           63.78401457599222       63.08208720879933       61.75764929652543
H           65.06875764163247       64.21792739176965       62.15841458327144
H           65.30628358502680       63.04704849718167       60.86510123922407
H           66.05323717469834       60.36260786074855       61.88047729462772
H           64.38685335867385       60.79819428604279       61.56618148856670
H           64.59797109127982       58.77298012665574       62.89035091406829
H           65.74310305217384       60.48110148558536       65.13465318549966
H           65.38319873185648       58.75619415052531       65.18997183247244
H           66.67097305012121       59.35310829891885       64.14403080236347
H           63.28349014125516       61.12470903353950       64.28673109990986
H           63.12319201550556       59.47856493564534       64.86867869464228
H           62.42573451426114       60.14746524543551       62.00094271876109
H           61.43557513038972       57.99950353852426       63.91699254343239
H           61.00370267591409       58.15710842022535       62.21367817763824
H           62.65852359835704       57.75781174314748       62.66635071959559
H           60.73753510947072       60.51622703136976       64.49265900538776
H           60.00955801913702       60.20214901118444       62.91898621613353
H           61.92142616173058       62.51085810335785       63.36250820089405
H           61.53118244478573       61.81746075949742       60.99859566566817
H           59.79769947718096       62.02412520565276       61.23476600700629
H           60.87681103996925       63.41433192687189       61.33734575938745
H           58.95892702805344       62.27698238466518       63.89189196672430
H           59.57862764388978       63.78436169544287       63.24066632224063
H           60.63521484904845       62.53018898303714       65.79509380636425
H           61.64973529365588       64.76536459456230       66.13457387279685
H           62.15149001924826       64.15170977218200       64.57154722491825
H           60.87260734763691       65.35963543158330       64.67019315903599
H           58.23541974645434       63.08224118969647       65.96642861770498
H           58.54601912344405       64.68073148596031       65.29923357631405
H           59.88228176358871       65.24772493754220       67.33296908862950
H           57.00920635150420       64.36550585103382       67.80433891068263
H           57.88076043287339       65.59626104376275       68.72201604128556
H           57.49658601979498       65.86851181537565       67.02463772960888
H           59.08182874556622       62.44661814271171       68.06100732537067
H           59.01755558792505       63.64925236912894       69.33980157735905
H           61.53913140160824       63.14883466379052       67.72765669424797
H           61.36942110576087       65.36530423113867       68.88671418673772
H           61.06797162551974       64.52436698270675       70.40474521342537
H           62.61876793598093       64.34052711505407       69.58495461266817
H           60.58132352096215       62.00050661998765       70.36684830359189
H           62.27366735543091       61.99336855768142       69.88958899878699
H           60.12104654511507       60.68098380258129       68.19015799364412
H           63.14638895037984       60.35022202172846       68.27620383151546
H           62.03503053672033       59.48008482389206       67.22120540331326
H           62.25055118557419       61.21635267007147       67.03160252765757
H           61.95074704980330       59.39159809615799       70.24184007123812
H           60.88635499146002       58.54427357139383       69.11884047083741
H           60.06655281287944       60.23763800747360       71.50640939704095
H           57.71691970118631       59.64313854463578       70.86322957595141
H           58.45749465748186       60.77257033121336       69.74134510825849
H           58.31275627503958       59.06520974565862       69.30635190981931
H           59.48127130265570       57.35823024308677       70.74118590058909
H           58.96597075311522       58.17121512648921       72.21752502449955
H           61.84518067069108       57.53653802836116       71.47509752354499
H           62.29744117502745       58.18750539522513       73.86439031469054
H           61.79074152189126       59.54236677931844       72.86450928831300
H           60.64517170497702       58.79183159115138       73.97802337280442
H           60.10438534356877       55.66678354058551       72.13823795926650
H           60.24997927493312       56.34973994601809       73.75182009159542
H           62.75093445187623       55.99187629072625       73.59022103881371
H           61.32239190306080       54.45855293892793       74.84051512351340
H           60.91262323853145       53.57482514751820       73.37269703434370
H           62.56206505392333       53.52832358943770       74.00159433248291
H           62.11982780609135       55.43102520186547       70.85928219349657
H           62.63262920115542       53.90606190740672       71.55359452185934
H           64.26037062948146       56.41827577863722       71.98639279024601
H           65.01232756933923       53.46724036785305       71.90741791411958
H           66.09520445396346       54.80615064609336       72.29230210564526
H           64.75920108993256       54.41784014152745       73.37346949434014
H           64.19599770432075       54.59964363605471       69.56993184122119
H           65.68190677433189       55.42177494536557       70.03223921598025
H           63.09662357486229       56.94490113992142       69.55803391917858
H           64.83991551243864       58.12093659740027       70.88903698935378
H           66.01654612907609       57.81212108954367       69.61306534317352
H           64.62986316907710       58.85849250255040       69.30632213118524
H           65.33935083507527       56.23241375401528       67.64080347597358
H           64.26389577207566       57.60027780533001       67.37123035536698
H           63.28781286807813       54.73312481444815       67.63612806596292
H           61.91281280253592       57.27193512553548       66.67298690908449
H           61.22714584393550       55.65012542455551       66.58755803302080
H           61.54148630275348       56.38215658974026       68.15284869781878
H           64.86032398206393       55.34371185446891       65.64845238886009
H           63.54825482940433       56.36928130413525       65.09759027503091
H           62.21989377965239       53.97547323546456       65.50705731412826
H           62.26635702528969       53.74039410243267       63.05333829341367
H           62.05021022575734       55.42945333512459       63.51420966427295
H           63.62374044758793       54.86421681524031       62.95418454593036
H           65.00241623042963       53.33152815052058       64.47149356842885
H           63.61597907641708       52.24821768139791       64.35194386699813
H           64.70382593498294       53.26644686099647       66.99053797831850
H           63.43234281341798       51.34083655458430       67.91906755519814
H           62.36845695933099       52.47626461483009       67.09865458862716
H           62.82440589228533       50.97200792163802       66.30113322560163
H           65.80936691528450       51.27640404083787       65.17809714748930
H           65.26068711720114       50.49010577453863       66.63823590653735
H           67.61633518909038       51.10596936174377       66.72823434813242
H           67.48311078527585       53.13783075171985       65.28726183494541
H           66.75024450572393       54.02638681710818       66.62409146113660
H           68.38856931615129       53.40329352768127       66.77688627345388
H           65.79896943532592       52.56644183692693       68.67137233134248
H           67.53920803086241       52.51454205101679       68.88234276865688
H           66.09767159876432       49.91142578294766       68.45366970387860
H           68.45940432012181       50.71002077751242       70.21029138892143
H           67.93998723287123       49.06286598212888       69.86119737767719
H           68.59459564746057       50.06811042007091       68.57328923205969
H           64.78118084792263       51.22740856730868       70.13857679598863
H           66.23043742901878       51.32047695691379       71.13720724448781
H           66.24453887577309       48.85206599880842       71.33763430265331
H           64.32189758862911       48.73624200710188       72.86904352244811
H           65.11690701982650       50.30354628749620       73.00419555823906
H           63.60402112258910       50.15748140110311       72.10770170060029
H           64.02066730491460       49.08989003369958       69.36345742357661
H           63.68778930344817       48.00729700990987       70.70124517267210
H           66.20232546623805       47.74757002361331       69.02781189422267
H           64.77264016546268       45.77947100632797       70.85905892753013
H           66.30058407130896       45.51247680050357       70.01997704709225
H           66.20427679061646       46.69896226329718       71.31655077041376
H           63.50026331794813       46.39605767955863       68.75109637104227
H           64.97653151651274       45.74103843204308       68.05351528897395
H           63.92315696762192       48.49603510544807       67.32323065274359
H           65.42109566428643       48.23345896949712       65.38325015970371
H           66.35572193418852       48.06651798680359       66.86608055118941
H           65.90158968004287       46.63327035169803       65.94709027464572
H           63.53544134962808       45.80493297215521       65.97321953234753
H           63.23826538910533       47.34652711287706       65.17729020071536
H           61.73550616374517       46.44987436649316       67.66639112146881
H           60.18783999735709       48.26624936163225       67.04438108615280
H           61.80112074603555       48.90938596736877       67.29620388296510
H           61.19160666025585       48.67535625196552       65.65487815073608
H           61.07762353723869       46.24911866682189       64.71525728920189
H           59.84220174226189       46.16385562949682       65.96653483754379
H           62.18177373341649       44.22806912014055       65.90215433971076
H           60.95372951573120       44.43951887512984       68.05581418204801
H           59.43958767536944       44.09945336889844       67.21835442951922
H           60.69699500074036       42.86588731108972       67.31354778114020
H           59.40861962171638       43.91408508950359       64.69070557623868
H           60.55839126172945       42.60467873564814       64.94156753488504
H           60.91532018839951       44.96014781670792       63.04643032505340
H           63.12526108056214       44.34873932992899       63.85348574656467
H           62.77485577768183       42.62552795768523       63.65968520694614
H           62.91784831822394       43.66969837124522       62.24447467157282
H           69.41279436292933       55.55977229857807       67.37443579177960
H           70.57155837526750       56.32091093306750       68.46686400829557
C           65.90650982663641       43.88392385343185       57.59107234295781
C           65.94981288452361       43.36471961225009       59.02618522713749
C           65.12530316994153       42.08285706240817       59.14121323960286
C           65.42092370574731       44.40344063596751       60.02196531827758
C           66.26656456868321       45.67268568988201       60.17345538760794
C           67.66872753309369       45.35407046235414       60.69322125758971
C           65.60058164911092       46.65802627434907       61.14477312871471
C           64.24639927180090       47.25038140369428       60.72401329504792
C           64.33353448515500       47.96422517408684       59.37747394130106
C           63.79736832887857       48.21209220348209       61.83376788962772
C           62.39945543316587       48.83160270728646       61.69073392533800
C           62.26902549503281       49.97757040627227       62.69184392571060
C           61.31289529784584       47.77467588654859       61.91062738998284
C           59.85346631665470       48.21301723097061       61.70606750240463
C           58.94671045609932       47.06370872484337       62.14921855500135
C           59.59748860319395       48.58842345888342       60.24228996962114
C           58.18782444898905       49.09743533485338       59.90868794954375
C           57.98810247004775       49.03020606722944       58.39400195531476
C           57.94564680842468       50.53020823986943       60.40359124755091
C           56.45522127687873       50.86643651909014       60.59147359538382
C           56.19041747755990       52.33485285690541       60.26328627558208
C           55.99855508805953       50.54795827846961       62.02346921075855
C           54.50033809657335       50.23244896269995       62.14794991571009
C           54.06461116802078       50.33018178326795       63.60965385337236
C           54.18672218614785       48.83657524065608       61.57393291074663
C           53.12656352484353       48.81978842612850       60.46510313583545
C           51.72218694788374       48.87016114364670       61.06139719722631
C           53.26884857321824       47.57017848696918       59.58466027640490
C           54.47668200712596       47.60367613571454       58.64228043142062
C           54.24485087549272       48.58502128494029       57.49165884349814
C           54.78272618341672       46.22613903928542       58.04294414570114
C           55.14552822288400       45.09245920765259       59.01381708312064
C           56.17758956928544       45.52977284574526       60.05180280555710
C           55.72055075470134       43.90076722016681       58.23250499004182
C           54.76607416982591       43.25531866470114       57.21949952463252
C           53.72812942645464       42.38806481169613       57.92670080199491
C           55.58034367835359       42.44478861926691       56.20485636059433
C           54.79213737476342       41.84150927355047       55.03260502437278
C           55.77300887900940       41.07816428751770       54.14524934275272
C           54.06028793711706       42.93468476609637       54.24419188713279
C           53.26843129811033       42.48422994944708       53.00729622390593
C           52.61589045166301       43.71631662923305       52.37880385666318
C           52.22531078908467       41.43074802698521       53.39682730705412
C           51.25539796561017       40.97843942695229       52.29552569400852
C           50.29001839119882       39.95909327364915       52.89849367146834
C           52.01697182463332       40.38886833162925       51.10383384166109
C           51.16345613058902       39.81581096442588       49.96225774415984
C           52.10418344512861       39.20088541371678       48.92618459710806
C           50.26712043229617       40.89728037137037       49.34778005532869
C           49.34155405907995       40.40566822077701       48.21939805480807
C           49.86821464992077       40.84343982342962       46.85186526663153
C           47.91163308003516       40.93832160073458       48.39411306176365
C           47.08141971007447       40.24841262261454       49.48741115674800
C           46.66293897037606       38.85270966465815       49.02976842044793
C           45.85000774009529       41.11261965957461       49.80059195319033
C           44.98918404597669       40.65227881269008       50.99343325379878
C           43.50982017438243       40.64633674591943       50.60426459205274
C           45.18142962241728       41.54355014038103       52.22892177564960
C           46.53326691719464       41.38088631181067       52.93240006393719
C           46.62576470327800       40.00725176159732       53.59944805980160
C           46.75068518404805       42.45411140581276       54.00980167020284
C           46.73299015646753       43.91358593268119       53.54010328190775
C           47.67726915752262       44.13928769783583       52.35835868481131
C           47.15296490407243       44.86612126050806       54.67109229705132
C           46.40705209066889       44.74204025177265       56.00529321446226
C           44.90783223450640       44.97225609235733       55.82847227205484
C           46.95483952477544       45.76618343621966       57.00974713899082
C           48.34855703992002       45.43763368415573       57.56671913789593
C           48.22389655641760       44.61797454902102       58.85000592194912
C           49.15057859101057       46.71842399551301       57.83382111594399
C           49.63565116261289       47.41246342758578       56.55348102259788
C           50.84083062646211       46.68493276259354       55.96064314023953
C           49.97710202463645       48.88709623787706       56.81307810099621
C           49.97774139642070       49.74677037969430       55.53411541310702
C           51.26267184183242       50.56636662368746       55.43298570848520
C           48.77224198993827       50.69536956534799       55.48139485721514
C           47.40361982884807       50.00776694877643       55.42345392730187
C           47.15753089568918       49.39727992988312       54.04407618608067
C           46.27257946651935       50.99613747521209       55.74828181095926
C           46.12123526609609       51.38235725727319       57.22769842536521
C           45.68714206309414       50.17672190155877       58.06085858703210
C           45.08930839851787       52.52003900836833       57.37451901564645
C           45.64634983297083       53.93047493317204       57.62444564819711
C           46.61985876951353       54.36196165838858       56.52922837613963
C           46.33120689485693       54.10379909487061       58.98616959244166
C           45.50369349479047       53.77210722683210       60.23533014441422
C           44.18919309549822       54.54854138766375       60.27031055802033
C           46.35092148286874       54.07366080249311       61.48047767450712
C           45.82321177657844       53.43730103262018       62.76458343678329
C           46.69502912221370       53.79887892980799       63.96092808183076
H           66.23387502406678       43.11105973917548       56.89947031327467
H           64.89196241332044       44.17426592030268       57.32359524237984
H           66.55755291945579       44.74512541230091       57.46455161009169
H           47.71290427428877       53.44253432363898       63.81322037530361
H           46.72691818000775       54.87848731245369       64.09627041853305
H           46.30436049868644       53.35027064974175       64.87134759203576
H           47.36918904468892       53.71355825243154       61.31117871753262
H           46.41114502646523       55.15580226415836       61.61882381453646
H           47.23423197789784       53.49222894989840       59.00203330191417
H           46.65115754553857       55.14706841964770       59.06266157541851
H           44.79023626472097       54.61357852303146       57.58472067871541
H           46.14893730871251       54.30140307764228       55.55229297953999
H           46.93488962782393       55.39060405617402       56.69268205053244
H           47.50902317840561       53.73766196912720       56.52416305634257
H           44.48010610117196       52.55886892038304       56.46855252315266
H           44.40852150764916       52.28234717908671       58.19282545692450
H           46.43213713059173       51.90132098922714       55.15937017351767
H           45.32568455605789       50.55599181720001       55.42317483634277
H           45.27713938312030       52.70170746798333       60.23488080690338
H           43.54690272731226       54.26582154718567       59.44004597000013
H           43.65022510985288       54.34592839680361       61.19215033140128