3536
 energy: -3716.263979744187 gnorm: 0.000662996551 xtb: 6.6.1 (8d0f1dd)
C           43.42637620794487       55.76375003209272       35.07500692048456
C           44.70174674401829       56.59148192795999       34.93925210201623
C           44.48902797860026       57.71143988371015       33.92105974015217
C           45.89794780583412       55.73320668762758       34.51033393600168
C           46.32977654685664       54.64494716189553       35.49970579116039
C           46.65940897841111       55.24250837587255       36.86687650986270
C           47.57870496959699       53.90681266088527       34.99673581840692
C           47.47276249647538       53.19493269910664       33.64492776721325
C           46.34588192274736       52.16196630867603       33.64888159830566
C           48.79345458815625       52.48585093727614       33.30610655738103
C           50.03420137703180       53.37944931495954       33.16620923761008
C           49.82004914594101       54.46024119488099       32.10833065952681
C           51.24633615761946       52.50498112172804       32.81031679317869
C           52.60678389230760       53.17487727214863       33.05341467302506
C           53.68256185115057       52.47708720088026       32.22130207311535
C           52.98387963035890       53.14951754836122       34.54073136883188
C           53.95425269014664       54.26843077167499       34.94781141655367
C           54.59067753252434       53.92308709523171       36.29239364784146
C           53.23397788501524       55.62811601266274       35.00819552332172
C           54.00111554934966       56.77913088629917       34.34824757443340
C           55.26401000373317       57.13066651462410       35.13457654013057
C           53.11918627728239       58.02989096738777       34.21972876030919
C           51.97138909870770       57.94295647094875       33.20640729692114
C           52.49696262095753       57.76088042725249       31.78211312443449
C           51.11483439712902       59.21726424975873       33.25951237470588
C           50.17731920566042       59.35852018420342       34.46845496237347
C           49.04369338017671       58.33833103548276       34.39228514813264
C           49.63819466474492       60.79674654675549       34.48321133714529
C           48.77275237506449       61.21009122250243       35.68254481728180
C           48.09599552665911       62.54171557951511       35.35213232597320
C           49.61048663759528       61.33662245727279       36.96054213202894
C           48.78832290317985       61.50787024994945       38.25276398030524
C           49.33186630479982       62.67383459918204       39.07989542692426
C           48.78270386922210       60.24026864436745       39.11731904635764
C           48.11899095133388       59.01333521553809       38.48507375726355
C           46.62064503980933       59.24173866466547       38.28310134328270
C           48.32121544519069       57.76649446026304       39.35988757124680
C           49.74491878008921       57.19754806410864       39.42191501523618
C           50.22835895113828       56.74309029346868       38.04452206480475
C           49.79151135866157       55.99025375621486       40.37068810606804
C           49.66085630862973       56.30601451838555       41.86517343843013
C           50.97282712293324       56.87540902886978       42.40327986489884
C           49.28994403885426       55.04998413559272       42.66712763723108
C           47.90237888526991       54.46122014875120       42.38603644073832
C           46.79003992175917       55.45355779336366       42.71373823368986
C           47.71159378140814       53.16382372087092       43.18532823265683
C           46.67951752887146       52.21347164609457       42.56280466907119
C           46.22238475736008       51.18679267386313       43.59686765113102
C           47.26652528043503       51.51347510650872       41.33064036376197
C           46.22448646534157       51.04870918592401       40.30435506688287
C           46.89724489346690       50.07767604148161       39.33641741021250
C           45.60333254276593       52.23973754723927       39.54843564008865
C           44.08222150899962       52.15681675122527       39.37236466620105
C           43.69026506889915       51.02036137745453       38.42941326627167
C           43.51310806103028       53.47490453189178       38.82642969934362
C           43.38965971763734       54.62352042143883       39.83854353952918
C           42.29259812205412       54.33261997104357       40.85780806327325
C           43.09882819127517       55.91666954130294       39.06409142391060
C           42.82870304104294       57.18585308610594       39.88532422154256
C           42.54686179870808       58.32782965167918       38.90721098702824
C           44.00897989672438       57.51361192888766       40.80434824131953
C           43.79306065294912       58.69437766265747       41.75901342658143
C           45.10665616936155       59.01374574007292       42.47299714739982
C           42.68783318804201       58.40749884007784       42.79221799919710
C           41.38748180182707       59.18845953165946       42.57238413812285
C           41.58535076244618       60.65931779992202       42.93974015674114
C           40.25069604532933       58.59725166914860       43.41881384878887
C           39.58412165696581       57.33904053291269       42.84473848987030
C           38.71251416718015       57.69157446385241       41.64195550361738
C           38.76099466200122       56.66211114396027       43.94975707869406
C           38.12942299296895       55.31192777591841       43.55708024182737
C           36.60965800414516       55.43128260119204       43.44498921752872
C           38.49199450257427       54.21418488947283       44.56755738917546
C           39.94907887904863       53.74800523215609       44.44793740432826
C           40.10401634176674       52.77397072354980       43.28326388247667
C           40.44640096078039       53.09505700660100       45.74458058724318
C           41.98397262327291       53.06783459995894       45.86155273314046
C           42.49496632207010       51.64127490823373       46.05644875500749
C           42.47277931455716       53.95952094453640       47.01038851005794
C           42.20609453556694       55.45570733719781       46.80604022341304
C           43.23624619122059       56.05766682064643       45.85119740178794
C           42.25141528383950       56.22205840503785       48.13477499739967
C           41.08396506729193       55.98229577516611       49.10263591610070
C           39.75567197506031       56.42976768964920       48.49514634411134
C           41.36101681155696       56.74709414387481       50.40469414868721
C           40.52069023636508       56.32922005257328       51.62002566546194
C           40.58904327376809       57.43094715722671       52.67540163208478
C           41.01314783845555       54.99455345952071       52.18903972453622
C           40.14721630805935       54.43918498770593       53.31795420498695
C           40.57732575527060       53.03315021439614       53.71670978658018
H           43.19642181678638       55.26474522895360       34.13528653169723
H           43.52635496771947       55.00970523278907       35.85079159663472
H           42.58647260069883       56.40445493799178       35.33595846782673
H           39.96906095940342       52.67009074707594       54.54173206704008
H           40.46855121817445       52.34479872382053       52.88088550577634
H           41.61857464761676       53.02757512589911       54.03242118168665
H           41.03938066095963       54.25744601505608       51.38455225755317
H           42.03717672418317       55.11911079741870       52.55049115385111
H           42.41385270448442       56.62533282113934       50.67116099431779
H           41.19706102399692       57.81025447018023       50.21161190033631
H           41.01961545991655       54.91391652502465       49.32987831335672
H           39.47874004722162       55.80745653024179       47.64767916521370
H           38.95360948871115       56.36355827372046       49.22659450454386
H           39.82263242988174       57.46105994435075       48.15338230867810
H           43.18529143688353       55.96482937504780       48.64069186482478
H           42.28486926971464       57.29201236403520       47.91316265623909
H           41.99017653320257       53.62214448776157       47.92887514612686
H           43.54821563978867       53.81717182437262       47.14402425838450
H           39.47436455993782       56.21254476674235       51.31636407770855
H           40.25027617362642       58.37781040393392       52.26201023822625
H           39.96027360208613       57.19242520078569       53.52932629845580
H           41.61354284692760       57.55798235505561       53.02011448835730
H           41.21816308707066       55.58620607861775       46.35823157642650
H           43.00783955399758       57.10260300347473       45.65312445623468
H           44.23372629811330       56.00271603778430       46.28301163284142
H           43.24601792138741       55.53011489190656       44.90065867217164
H           42.41354698370862       53.44563157074985       44.92793465300669
H           42.12250116999593       51.22537829379284       46.99013544064069
H           42.16339076628764       51.00375343810533       45.24081077191214
H           43.58292048807582       51.62089055339435       46.08359143951760
H           40.03313703944536       53.63781467368117       46.59682487357035
H           40.05043841502704       52.07880704243833       45.79876522259860
H           40.57030623912891       54.62708264556850       44.24773790643435
H           39.46106847346203       51.90738014978786       43.43081438989465
H           39.83299614252351       53.24050912476034       42.33969190742992
H           41.13223324198473       52.43022211698219       43.20766605939941
H           38.30224665813994       54.59847815633650       45.57356467231303
H           37.83164452010446       53.35536839022747       44.42369938420274
H           38.51739633265272       55.00983449257688       42.57963280851160
H           36.33325571271999       56.21916783134046       42.74862770834930
H           36.17512548311822       54.49736188158613       43.09293402083964
H           36.17617543249426       55.66376794610543       44.41611980870802
H           39.41684620715488       56.51376013952677       44.81006042383346
H           37.97556599594392       57.35157575120560       44.26777053623150
H           40.36006966426454       56.63772258887286       42.51799029775686
H           39.29910820009533       58.17618564364962       40.86507781685464
H           38.26240331415798       56.80096592143095       41.21081419996027
H           37.91518928667022       58.37021621245906       41.93972177506640
H           40.65372492024730       58.36317715769789       44.40757028306766
H           39.47584017923191       59.35530803945088       43.55794293180810
H           41.11221705264725       59.13315045955486       41.51554889197077
H           42.42072902743907       61.09017333202699       42.39272362633533
H           40.69349515733431       61.23810500955265       42.70704180388255
H           41.78871549544078       60.75682830403832       44.00427168445367
H           42.46880934798045       57.33908080038410       42.79432470012043
H           43.05661331729041       58.65547740955859       43.79018053309314
H           43.51655401118115       59.57394099621271       41.17058002678151
H           44.98234459890944       59.88192084016017       43.11620051178959
H           45.42239964622850       58.17009846101504       43.08315510720376
H           45.89531629783338       59.23354113485334       41.75550063103741
H           44.24232017738292       56.63864457547460       41.41204374042623
H           44.88074652854804       57.71821958935403       40.17894924081880
H           41.93174744870430       57.03008155378808       40.49070315328951
H           43.43096975074071       58.54661874634580       38.31150981167156
H           41.73883736907169       58.05614397897416       38.23000389308977
H           42.25422573105394       59.23618280385718       39.42719204754619
H           43.94487818433720       56.11945079500823       38.40239899621184
H           42.22835072095911       55.73766083737426       38.42570396341618
H           44.34289934230486       54.72994370643564       40.36435755431903
H           41.31763486966316       54.33614897348899       40.37386016668492
H           42.44057620287204       53.35976597799804       41.31801469850544
H           42.28672562764100       55.07681347011142       41.64976703035780
H           44.14753403597950       53.79904575731032       37.99786313570878
H           42.51735707222884       53.28402933548082       38.41631061357990
H           43.63471345153238       51.95331472567869       40.35028897401073
H           44.11762710762780       51.18105247340685       37.44098818597103
H           44.04129231230768       50.06294314127052       38.80456256958942
H           42.60773039036622       50.96273528628284       38.32705132826334
H           45.83002257949671       53.16148827148147       40.08580855030490
H           46.06509446261361       52.32442413439499       38.56139027589562
H           45.43144843793392       50.51390013956594       40.83728119136341
H           47.28718173472305       49.21087988485359       39.86490944515020
H           46.20505643277812       49.72914291578353       38.57644892088162
H           47.72762728883642       50.57417951032011       38.83788547405629
H           47.96916580929932       52.17856186833058       40.82414379547835
H           47.83904399606134       50.64554542150846       41.66876742192461
H           45.80378564714945       52.79509602061827       42.25760001916164
H           47.08023859428833       50.65898790120018       44.01007599873039
H           45.69656176582804       51.67383128612190       44.41566542435260
H           45.55196336100431       50.45704081720611       43.14744595844779
H           48.66409492191391       52.63348406402033       43.26057518074647
H           47.40206852153677       53.41959998691432       44.20126107749631
H           47.83439135096599       54.21734989414901       41.32162973946384
H           45.81721698119188       54.96966283833952       42.65423523382744
H           46.91155398648827       55.84249664555443       43.72189770819186
H           46.79236284613960       56.28597687962629       42.01561765572313
H           50.04068330810485       54.28108744144334       42.46529064736964
H           49.34612242708086       55.28929939060922       43.73202632165328
H           48.88351538092761       57.05836786779577       42.01733130040392
H           51.78448216277965       56.16495321608796       42.25487703106315
H           51.23332518419062       57.80204472122904       41.89819711678143
H           50.89304361973885       57.08272185801147       43.46856799375406
H           48.99530903759356       55.30873800978749       40.06745321442468
H           50.73921446148138       55.46521960745380       40.22132787947941
H           50.42896164049424       57.96597980017249       39.79292920577825
H           50.23952834999304       57.56047102520613       37.32918208542735
H           51.24073492410084       56.34987361680277       38.11110666003569
H           49.58299323193958       55.95788368946107       37.65743700410675
H           47.99337317579518       58.01396187298135       40.37213375480911
H           47.66340175084441       56.97610117002386       38.99065311100538
H           48.56727334669049       58.83513987404719       37.50517405354390
H           46.43043630520524       60.06007987543928       37.59291212874768
H           46.15356207083462       58.34751405852838       37.87433910972315
H           46.13880711244260       59.48017086638944       39.22950415758920
H           49.81773948264177       59.99577585634528       39.36649959677135
H           48.26496170566757       60.46426868355987       40.05516779034178
H           47.75431636850342       61.74864953714629       37.99110578507318
H           49.30726389022146       63.59795245881082       38.50598945792047
H           48.73864567912702       62.81979664277338       39.98055185754772
H           50.36029014798410       62.48326789924483       39.37962432042240
H           50.24935826783610       60.45839566775343       37.05968966848892
H           50.27243995673854       62.19736963874259       36.83595535112582
H           47.99081980842492       60.46250713601908       35.83771574384652
H           48.84418695842868       63.29898658927517       35.12415011073868
H           47.44383937539482       62.43611466467126       34.48740698577314
H           47.49566319716556       62.89915677019626       36.18501595316614
H           50.48682219570381       61.48490477703456       34.43148631470162
H           49.05110466298578       60.93998429055053       33.57159702047361
H           50.74960541029596       59.18144356877887       35.38377375039213
H           48.46428473012393       58.48605392550766       33.48233621050495
H           49.43692340231588       57.32468041172606       34.38911147111669
H           48.37347601004136       58.43046638563118       35.24302324717547
H           51.78886661462883       60.07779700563224       33.23201013945602
H           50.49989582499993       59.26286048442685       32.35667585827328
H           51.33972625912902       57.08393232121490       33.44571952789262
H           53.05629831429474       56.83435032361515       31.68037621521079
H           51.67109462562093       57.73031906257928       31.07401347445587
H           53.15071017426322       58.58716423632947       31.50924064887321
H           52.70419830583513       58.25096570748361       35.20499045377612
H           53.75429538355239       58.87339134164354       33.93411243233916
H           54.31232752163998       56.46126495920207       33.34771025567939
H           55.01399746099679       57.39034950225788       36.16129768795560
H           55.95812011967186       56.29456723112418       35.14899781050071
H           55.77251602520836       57.97973274185469       34.68122978685159
H           52.26886930702275       55.53416551333835       34.51083840515281
H           53.03236941882155       55.88960568525531       36.04912565480460
H           54.74983337322873       54.32276141058254       34.19655500464810
H           55.18045712580540       53.01079935279744       36.21558617801973
H           55.24213712032645       54.72072884910400       36.63860718277827
H           53.81357159087320       53.77007691224358       37.03817906933732
H           52.08640023730599       53.23546540876620       35.15541801120886
H           53.43488762085718       52.17937650763857       34.76398930686835
H           52.55045755166059       54.21601170595403       32.72223339183692
H           53.71832419042584       51.41581688026645       32.46103409022110
H           53.47588664736789       52.58074520657090       31.15789177296332
H           54.66332731177324       52.90389558292659       32.41867171273555
H           51.21123617362594       51.58213600541777       33.39519458918141
H           51.16774823254629       52.22354582054252       31.75725721894788
H           50.23343300300877       53.86514224496310       34.12637042023663
H           50.74327485123651       54.99945238731187       31.91120541006074
H           49.48310002915993       54.01371731970261       31.17463698501446
H           49.07552604954046       55.18287862797241       32.43289501724756
H           48.98739795319748       51.73954661721492       34.08193899148647
H           48.66017834822669       51.94486903852584       32.36475993127608
H           47.26195843260413       53.92622425220265       32.86028661039062
H           46.48361635181314       51.45337726871423       34.46270560858012
H           45.37667547061815       52.63957089090361       33.76606910146796
H           46.33511701798549       51.60611736474651       32.71335917839537
H           48.38995232203359       54.63601710981625       34.94773283987983
H           47.85112837969352       53.15838814618463       35.74500128845737
H           45.51730301937580       53.92287191926916       35.62181456023970
H           47.36912027125000       56.05893626391229       36.75342169591717
H           45.76881084951723       55.62240365132752       37.36003709933910
H           47.10087281341187       54.48858795139125       37.51550478883196
H           45.64630640388976       55.26692750302941       33.55530324486317
H           46.75139898293970       56.39479624717522       34.33962744535084
H           44.91911469699785       57.05855053793720       35.90455852884156
H           44.26818132977639       57.29728443791686       32.93900329837754
H           43.65750896244932       58.34687918121897       34.21866579157369
H           45.37981438716863       58.33057963483256       33.83902183531010
H           40.21442267760983       55.08621717910635       54.19396308551557
H           39.10198065913793       54.42074223035495       53.00008390246088
C           75.15059390953120       58.90040153254739       64.96783337109942
C           74.62821802076832       57.51873279221360       64.56583720217964
C           74.03619452440535       57.59069790979491       63.16121354404621
C           73.62662237688843       57.04741655295342       65.62913983382364
C           73.09143426771591       55.60255757347397       65.55617760471270
C           74.19891923096704       54.59798010291446       65.24453195134699
C           71.90334132318883       55.45301528180669       64.59694468835335
C           71.01443705622488       54.22550422084002       64.85755884324307
C           70.13755834762155       53.97663980281325       63.63052853441156
C           70.15039920486740       54.42609860759509       66.10852351313214
C           69.48422703079611       53.16057944819785       66.66765279687381
C           68.40156740915344       53.57041937158098       67.66572866524017
C           70.51086568058963       52.23447864861733       67.32963975053123
C           70.01533087027937       50.80857343050931       67.61724803634768
C           70.95602574935779       50.14932710168036       68.62609081418074
C           69.93083618979982       49.98128205053374       66.32857168197816
C           69.13817013377974       48.67096792826676       66.45489678068029
C           69.45186601323105       47.78150601796109       65.25065514333990
C           67.62174621591257       48.91832617657816       66.58044757222758
C           66.95898856377752       48.16929303957463       67.74323737142743
C           67.07672217312746       46.65439825412226       67.57130633652572
C           65.46989035288077       48.52394361053177       67.88012528831922
C           65.13284943911461       50.00050064454264       68.11350704890924
C           65.94270875763431       50.59536833698925       69.26581240727678
C           63.64477865133344       50.18258507031886       68.44685324509878
C           62.60078630719336       49.72553906225976       67.41590017608850
C           62.79783816300205       50.42053680391186       66.07276251815931
C           61.21921530528000       50.03250567399687       68.01614865720512
C           59.97736629611317       49.70102368175687       67.17589124511420
C           58.74528468926503       50.17588704357232       67.94642082031247
C           59.89796904169719       48.20636838925586       66.84384562166160
C           58.61152468252198       47.73624347650848       66.14470007256054
C           58.67979133656390       46.22056923138604       65.96134549990649
C           58.41677575116337       48.45061289048872       64.80326020115635
C           57.11367382935691       48.15534266400913       64.04283107382223
C           57.15408037102318       48.91158112714935       62.71452894314318
C           55.88877354915067       48.55421035978252       64.87885515317700
C           54.54405937110576       48.57850317051259       64.13787246859621
C           53.48517175859657       49.20071974738223       65.04504341423016
C           54.12864742500229       47.17271512836812       63.69379209331602
C           52.95261006884521       47.10831760509276       62.70787725488555
C           52.48673413006730       45.65931485221139       62.58905913252367
C           53.36995534166727       47.68518558940874       61.35133906003148
C           52.34192395586466       47.62309241121343       60.21290498931479
C           52.94381859519697       48.32999765971278       58.99965781314227
C           51.00563370334451       48.24188921339980       60.63532749608397
C           49.96288250898872       48.46478519662651       59.52949305513901
C           48.70768380640177       49.04661944479092       60.17769572675289
C           49.64150905051502       47.17181808156597       58.77178969667209
C           48.69272049055927       47.33283321591919       57.57598660421057
C           48.23456557131910       45.95102022799543       57.10900772924635
C           49.33902374084889       48.08456033865613       56.40382754288446
C           48.31165268422753       48.80990495975077       55.51270156848720
C           48.69779830251971       48.69295171167720       54.04046215308271
C           48.17484455901910       50.27068479986018       55.96713222429634
C           47.00138534124589       51.04439119690164       55.34140257694200
C           47.46747272829190       51.89938371920646       54.16306459067346
C           46.31712801580615       51.97516099727245       56.35497942495376
C           45.50677782377952       51.28680301836698       57.45643054190491
C           44.29626609773651       50.56631312425293       56.86356916569579
C           44.99977794803865       52.29175038960213       58.50380252679631
C           46.05294755168732       53.15886208318551       59.20478372061008
C           47.21050375921029       52.32160470440126       59.74460059721617
C           45.43998580774193       53.92493860049317       60.38673090606213
C           44.24455082940538       54.83283094310382       60.08182608006378
C           44.62696757489227       55.92964683639974       59.09032013606186
C           43.72277637955045       55.48068754844773       61.37409465655029
C           43.03421834041205       54.52905961638680       62.36287876167837
C           41.69065699356301       54.05236253201259       61.81621290494613
C           42.85981907591055       55.23284019623839       63.71472685377177
C           42.49024117302666       54.31533169020662       64.88790835673205
C           42.14608969088142       55.17661500198828       66.10389396795215
C           43.61149428558620       53.31317470735767       65.22945233284672
C           43.16186957667713       51.84786522261443       65.20282612897715
C           42.12393854407448       51.57341819755429       66.29282711563448
C           44.33867969809872       50.88317709657824       65.40548564959217
C           45.41883285935285       50.83976649592888       64.31611670154632
C           44.82162867208100       50.53046181395710       62.94562386971205
C           46.45193043489192       49.76392707479381       64.69017934553156
C           47.84011828505363       49.95813225700008       64.05984246024795
C           48.55270895827140       48.60989737947657       63.96852889238753
C           48.65235299324059       50.95335479589404       64.89613218558647
C           49.97616527741622       51.43649337093446       64.28466935485986
C           50.79473682347630       52.11973760237976       65.37749892225401
C           49.71790585146933       52.37584693101007       63.10067741599784
C           50.94267455819489       53.10284918235197       62.52690519052079
C           50.49281526210581       53.99129427736602       61.36799968191669
C           52.03062713395967       52.12265831855430       62.08052495926260
C           53.29307464638367       52.80416277215389       61.55550406364784
C           54.43834346886898       51.81141068683729       61.40710691647040
H           75.61940919213825       58.86858108041788       65.94923624763159
H           75.88737267327740       59.25609982241896       64.25073781555078
H           74.33532580159856       59.62059898100121       65.00344734130182
H           54.15330124306116       50.98710423350387       60.75586133524623
H           55.31515010743349       52.29456698475671       60.98072733825018
H           54.71144867078702       51.39518195065934       62.37506354297450
H           52.31376264001391       51.49211320824328       62.92552507752712
H           51.62274882565411       51.46777538966522       61.30543666568149
H           49.25249259417327       51.80417958421538       62.29411413082185
H           48.99791987181937       53.13462401848415       63.41882248671542
H           50.53660286150198       50.56559397546739       63.93233350868188
H           50.91675251080549       51.45113365906208       66.22643583368985
H           51.78626325844548       52.39132389217432       65.02621098751720
H           50.28671982189685       53.01908513521328       65.71673329012515
H           48.03222218806461       51.82876708631829       65.10437208295910
H           48.86739524842056       50.47924466726885       65.85765752342830
H           46.57202420146125       49.73167054554288       65.77604646902473
H           46.05144327178922       48.79397198889657       64.38508857762163
H           51.36034121829434       53.75462328134141       63.30230730589024
H           49.63492911062145       54.59200810699542       61.66494860598841
H           51.28683121542078       54.66779042495695       61.06711126839222