3536
 energy: -3716.251541056272 gnorm: 0.000702449279 xtb: 6.6.1 (8d0f1dd)
C           44.29658661988119       58.74878816642564       60.37745436674123
C           44.95254528240172       59.78266175554489       61.28864790403339
C           43.92815759596132       60.85064634626907       61.66307730800871
C           46.17452180254973       60.41958041348471       60.61183328189237
C           47.43579763452931       59.54930241132444       60.65977467219102
C           48.07201196079362       59.61389910344791       62.04880431844619
C           48.48441317229389       59.98474803302169       59.62667345375106
C           48.11901668831140       59.82255896175028       58.14451724841290
C           47.58897498609542       58.42104022687099       57.84023732182495
C           49.34843064369538       60.07953487902059       57.25748780078111
C           49.96517177679268       61.48092521658497       57.33162048530615
C           49.00364420508008       62.53207913884435       56.77732688818523
C           51.28383568517463       61.54789591553840       56.54454180287590
C           52.44211415612823       60.69506858062748       57.07774835512070
C           52.78439645638713       61.05210004660111       58.52321191915119
C           53.70530130033097       60.87568753738273       56.22146182915917
C           53.59177581592672       60.46672963075313       54.74866517564772
C           53.11049080655448       59.02244288825986       54.60317581365604
C           54.94362557773574       60.59727982697795       54.03285619109332
C           55.53526729639197       62.00613042693875       53.90990160078344
C           54.65928503769832       62.89399462195845       53.02949291580084
C           56.94988397010820       61.92534615595439       53.31412002302278
C           58.03309220623443       61.49669848388643       54.31094273306086
C           58.44907312947308       62.67881697822549       55.18742107355246
C           59.27641596753531       60.94807972551770       53.59910603954924
C           59.10099822655722       59.63449864360723       52.82374200692324
C           58.51271511573682       58.54172790107560       53.71127415718361
C           60.46617356347512       59.20676984922485       52.26432099465667
C           60.42577639820365       58.16855023551937       51.13521043276164
C           61.82472493816945       57.59860861283841       50.90640905225342
C           59.81083366310655       58.70706406741920       49.83372580248044
C           60.56578796240002       59.86212491299958       49.14873356143275
C           59.57854745702730       60.94317776987158       48.70852564054751
C           61.37537423878805       59.33978177140306       47.95532343133056
C           62.38274725135154       60.32430575175140       47.34223332140958
C           62.85411050876380       59.76676468911524       46.00004825453566
C           63.56429616360153       60.55886527662170       48.28906567746740
C           64.60865196553235       61.59800603869583       47.85545430290937
C           65.75001463464845       61.58234345040516       48.87452158998976
C           64.03388532472708       63.02173979646910       47.75367477106521
C           63.55429866662111       63.46102347965140       46.36351110189979
C           64.72423022996213       63.61375881469700       45.39189254024295
C           62.78249460299851       64.78948471810361       46.45333624323965
C           61.64591406402290       64.90637003331200       45.42586100893143
C           61.32192252396293       66.37680294768300       45.16647025608463
C           60.40712055452776       64.16248390160423       45.94014786035159
C           59.33767631423139       63.84310049685485       44.88476795657667
C           57.99744158829444       63.60780143294226       45.57823761177517
C           59.75861852442747       62.62253249537326       44.05672855736380
C           58.77836943344838       62.15994350449617       42.96678442474247
C           59.34054604983329       60.90014662966044       42.30953293432714
C           58.53264741235244       63.27057979514447       41.93863479571424
C           57.61863696433469       62.92759108427150       40.75080405068599
C           57.63990937988324       64.10455913899953       39.77379731721493
C           56.19110594679954       62.62726886436521       41.22239829703248
C           55.22951181825773       62.11629524590319       40.13912264864349
C           53.79830530174882       62.16466105954050       40.67568773148913
C           55.59066804076495       60.69071038326933       39.68274658529539
C           55.65083571041823       60.51338382502193       38.16198710210252
C           54.26461751912297       60.66161054556509       37.53428105916792
C           56.22690583096412       59.14288732022813       37.77670977047959
C           57.71941840174795       58.93174153837553       38.05840381754773
C           58.58273916532814       59.86742408064250       37.21265151681051
C           58.10856222056579       57.47431440461765       37.76584257585571
C           57.74571439494335       56.46431436047303       38.86566004232325
C           58.70885340573003       56.59454688547867       40.04143566188858
C           57.78709619779652       55.05589568219579       38.25642284861632
C           57.60363831154084       53.87251731590785       39.21750995942160
C           57.72872102478126       52.57909877397967       38.41576669151988
C           56.25976640184383       53.95892255572575       39.94860837284433
C           55.86662114822042       52.76715810735329       40.83951389062683
C           54.50542094784938       53.07653532769333       41.46448020134596
C           56.92680922407676       52.50129417259576       41.91438416690738
C           56.76555090911216       51.24044213623946       42.77939878357029
C           57.60243024832801       51.43036216631701       44.04905625014963
C           57.23257101966765       49.94028956419304       42.10087603100911
C           56.33067860432649       49.30866511630436       41.03311132046781
C           54.88325512377263       49.18201229214840       41.50909316469602
C           56.81669216455012       47.89992240105929       40.65236501478216
C           58.27405363896262       47.74868023958356       40.19584308205001
C           58.56721322463589       48.62579674899933       38.98211881641208
C           58.52814105961406       46.26881402665564       39.87428825753275
C           59.98643463871673       45.85648531919636       39.62763301179004
C           60.00766036878895       44.39225701645270       39.18152877856618
C           60.87777661987390       46.03441620713416       40.86972897050451
C           61.69233343287772       47.33478167342911       40.90142588631221
C           62.85339498628421       47.28751753675858       39.90915317971098
C           62.18279643029035       47.65169700255210       42.32227704239574
C           63.15959735899052       46.63815027854330       42.91333980415400
C           63.57233394967371       47.02586199985997       44.32737411157957
H           43.41853936940929       58.31872113169418       60.85347030245112
H           43.98629724068932       59.21387562117743       59.44354362225379
H           44.98350895911635       57.93779864413963       60.14761997504239
H           62.70258135250715       47.06911859544084       44.97805458293941
H           64.26704303828954       46.29508454542194       44.73771515792512
H           64.05829401399548       47.99975029145903       44.32955993382379
H           62.66491810523603       48.63232725867237       42.31207879957685
H           61.31419624235555       47.72492368476504       42.98259060374191
H           60.25036432137414       45.98331804789220       41.76129298170739
H           61.57820235719269       45.19799644038801       40.91938780861823
H           60.39088130609646       46.45489259258234       38.80636431269912
H           59.62501133191608       43.74953233771186       39.97233053704025
H           59.39109696406761       44.24540057887326       38.29688066328600
H           61.02122004599577       44.07713149464617       38.94173260079288
H           58.14415779644296       45.65945824811669       40.69614469493808
H           57.94533015620673       46.01361592845605       38.98381918175076
H           56.65832566282044       47.24915822398318       41.51442027544054
H           56.17452792658310       47.53142768343033       39.84625359630394
H           61.04070759172563       48.16261553110100       40.60364009958076
H           62.48704869612303       47.22262239352570       38.88686718024542
H           63.46082582386498       48.18650984169015       39.99266571956696
H           63.48837817726990       46.42320012417044       40.08931324976939
H           58.92981902791740       48.04425714821777       41.01813980037212
H           57.86387762713326       48.41272806309901       38.17927358134575
H           58.48860840559806       49.67864929178280       39.23609903413301
H           59.57316683186237       48.45313313921205       38.60800631713732
H           56.34790894264233       49.92813718885385       40.13265397019455
H           54.39783459605216       50.15090555187209       41.56864726684299
H           54.31229579405052       48.56768853416577       40.81743398536597
H           54.84482275955094       48.71101741214749       42.48884010285925
H           58.21849766095959       50.12151098532404       41.66807917757785
H           57.36250157136789       49.19188010526010       42.88715674855762
H           55.72231997011540       51.13417976518692       43.08469911016045
H           58.65335779805847       51.54406009084548       43.79193840417721
H           57.28734166390986       52.31715849618605       44.59453007848684
H           57.50415241623310       50.57464259360960       44.71291472854525
H           57.90916490228837       52.44992424112912       41.44342938306175
H           56.93776390988867       53.37039397528353       42.57959433847677
H           55.75557407376105       51.88420817410584       40.20772490698143
H           54.15072361937398       52.25659007465052       42.08285503351536
H           54.56143228058821       53.96754020850371       42.08550080029915
H           53.76402446094198       53.25190392543668       40.68667064648301
H           56.27025804352331       54.85567639521265       40.57161563238237
H           55.47598947358755       54.09162980000785       39.19614328600149
H           58.41549416927815       53.90145058938222       39.95012894284255
H           56.90314063701096       52.48571044422596       37.71372904372619
H           58.66004094718551       52.56691885983948       37.85195964080345
H           57.72276682326874       51.71272314277682       39.06995245020824
H           57.01667597197837       54.99238804428143       37.48218316179966
H           58.75461451175345       54.93572346162270       37.75842200976694
H           56.73036196647456       56.67180790406884       39.21583154935600
H           59.70439893646345       56.26365525893882       39.75269103950718
H           58.77785412325733       57.62917844123437       40.36624109802612
H           58.37867474954020       56.00241464742241       40.89000975859075
H           57.63003163765165       57.17495294877976       36.82954599785953
H           59.18847671291397       57.42012483021073       37.60585124495368
H           57.92266375565291       59.14318743084368       39.11187617518409
H           58.37020733682282       60.91014001900856       37.43387651825406
H           59.63809096681597       59.69298756990510       37.41204451704914
H           58.40148760762916       59.69672946029169       36.15308044277279
H           55.65423648538459       58.37335058885976       38.29946780954158
H           56.06637554762944       58.99280167504858       36.70527361232759
H           56.29294534494743       61.29724464508209       37.74680330300430
H           53.84638373346915       61.64408690213408       37.73653422313974
H           54.31993192932756       60.53746922056143       36.45433742706538
H           53.58680175268670       59.90723153181194       37.92918193862485
H           56.56022912993608       60.41830810748287       40.09929300239799
H           54.85930905245446       59.98790533760014       40.08712327957274
H           55.28625854605286       62.78957881913844       39.27865631091255
H           53.71288505256089       61.55774123777434       41.57459307417525
H           53.51214046775965       63.18576313997523       40.92160882060384
H           53.09294930005412       61.78335646808182       39.94215473640517
H           56.22482337890520       61.87900612073074       42.01677423447445
H           55.78053613892179       63.54433962530189       41.65264830077373
H           58.02224682116037       62.05591915516975       40.22810014661265
H           57.07236250708300       63.88364766299654       38.87341573631779
H           57.21534638171835       64.99345273168701       40.23713611463237
H           58.66149951387668       64.33146739038089       39.47483935297066
H           58.09779969563969       64.13335849597087       42.44784201951485
H           59.50368383444064       63.58088432190477       41.54132659096116
H           57.83376411633506       61.89317146232855       43.44802939635657
H           60.22708622770429       61.13341236983300       41.72270082190022
H           59.61652985858947       60.17332477262043       43.06990805003821
H           58.60641194943202       60.43692422264734       41.65502502859150
H           60.72106600641551       62.83263575627134       43.58289625596458
H           59.91259011928175       61.78690976864853       44.74582500670110
H           59.23564297206467       64.70744694143869       44.22181148758359
H           57.73545174151911       64.46590118854824       46.19369389867160
H           57.20397531941104       63.45939647482159       44.85174961593058
H           58.04851067309735       62.73104827539494       46.21972975325566
H           60.71906867329420       63.22400018334347       46.40263170076165
H           59.95755319344475       64.77499452722306       46.72596360343275
H           61.97706546273714       64.45671562317607       44.48356438935544
H           61.03152908390618       66.86710077330459       46.09342847114356
H           62.18726128535607       66.89577173955502       44.75795950064851
H           60.50518727749267       66.48007709785890       44.45617286224420
H           62.35114754337921       64.90707731771032       47.45038881058325
H           63.48610358674792       65.61340704886197       46.31108532947459
H           62.88227877118562       62.69960317708486       45.96126598482184
H           65.23920131965563       62.66907617707068       45.23287364683842
H           64.37183393699038       63.96827147652429       44.42513987834121
H           65.44843433816800       64.33205383148552       45.77366270413063
H           63.20246059338027       63.10433368136881       48.45683257254307
H           64.79657792923174       63.73567997301046       48.07673354626791
H           65.02511626944320       61.30098739884829       46.88921413829451
H           66.54957213754454       62.25438041906521       48.57115595347653
H           65.39098476416073       61.90033541849436       49.85095136554909
H           66.16416066539733       60.58209575837935       48.97544410427711
H           63.17881042661418       60.86957175632462       49.26276337707542
H           64.07704319353013       59.60286398045961       48.43119383496624
H           61.87626690669454       61.27574263218733       47.16390156009820
H           63.53400456057096       60.45259896388317       45.50178121025971
H           63.36807606547710       58.81816888768738       46.14355582841705
H           62.00844904274917       59.59928016042526       45.33517933854196
H           61.92067949937659       58.44355696342819       48.25540619947721
H           60.66624749822323       59.04128325942283       47.17839545528770
H           61.25207413524313       60.31330467824306       49.86868726182734
H           60.09327669106845       61.79425607897866       48.27013687267370
H           58.88413817194536       60.54633704571970       47.96955053493210
H           59.00706042123882       61.30920551861601       49.55908257939991
H           59.71904837554683       57.87474350384726       49.13088698172930
H           58.79508627375166       59.03581448846198       50.05791171076685
H           59.78647870154013       57.33781376905910       51.45664973180839
H           62.52976150123313       58.38411476165002       50.64688032414630
H           62.18676039197791       57.10429160128574       51.80499791731048
H           61.81035214866742       56.86665040402841       50.10110707078744
H           60.99475659031499       60.09245908060507       51.90682579260437
H           61.05453384817515       58.79357706947083       53.08788550659016
H           58.42033675958910       59.80983201289742       51.98615029436327
H           59.01383539789096       58.52956008520527       54.67649480290299
H           57.45012426924996       58.69836137062404       53.87157161594797
H           58.63744537510819       57.56426774504475       53.25413110018341
H           59.63620013886231       61.71458503495010       52.90700294153576
H           60.05602463157491       60.79350615386092       54.35177220008746
H           57.63345373225441       60.72048633516971       54.96842354735588
H           57.58697371204505       63.11885191385456       55.68441586149613
H           59.15352441668998       62.36101164619876       55.95358750917039
H           58.92624854945203       63.44963764817106       54.58377951864399
H           56.92262508328929       61.22926324667976       52.47426901274129
H           57.22799682548583       62.90293618116862       52.91041798014876
H           55.59806637715525       62.46237057857742       54.90242697395091
H           53.67279921718725       63.02812845458895       53.46409981813677
H           55.10913396281432       63.87819473461691       52.91137977494208
H           54.54819519943008       62.45138248576182       52.04065188509714
H           55.65881932998273       59.95838256636483       54.55442219673444
H           54.83173496600517       60.19647483517378       53.02086092223694
H           52.87344829198958       61.12219105165945       54.25057175543412
H           53.11129561625781       58.72682041067642       53.55627830888308
H           53.76597993146737       58.34669677228031       55.14748844223259
H           52.09894011843969       58.89865447380696       54.98066070909295
H           53.99869676519754       61.92690079080746       56.27634290375056
H           54.50777221920630       60.28881726455657       56.67682949596564
H           52.15733310227492       59.63951263197057       57.05349949847317
H           51.96060458529548       60.82483744438464       59.19380333256810
H           53.65195775127017       60.48297071600941       58.85342958935715
H           53.01812165694939       62.11149141459148       58.60951172581589
H           51.07253359420294       61.25323137764266       55.51432273110471
H           51.61405080669176       62.59077120185468       56.52507570605122
H           50.17103984415424       61.73350190849182       58.37406173170667
H           48.08526433693207       62.56682830782768       57.35845807051044
H           49.46000442696461       63.51888647624390       56.81070861443558
H           48.74531080451978       62.31036532115794       55.74326547298933
H           50.10524073508073       59.34139672044181       57.52950171711177
H           49.06802518289204       59.88967005902128       56.21680265719835
H           47.33740830192889       60.54252712291203       57.88174978793390
H           47.45902543102981       58.29032625183013       56.76762484755940
H           48.28583926321738       57.66360003097133       58.19248526939411
H           46.62450470065622       58.25613511003414       58.31185881182002
H           48.72152256299366       61.03425048153378       59.81767850592516
H           49.39111364842037       59.40171952821392       59.81088004765227
H           47.15858629760100       58.51043092869426       60.46326189916167
H           48.39255477348178       60.63139737571410       62.26605420711727
H           47.36879941020170       59.30779716270428       62.81950982288804
H           48.93966958084784       58.96041135807326       62.10795407433722
H           45.91250706367672       60.63357390686161       59.57461527013308
H           46.39701803797224       61.37465930540167       61.09378457163385
H           45.27135068198322       59.28167134417821       62.20945962139211
H           44.36317611426018       61.59706180774057       62.32420475158325
H           43.57097615809161       61.35506606812066       60.76778022305811
H           43.07330015759273       60.40498337143897       62.16868967023105
H           62.69675729160637       45.65124641271790       42.93516685532829
H           64.05284309838780       46.57823289536111       42.28860738131948
C           51.44671058638794       71.80322398207856       42.50125632824181
C           52.61870831530762       71.41770334504339       43.40114474650462
C           53.92881248552838       71.90584185590922       42.78210123241858
C           52.69648647839404       69.90234833845932       43.62220667373102
C           51.47398899452534       69.25526786780321       44.28345073422790
C           51.19345813846822       69.87268239812710       45.65294845717934
C           51.67888034838527       67.74131836370540       44.45050710773027
C           51.82946991227496       66.93668377265223       43.15447484992089
C           50.60162567928845       67.09727557014986       42.25685397211253
C           52.03000945936397       65.44266512387470       43.44824946471696
C           53.27350945417005       65.05940889308413       44.26221844644831
C           54.54835576547791       65.65057714084944       43.66359269371038
C           53.38687818070429       63.52699592579194       44.31980340957567
C           54.10147634316942       63.00020667526380       45.57287702546071
C           54.69618266857065       61.61941912376470       45.30377679114044
C           53.10643469656645       62.94717321321440       46.73717394214949
C           53.70113640926184       62.72086705057630       48.13660791800592
C           52.76306833190539       61.82417278078412       48.94241183647942
C           53.92914065921825       64.02946937909302       48.90480646567715
C           55.21603573265616       64.77954032212719       48.54659914724471
C           56.42681451292268       64.08143780359754       49.16159441420272
C           55.12826538502132       66.23474950641015       49.02814155679889
C           54.34053084970387       67.14342088757023       48.07664473088651
C           55.23027463545082       67.57080518502919       46.90870353565473
C           53.81266242685965       68.39924184972854       48.78261762899521
C           52.65684694326352       68.18851665924313       49.76454301398000
C           51.40667380248782       67.65995051748644       49.06416771637728
C           52.35736786197213       69.47404569312351       50.55613319526506
C           51.84960893143838       70.67894118561502       49.74571222597882
C           52.99207162873137       71.64134548226956       49.41172815396643
C           50.78145687992687       71.46476303716204       50.52072990900789
C           49.41314791136224       70.79092082310575       50.69869502958307
C           48.69859851670230       70.62526804250770       49.36031202044933
C           48.58849546291583       71.65511948535200       51.66401826998828
C           47.26280466150700       71.07127819369198       52.17396323049808
C           46.48450719256937       72.19444678560576       52.86195461083391
C           47.51233987416882       69.91012534828387       53.14326147098721
C           46.24736855048332       69.15615333075058       53.59403791479665
C           46.24348783302713       68.99446570510931       55.11559257667240
C           46.12701975628158       67.77005186868996       52.95043664903920
C           45.93627285258717       67.73918980662387       51.42703619277528
C           44.57229882792758       68.29964463173582       51.03172828133440
C           46.09214448252339       66.28465887134185       50.96413554292766
C           45.92661364870251       65.99087594810818       49.46685776554190
C           46.14224447982984       64.49244171096251       49.25550381852213
C           46.90130106023686       66.83225086829820       48.63465649846973
C           47.04753149148424       66.45098370612406       47.15482106560423
C           48.11790817000342       67.34869181777457       46.53465592883551
C           45.71655017756059       66.57280993568605       46.40709629130505
C           45.71745353628125       66.03702595609541       44.96828172858984
C           44.36161298110060       66.34056269802448       44.32729373132837
C           46.01438074337407       64.52662750520420       44.89820845089084
C           47.42702063563540       64.17258854019876       44.41523774641069
C           47.57381760007664       64.47839916345269       42.92427381370901
C           47.73386812974439       62.68668055978422       44.65156025710182
C           48.05189870966304       62.27820171395888       46.09729680569155
C           49.34827752812102       62.93049422472717       46.57077042783568
C           48.16590389042423       60.74729022842795       46.16512177699445
C           48.13719275923289       60.13269627759236       47.57390951055896
C           48.69412214015615       58.71161095915107       47.50759994989515
C           46.70961484429523       60.14766458778728       48.13377725161443
C           46.56001714970223       59.76193601277189       49.61352558674345
C           45.07804319111808       59.51521068770777       49.89856285162818
C           47.13697476683830       60.84016933503869       50.54602782935082
C           47.90256133482300       60.29768311043635       51.76056925753504
C           46.97067559514616       59.67479236318583       52.79820517087924
C           48.73290167095835       61.41896645690124       52.40648107171022
C           50.10164366880509       61.65034180064504       51.75955986528074
C           51.02051128878619       60.45841837297952       52.02397964301841
C           50.76374734414723       62.93074136007670       52.29273805780230
C           50.08302174599802       64.25521661390859       51.92708463866353
C           49.92519124728160       64.39849531559926       50.41413735721176
C           50.89605465970288       65.45766410588811       52.43203504170466
C           51.04611569891513       65.62590461519538       53.94863009562245
C           49.68817490121451       65.79777869016390       54.62742024951691
C           51.92102307026941       66.85584875652960       54.24372900291227
C           53.43732995254680       66.62846539012097       54.13168168909326
C           53.96119311666918       65.97226621224137       55.40533837234481
C           54.11160150406939       67.98168311884680       53.86456792131639
C           55.64645884941011       68.03698063255598       53.90026424572395
C           56.07533155798500       69.46793292702718       53.57507447440037
C           56.27600386548298       67.04572356827838       52.91777063221983
C           57.80785205189271       67.09278022951601       52.80446643553626
C           58.24624820684969       66.08101834830444       51.74826480369092
C           58.47590717642316       66.81623058924495       54.15628715195676
C           60.00813241672459       66.73334461418004       54.14063046217844
C           60.51562203389205       66.41806362702323       55.54691041158185
C           60.69631776298336       67.98376402913742       53.57421810024609
C           60.45662860986241       69.27782093349775       54.34858678418353
C           61.13829088669605       70.45932507272167       53.66758373808144
H           50.49512550215001       71.57013747948234       42.97175260052656
H           51.46620513692734       72.87095686309861       42.29244148194949
H           51.50453788348970       71.26936427700076       41.55447481294264
H           60.98657882478773       71.37538855038413       54.23522940119818
H           62.20967999211086       70.28548893078812       53.58253857397392
H           60.73821080071806       70.60980707066743       52.66603631451662
H           61.77460873132564       67.79619625632306       53.54867129465973
H           60.37263871083719       68.13279174362158       52.54125979075682
H           58.17936611351209       67.58920854928590       54.86705723934454
H           58.09470483468574       65.86483515945108       54.53849191457338
H           58.09803224640196       68.08844034304293       52.45714903191913
H           58.06245576585517       65.06482926435250       52.09249272600547
H           57.68838307291175       66.23537971235362       50.82887024067642
H           59.30218827815152       66.18276103323869       51.51600483890920
H           55.99082628327570       66.03135776542234       53.20401457772017
H           55.85664190980424       67.23857723936668       51.92658831830038
H           53.78099094484459       68.33387571455681       52.88404984588453
H           53.73767746717333       68.69349048424536       54.60722827688294
H           60.29937219830600       65.89533084134980       53.49743106084174
H           61.60256275536798       66.40261584643793       55.56599878513325
H           60.17478421214161       67.16370966662393       56.26114433050840