3536
 energy: -3716.233274084725 gnorm: 0.000972692937 xtb: 6.6.1 (8d0f1dd)
C           44.29670135082929       58.74905201329180       60.37724530674456
C           44.95254326449463       59.78286075926961       61.28919985901041
C           43.92827206250698       60.85111075913304       61.66347429539280
C           46.17410829735623       60.42018690370140       60.61137832279785
C           47.43522989546990       59.54932147436795       60.65936529879558
C           48.07179205659354       59.61473734568843       62.04854340577665
C           48.48433525369096       59.98558160128515       59.62655738908617
C           48.11864229847136       59.82333425260851       58.14416683783850
C           47.58855372089746       58.42164253990060       57.83957696427628
C           49.34876565283241       60.07942195582949       57.25747684505382
C           49.96529049481639       61.48118892535259       57.33231341597945
C           49.00380970869463       62.53213953851417       56.77739567098735
C           51.28375266681569       61.54801560387597       56.54435295189770
C           52.44182303696498       60.69449847521346       57.07759038050894
C           52.78457265424110       61.05236940628547       58.52297348748326
C           53.70532583604218       60.87611941527454       56.22141342091137
C           53.59132665998595       60.46744618078012       54.74833562784984
C           53.11034107529920       59.02266063249460       54.60293575241887
C           54.94377592085878       60.59748095761037       54.03281461889050
C           55.53554806391109       62.00669853536201       53.91042097967043
C           54.65969288672502       62.89426462845498       53.02942145841625
C           56.95011042333766       61.92534025732234       53.31389263188050
C           58.03306468596746       61.49629372255578       54.31138059028036
C           58.44940991731458       62.67905962994062       55.18715266638766
C           59.27668726075076       60.94847800441727       53.59885514244444
C           59.10079551453831       59.63504256033502       52.82296191615858
C           58.51338478014016       58.54195955990539       53.71130904299809
C           60.46642268882535       59.20725658103959       52.26412198669120
C           60.42574456715910       58.16868665219441       51.13495757084424
C           61.82528903661704       57.59948482743211       50.90638901380294
C           59.81080147267926       58.70771965070391       49.83333323806388
C           60.56623811619235       59.86308218469785       49.14866170329489
C           59.57812933331516       60.94387708100022       48.70865581122585
C           61.37526568800402       59.34018966984004       47.95467740001679
C           62.38276615594769       60.32518058831442       47.34180769163943
C           62.85405694113935       59.76750592584401       45.99963291260884
C           63.56446180040995       60.55888478621885       48.28926614952350
C           64.60851782560141       61.59857822778370       47.85503473017880
C           65.74994025739615       61.58268650114194       48.87432243084948
C           64.03297695715706       63.02207630472777       47.75338153856717
C           63.55403710086032       63.46077998647606       46.36240047669877
C           64.72481927372397       63.61416703500613       45.39217712233188
C           62.78258742395674       64.78965859486902       46.45306145427305
C           61.64612646024059       64.90679257854514       45.42531772535240
C           61.32193880361651       66.37705458071173       45.16687325042371
C           60.40734862098340       64.16277976609489       45.94022471681335
C           59.33826853182525       63.84371080977790       44.88416989986074
C           57.99764600628978       63.60896078942751       45.57767548520893
C           59.75904733286306       62.62269326521871       44.05668021775008
C           58.77794847441946       62.16022982803455       42.96712632619738
C           59.34095840711442       60.90046681314355       42.30996428299471
C           58.53284974272942       63.27082695857536       41.93870474579067
C           57.61958815796791       62.92661358060540       40.75063967989927
C           57.64010046047095       64.10362123734637       39.77422555134104
C           56.19188254128608       62.62666920002715       41.22275866500443
C           55.23045287168737       62.11619228395746       40.13901600548376
C           53.79915971899175       62.16462056472201       40.67549441650588
C           55.59138838765882       60.69040295137818       39.68285963591903
C           55.65203758608244       60.51356717463084       38.16188082878114
C           54.26580872488371       60.66153533330362       37.53485326176264
C           56.22762134803621       59.14287943326732       37.77696565963846
C           57.72006177333169       58.93190017604085       38.05965315467328
C           58.58296544858022       59.86747513973070       37.21373437204054
C           58.10901932253624       57.47463892072543       37.76584376776443
C           57.74522825777896       56.46449445762405       38.86518044273190
C           58.70946562117890       56.59427986193010       40.04066298736936
C           57.78679932492428       55.05620698789230       38.25550177446114
C           57.60458222180058       53.87254914377871       39.21665481850410
C           57.72831989978211       52.57916800769204       38.41448462897151
C           56.26016858058195       53.95947036591405       39.94744450494905
C           55.86645039576361       52.76751682848585       40.83814876613421
C           54.50527105923297       53.07707032096111       41.46380257948850
C           56.92683298654137       52.50178478780796       41.91318629204322
C           56.76494981737181       51.24096881114560       42.77854412904020
C           57.60258405194111       51.43143420436989       44.04815045990836
C           57.23286582319022       49.94054315482702       42.10063593691836
C           56.33100182768653       49.30888925382256       41.03259285588936
C           54.88332259095954       49.18233470694685       41.50857150563557
C           56.81747070793091       47.90005381458920       40.65236111293576
C           58.27527755788181       47.74958621482513       40.19609405512087
C           58.56740651790095       48.62654674951184       38.98199998269401
C           58.52847031985685       46.26952265974810       39.87364726022702
C           59.98679412559426       45.85721625123543       39.62694486844612
C           60.00715693462998       44.39281157226934       39.18216904063189
C           60.87820499228506       46.03500301521193       40.86912702861650
C           61.69238551998954       47.33589391027266       40.90063032622168
C           62.85391872623270       47.28833441580014       39.90915985841496
C           62.18234799536834       47.65238760802934       42.32211539141169
C           63.15966618883277       46.63845349701555       42.91218682619585
C           63.57297169932941       47.02590656666749       44.32639810526943
H           43.41891487035083       58.31902853635430       60.85330820085918
H           43.98692157155134       59.21486264328592       59.44361068037213
H           44.98373007110410       57.93813464502912       60.14699833270902
H           62.70343243225486       47.06932457029963       44.97778735544605
H           64.26746515966740       46.29502881505757       44.73601624056785
H           64.05858563753597       47.99994245151073       44.32856915501337
H           62.66457507034848       48.63287049670686       42.31271368926687
H           61.31355494514122       47.72597314529774       42.98267087342647
H           60.25136008729510       45.98316957774676       41.76119723939350
H           61.57912004140130       45.19949632041541       40.91763656126620
H           60.39098145723002       46.45579282703764       38.80669839753520
H           59.62381797522561       43.75112478337394       39.97362835960206
H           59.39085610732409       44.24641375238558       38.29764604396324
H           61.02078069933695       44.07810164310852       38.94338435590961
H           58.14377920144118       45.66016026013128       40.69513030547647
H           57.94620553211283       46.01655063530029       38.98297660316619
H           56.65817434148464       47.24986231430246       41.51462150801257
H           56.17568262244623       47.53295846254443       39.84615053743899
H           61.04060199138148       48.16366842717138       40.60405318824223
H           62.48677316774549       47.22427286413179       38.88751867683812
H           63.46123768061310       48.18706839486723       39.99390529755257
H           63.48738924662609       46.42340022242788       40.08984866908662
H           58.93010588088060       48.04487056880602       41.01907352436352
H           57.86325390976694       48.41251785160952       38.18055912178136
H           58.48921121838865       49.67943002156430       39.23588313921113
H           59.57298599694067       48.45279341990747       38.60857017083426
H           56.34869217211823       49.92857538200420       40.13325838551210
H           54.39797433659032       50.15127515191091       41.56868837588465
H           54.31300601162467       48.56826170486863       40.81654681047381
H           54.84461895247257       48.71107852426552       42.48830842517405
H           58.21838862460300       50.12265305982653       41.66838517494602
H           57.36283411117865       49.19304331895504       42.88767244309828
H           55.72204273115313       51.13503071075544       43.08411904862108
H           58.65311737727239       51.54481730621146       43.78993017874440
H           57.28819511931663       52.31867946845871       44.59368949153714
H           57.50473653959892       50.57593451838893       44.71249616094907
H           57.90882348259411       52.44940901037460       41.44252548061981
H           56.93782434459533       53.37026586249628       42.57898852537404
H           55.75553071683591       51.88434813873871       40.20775161955656
H           54.15073971526177       52.25745901121223       42.08306062768138
H           54.56161870179137       53.96810504485573       42.08489781258570
H           53.76422897308134       53.25220838634640       40.68613116488326
H           56.27039936329894       54.85556792994420       40.57122206799783
H           55.47667643416891       54.09107978984609       39.19546510124247
H           58.41538201942857       53.90154269507028       39.95007425757587
H           56.90232966683811       52.48760156553080       37.71322486887757
H           58.65956489874851       52.56718886193051       37.85138234593907
H           57.72176905241955       51.71286282083946       39.06881275316108
H           57.01551120241469       54.99217237834541       37.48316849529643
H           58.75395906672653       54.93632345766307       37.75837721835178
H           56.73057674671669       56.67224199694339       39.21643778462299
H           59.70458878970761       56.26366225845021       39.75080558602259
H           58.77832350291450       57.62885482935223       40.36572918653311
H           58.38004903487263       56.00194463419037       40.88971478713076
H           57.62997964451848       57.17573447688417       36.83038645541782
H           59.18871721749217       57.42009350906193       37.60718259571620
H           57.92320128521896       59.14265716660044       39.11319047804874
H           58.37067619695196       60.90995664058809       37.43554048856220
H           59.63819035485755       59.69255411818960       37.41301327968619
H           58.40086114295740       59.69636058459773       36.15471708802179
H           55.65407308084124       58.37330425036348       38.29873513502224
H           56.06854894943634       58.99422447297863       36.70571077698812
H           56.29440721436681       61.29669311145917       37.74775672784322
H           53.84753076493274       61.64376714194965       37.73751768984483
H           54.32162369839220       60.53747292949735       36.45529731280854
H           53.58828812623858       59.90666295947935       37.92980303900495
H           56.56011970289337       60.41736193306272       40.10090116079741
H           54.85911124505292       59.98838823069113       40.08707814790371
H           55.28754691555251       62.78936775552486       39.27965704489712
H           53.71344162407942       61.55786195189148       41.57480174372257
H           53.51281520294972       63.18555360083036       40.92108596565122
H           53.09439240492848       61.78251358397021       39.94205771347860
H           56.22474429470682       61.87826864042018       42.01747115399335
H           55.78166721678885       63.54384605856365       41.65259369067090
H           58.02326484815663       62.05476993376038       40.22942827076557
H           57.07270957497672       63.88194684147124       38.87437206042770
H           57.21502551024497       64.99160605894483       40.23843709131728
H           58.66160801821926       64.33039451748697       39.47607256707177
H           58.09747500090117       64.13300478416129       42.44797460913676
H           59.50394331817331       63.57952587029756       41.54224759802702
H           57.83389329743289       61.89280159801966       43.44907927559507
H           60.22658440764491       61.13505042776551       41.72306101239143
H           59.61797127814864       60.17423560601988       43.07076050800163
H           58.60618159551053       60.43696029280820       41.65668413011392
H           60.72054265812279       62.83298442032058       43.58255024100957
H           59.91289157525471       61.78735956651800       44.74627776583249
H           59.23621784881194       64.70746614071219       44.22208812250886
H           57.73594040174323       64.46719135227029       46.19299216517567
H           57.20453553506035       63.46011485427884       44.85105272082845
H           58.04790145180690       62.73220623274377       46.21980768399346
H           60.71853600639922       63.22412532455888       46.40316383812548
H           59.95707092514338       64.77488851455813       46.72596997085619
H           61.97665498583891       64.45626290441687       44.48435929039524
H           61.03131163542577       66.86640423639690       46.09422177572528
H           62.18733781654051       66.89504313292521       44.75862428188172
H           60.50511428975440       66.47936118130498       44.45702160888911
H           62.35163603803527       64.90699014814774       47.45041205820019
H           63.48635577606768       65.61256176132183       46.31030772655780
H           62.88185462651256       62.69952370245179       45.96103598413335
H           65.23950626736466       62.66955983209329       45.23316885459024
H           64.37134891222394       63.96916768418291       44.42660022705555
H           65.44774142820987       64.33233179674889       45.77576401408436
H           63.20196569405928       63.10406242210528       48.45713029772416
H           64.79592686962252       63.73515317962856       48.07644004562925
H           65.02400651066888       61.30130066988171       46.88956480048431
H           66.54887998448115       62.25503286798339       48.57111991236317
H           65.39079479708583       61.89992479888392       49.85111869164557
H           66.16352886437234       60.58216607408289       48.97471457574834
H           63.17909426885505       60.86918959182258       49.26315770621784
H           64.07680284919552       59.60275628215197       48.43100085384415
H           61.87606199572085       61.27608643106053       47.16542723321577
H           63.53361494510418       60.45419027268133       45.50339351849952
H           63.36740512101328       58.81899932591227       46.14446985763689
H           62.00785740332454       59.60079481710215       45.33574925184392
H           61.91968349112151       58.44360319927737       48.25490433572560
H           60.66515790982589       59.04268781989130       47.17878832609612
H           61.25224291466255       60.31327093524366       49.86872506149813
H           60.09321211843019       61.79429379751380       48.27033124192782
H           58.88406049816076       60.54575503226921       47.97029004087465
H           59.00701277506621       61.30967660836697       49.55967029971617
H           59.71940960580682       57.87544305207505       49.13087928401931
H           58.79532194636923       59.03670183980473       50.05786704689525
H           59.78678249131328       57.33835065333616       51.45659041394270
H           62.52969951568658       58.38567838936142       50.64801943650205
H           62.18597563096267       57.10487702919132       51.80527058517270
H           61.80998317515586       56.86832188164085       50.10073607647930
H           60.99442052164634       60.09269183405005       51.90650551679111
H           61.05362285684269       58.79356678579300       53.08780111914449
H           58.42028691590029       59.80975587749874       51.98598078874032
H           59.01523007457992       58.53101208408365       54.67603420033499
H           57.45076986111220       58.69833174109105       53.87156358141262
H           58.63883006914682       57.56455987495112       53.25430790158340
H           59.63524032035721       61.71471187861620       52.90666728566548
H           60.05565200024427       60.79279132143024       54.35137662877661
H           57.63370665138257       60.71977473718587       54.96784793696733
H           57.58676320213893       63.11809466326059       55.68327334681668
H           59.15395186427759       62.36078624725731       55.95282052815261
H           58.92601594076597       63.44844085940797       54.58191726353080
H           56.92244736874268       61.22960053766335       52.47405619077169
H           57.22815261482199       62.90277911051533       52.91157593775053
H           55.59867069962912       62.46146107711844       54.90262336797688
H           53.67343407316420       63.02762898665489       53.46435263294389
H           55.11039000332122       63.87766450339272       52.91196446333625
H           54.54956355290864       62.45051389691010       52.04114080649483
H           55.65821709619417       59.95822658193087       54.55459657887927
H           54.83131017800282       60.19708034668525       53.02104515125221
H           52.87367481822090       61.12233131756815       54.24998584558034
H           53.11136109099444       58.72739416844425       53.55599018251277
H           53.76646553164705       58.34753713028263       55.14721201960479
H           52.09905536396195       58.89908245724460       54.98061739463819
H           53.99788095768192       61.92697244626621       56.27589104443826
H           54.50748689713325       60.28866169928131       56.67580159673530
H           52.15779267998604       59.63930119716553       57.05257843810364
H           51.96065484153126       60.82434366818860       59.19281711826754
H           53.65237241527667       60.48331781600844       58.85229932095585
H           53.01743180104672       62.11170596485220       58.60760417273365
H           51.07249788995435       61.25288773551321       55.51454907995397
H           51.61465937742278       62.59006311109408       56.52595445949619
H           50.17197379054524       61.73304833278154       58.37404873639648
H           48.08645135858382       62.56604100645692       57.35933385085506
H           49.46129664568750       63.51812207912692       56.81060088454772
H           48.74582952243800       62.30897624155902       55.74371798864843
H           50.10531842332285       59.34128011005915       57.52985782446241
H           49.06859691014078       59.88994007017401       56.21705303179482
H           47.33832411540406       60.54304316730331       57.88087086491507
H           47.45874815423387       58.29119936118208       56.76691482755457
H           48.28554387036888       57.66430940614448       58.19186688686077
H           46.62414397013918       58.25782373313761       58.31120808472892
H           48.72060696365259       61.03484549999239       59.81750441128770
H           49.39087146090464       59.40234465345801       59.81048658700180
H           47.15890906688754       58.51075705661876       60.46218252994667
H           48.39164472934674       60.63250301924143       62.26419713811516
H           47.36837190943641       59.30851727283559       62.81872324650112
H           48.93960780154851       58.96129902307942       62.10736472813012
H           45.91225519470030       60.63316974073252       59.57416475152900
H           46.39774037306724       61.37442942180078       61.09339850824403
H           45.27257773935230       59.28171641214035       62.20874720687071
H           44.36409486387556       61.59715040585123       62.32410690721666
H           43.57174180018123       61.35433127769979       60.76750079158631
H           43.07435348817842       60.40442468705053       62.16906257986960
H           62.69693931140970       45.65180644045000       42.93408502847387
H           64.05225868847889       46.58082032157088       42.28753420320832
C           51.44742884492088       71.80186794022845       42.50126211057422
C           52.61883893699819       71.41711621881868       43.40172344110297
C           53.92871398729828       71.90467676260518       42.78255595655165
C           52.69726344166104       69.90169843036725       43.62218116779950
C           51.47428704357843       69.25525369286497       44.28304198963345
C           51.19370569659059       69.87277295670293       45.65261296440855
C           51.67910891888878       67.74114375150947       44.45076390943051
C           51.82974566569329       66.93698773950088       43.15419006098617
C           50.60187432950588       67.09741187830066       42.25704401182688
C           52.02979834740649       65.44277390924859       43.44767198066024
C           53.27357983958308       65.06034776601180       44.26196379202367
C           54.54848761109043       65.65099131744233       43.66280711803326
C           53.38654039907461       63.52756415751841       44.31898501945177
C           54.10163559568463       63.00089858008433       45.57196321866656
C           54.69623692797022       61.61959618516292       45.30346267201417
C           53.10620605259583       62.94778300602329       46.73626730012878
C           53.70162346961234       62.72143740543743       48.13562197164411
C           52.76300574743334       61.82485894132506       48.94166946024720
C           53.92924818472103       64.03011195537988       48.90434266644780
C           55.21628841566628       64.78041637131069       48.54585846747914
C           56.42716668146556       64.08191704351671       49.16121695366193
C           55.12762291292562       66.23564591848714       49.02769300967320
C           54.33949151203282       67.14413562332120       48.07555077726061
C           55.22993768592983       67.57180312510184       46.90820430537284
C           53.81236574478161       68.39982956731185       48.78267817255787
C           52.65657314187983       68.18846438022078       49.76482068562383
C           51.40603282165639       67.66077948436009       49.06355837225937
C           52.35694606714670       69.47464423471665       50.55588806119347
C           51.84922163114670       70.67960297543003       49.74499712090711
C           52.99222974030511       71.64153960390446       49.41189529962479
C           50.78137545651420       71.46492285728301       50.52105400747237
C           49.41321690507666       70.79046372535159       50.69914489793974
C           48.69855575393984       70.62615774319568       49.36049721235360
C           48.58859554887273       71.65520922799161       51.66420057624621
C           47.26269795874390       71.07123182795485       52.17325822049576
C           46.48512689544906       72.19372615888599       52.86239315726456
C           47.51282084148939       69.91003922859205       53.14276258505586
C           46.24758301532341       69.15656811896886       53.59368049921287
C           46.24352152720750       68.99451979597622       55.11522066624850
C           46.12670559526062       67.77039045275585       52.95007950665089
C           45.93620253166841       67.74055394726931       51.42636619224606
C           44.57218296654948       68.30006879747964       51.03111947176067
C           46.09210514109488       66.28557471289643       50.96405789727089
C           45.92599320094432       65.99227244840642       49.46659312007185
C           46.14109806771435       64.49349374372818       49.25517965965968
C           46.90112155528115       66.83323484383764       48.63439014389592
C           47.04730398125056       66.45086910405236       47.15456943051730
C           48.11748071292484       67.34936916752376       46.53461178065530
C           45.71615222790498       66.57303434728803       46.40714342317141
C           45.71782948559434       66.03767788418587       44.96820362201344
C           44.36216798449735       66.34064300279347       44.32761320527019
C           46.01404960997291       64.52701545737391       44.89814243273470
C           47.42698345125154       64.17374201670494       44.41502537514842
C           47.57309022249380       64.47853626861500       42.92389714390925
C           47.73361804736514       62.68748626184527       44.65069555205288
C           48.05131299235676       62.27944075210716       46.09674944492797
C           49.34849345191704       62.93105428455775       46.57021132660473
C           48.16532996037868       60.74833847456505       46.16472982369473
C           48.13735598897630       60.13399038393231       47.57383449683754
C           48.69388892144929       58.71232239750181       47.50722218326221
C           46.70946679623557       60.14838343112839       48.13342963325770
C           46.55996756649366       59.76178106186571       49.61314704991505
C           45.07762805149757       59.51603886936530       49.89791004093403
C           47.13669338143558       60.84053816587080       50.54563122835292
C           47.90268109770929       60.29743768524427       51.75997546562376
C           46.97069606827778       59.67500408971032       52.79824901468343
C           48.73251169352987       61.41937270822591       52.40613528814885
C           50.10125536383357       61.65102704885128       51.75895006657427
C           51.02029863814231       60.45888690910029       52.02393421594919
C           50.76351534944927       62.93134126678007       52.29288001323794
C           50.08228574017083       64.25587703916575       51.92707966332096
C           49.92528606696192       64.39868933639190       50.41388787990351
C           50.89606593295338       65.45804065688900       52.43194845653161
C           51.04624358099950       65.62569134185082       53.94889629541395
C           49.68788555494038       65.79830424051755       54.62720994420242
C           51.92103552746649       66.85623346175018       54.24314039676322
C           53.43755953191138       66.62851458689664       54.13055543280096
C           53.96126402523077       65.97297192725414       55.40505084645378
C           54.11157185675444       67.98225326866047       53.86390699403984
C           55.64667791059362       68.03781096607609       53.90083728100817
C           56.07527984573253       69.46862898459055       53.57430359032163
C           56.27573338796777       67.04605238762797       52.91795774046428
C           57.80777527726769       67.09368403438488       52.80470975200151
C           58.24604147436587       66.08198613161180       51.74794483746473
C           58.47555078017383       66.81665711983482       54.15677287553232
C           60.00812145306045       66.73366635535871       54.14005715093162
C           60.51535064163727       66.41898844865462       55.54696057853519
C           60.69594826466117       67.98485052460910       53.57434623404797
C           60.45589034380236       69.27870200308568       54.34942087217539
C           61.13711320937156       70.45954361153703       53.66689041270456
H           50.49546646548824       71.56939421940498       42.97127343798591
H           51.46762429942248       72.86941556154599       42.29226907104343
H           51.50593170364012       71.26774621601780       41.55478660654931
H           60.98457816780427       71.37461045161781       54.23508102351099
H           62.20818497169537       70.28526104770947       53.58207329663125
H           60.73580707313415       70.60889959671270       52.66591584534120
H           61.77366448121359       67.79606069802020       53.54962048233440
H           60.37197870282615       68.13275904930138       52.54169162026705
H           58.17986935211299       67.58987497748052       54.86681978997022
H           58.09422109009083       65.86544581731073       54.53916944896820
H           58.09748343522997       68.08852382010356       52.45798949923665
H           58.06254302192086       65.06544449304366       52.09181891980638
H           57.68755906681916       66.23659622329752       50.82914341578026
H           59.30179548309987       66.18401999100143       51.51563568200652
H           55.99089632531020       66.03152639517953       53.20403673910538
H           55.85690789562010       67.23919136425587       51.92701600567829
H           53.78157019891452       68.33332850055335       52.88328345095052
H           53.73720665995141       68.69251297324350       54.60686960170016
H           60.29839826350531       65.89528026166755       53.49723218097137
H           61.60217966647227       66.40444683928249       55.56555258265846
H           60.17345820714196       67.16510384144210       56.25966593588255