      -----------------------------------------------------------      
     |                   =====================                   |     
     |                           x T B                           |     
     |                   =====================                   |     
     |                         S. Grimme                         |     
     |          Mulliken Center for Theoretical Chemistry        |     
     |                    University of Bonn                     |     
      -----------------------------------------------------------      

   * xtb version 6.6.1 (8d0f1dd) compiled by 'stahn@M-Bot' on 2023-08-01

   xtb is free software: you can redistribute it and/or modify it under
   the terms of the GNU Lesser General Public License as published by
   the Free Software Foundation, either version 3 of the License, or
   (at your option) any later version.
   
   xtb is distributed in the hope that it will be useful,
   but WITHOUT ANY WARRANTY; without even the implied warranty of
   MERCHANTABILITY or FITNESS FOR A PARTICULAR PURPOSE.  See the
   GNU Lesser General Public License for more details.
   
   Cite this work as:
   * C. Bannwarth, E. Caldeweyher, S. Ehlert, A. Hansen, P. Pracht,
     J. Seibert, S. Spicher, S. Grimme, WIREs Comput. Mol. Sci., 2020, 11,
     e01493. DOI: 10.1002/wcms.1493
   
   for GFN2-xTB:
   * C. Bannwarth, S. Ehlert and S. Grimme., J. Chem. Theory Comput., 2019,
     15, 1652-1671. DOI: 10.1021/acs.jctc.8b01176
   for GFN1-xTB:
   * S. Grimme, C. Bannwarth, P. Shushkov, J. Chem. Theory Comput., 2017,
     13, 1989-2009. DOI: 10.1021/acs.jctc.7b00118
   for GFN0-xTB:
   * P. Pracht, E. Caldeweyher, S. Ehlert, S. Grimme, ChemRxiv, 2019, preprint.
     DOI: 10.26434/chemrxiv.8326202.v1
   for GFN-FF:
   * S. Spicher and S. Grimme, Angew. Chem. Int. Ed., 2020, 59, 15665-15673.
     DOI: 10.1002/anie.202004239
   
   for ALPB and GBSA implicit solvation:
   * S. Ehlert, M. Stahn, S. Spicher, S. Grimme, J. Chem. Theory Comput.,
     2021, 17, 4250-4261. DOI: 10.1021/acs.jctc.1c00471
   
   for DFT-D4:
   * E. Caldeweyher, C. Bannwarth and S. Grimme, J. Chem. Phys., 2017,
     147, 034112. DOI: 10.1063/1.4993215
   * E. Caldeweyher, S. Ehlert, A. Hansen, H. Neugebauer, S. Spicher,
     C. Bannwarth and S. Grimme, J. Chem. Phys., 2019, 150, 154122.
     DOI: 10.1063/1.5090222
   * E. Caldeweyher, J.-M. Mewes, S. Ehlert and S. Grimme, Phys. Chem. Chem. Phys.
     2020, 22, 8499-8512. DOI: 10.1039/D0CP00502A
   
   for sTDA-xTB:
   * S. Grimme and C. Bannwarth, J. Chem. Phys., 2016, 145, 054103.
     DOI: 10.1063/1.4959605
   
   in the mass-spec context:
   * V. Asgeirsson, C. Bauer and S. Grimme, Chem. Sci., 2017, 8, 4879.
     DOI: 10.1039/c7sc00601b
   * J. Koopman and S. Grimme, ACS Omega 2019, 4, 12, 15120-15133.
     DOI: 10.1021/acsomega.9b02011
   
   for metadynamics refer to:
   * S. Grimme, J. Chem. Theory Comput., 2019, 155, 2847-2862
     DOI: 10.1021/acs.jctc.9b00143
   
   for SPH calculations refer to:
   * S. Spicher and S. Grimme, J. Chem. Theory Comput., 2021, 17, 1701-1714
     DOI: 10.1021/acs.jctc.0c01306
   
   with help from (in alphabetical order)
   P. Atkinson, C. Bannwarth, F. Bohle, G. Brandenburg, E. Caldeweyher
   M. Checinski, S. Dohm, S. Ehlert, S. Ehrlich, I. Gerasimov, C. Hölzer
   A. Katbashev, J. Koopman, C. Lavigne, S. Lehtola, F. März, M. Müller,
   F. Musil, H. Neugebauer, J. Pisarek, C. Plett, P. Pracht, F. Pultar,
   J. Seibert, P. Shushkov, S. Spicher, M. Stahn, M. Steiner, T. Strunk,
   J. Stückrath, T. Rose, and J. Unsleber
   
 * started run on 2024/10/03 at 21:20:32.107     

           -------------------------------------------------
          |                Calculation Setup                |
           -------------------------------------------------

          program call               : /home/abt-grimme/AK-bin/xtb input.xyz --input input.inp --opt
          hostname                   : boar025.thch.uni-bonn.de
          coordinate file            : input.xyz
          omp threads                :                     8

   ID    Z sym.   atoms
    1    6 C      1-120, 363-482, 725-844, 1087-1206, 1449-1568, 1811-1930,
                  2173-2292, 2535-2654, 2897-3016
    2    1 H      121-362, 483-724, 845-1086, 1207-1448, 1569-1810,
                  1931-2172, 2293-2534, 2655-2896, 3017-3258

molecular fragmentation (1/2 indicates fragments):
111111111111111111111111111111111111111111111111111111111111111111111111
111111111111111111111111111111111111111111111111111111111111111111111111
111111111111111111111111111111111111111111111111111111111111111111111111
111111111111111111111111111111111111111111111111111111111111111111111111
111111111111111111111111111111111111111111111111111111111111111111111111
112222222222222222222222222222222222222222222222222222222222222222222222
222222222222222222222222222222222222222222222222222222222222222222222222
222222222222222222222222222222222222222222222222222222222222222222222222
222222222222222222222222222222222222222222222222222222222222222222222222
222222222222222222222222222222222222222222222222222222222222222222222222
222222222222222222222222222222222222222222222222222222222222222222222222
222222222222222222222222222222222222222222222222222222222222222222222222
222222222222222222222222222222222222222222222222222222222222222222222222
222222222222222222222222222222222222222222222222222222222222222222222222
222222222222222222222222222222222222222222222222222222222222222222222222
222222222222222222222222222222222222222222222222222222222222222222222222
222222222222222222222222222222222222222222222222222222222222222222222222
222222222222222222222222222222222222222222222222222222222222222222222222
222222222222222222222222222222222222222222222222222222222222222222222222
222222222222222222222222222222222222222222222222222222222222222222222222
222222222222222222222222222222222222222222222222222222222222222222222222
222222222222222222222222222222222222222222222222222222222222222222222222
222222222222222222222222222222222222222222222222222222222222222222222222
222222222222222222222222222222222222222222222222222222222222222222222222
222222222222222222222222222222222222222222222222222222222222222222222222
222222222222222222222222222222222222222222222222222222222222222222222222
222222222222222222222222222222222222222222222222222222222222222222222222
222222222222222222222222222222222222222222222222222222222222222222222222
222222222222222222222222222222222222222222222222222222222222222222222222
222222222222222222222222222222222222222222222222222222222222222222222222
222222222222222222222222222222222222222222222222222222222222222222222222
222222222222222222222222222222222222222222222222222222222222222222222222
222222222222222222222222222222222222222222222222222222222222222222222222
222222222222222222222222222222222222222222222222222222222222222222222222
222222222222222222222222222222222222222222222222222222222222222222222222
222222222222222222222222222222222222222222222222222222222222222222222222
222222222222222222222222222222222222222222222222222222222222222222222222
222222222222222222222222222222222222222222222222222222222222222222222222
222222222222222222222222222222222222222222222222222222222222222222222222
222222222222222222222222222222222222222222222222222222222222222222222222
222222222222222222222222222222222222222222222222222222222222222222222222
222222222222222222222222222222222222222222222222222222222222222222222222
222222222222222222222222222222222222222222222222222222222222222222222222
222222222222222222222222222222222222222222222222222222222222222222222222
222222222222222222222222222222222222222222222222222222222222222222222222
222222222222222222
# atoms in fragment 1/2:   362  2896
 fragment masses (1/2) :     1685.21    13481.68
CMA distance (Bohr)    :   6.349
constraining FC (au)   :  0.0500

           -------------------------------------------------
          |                 G F N 2 - x T B                 |
           -------------------------------------------------

        Reference                      10.1021/acs.jctc.8b01176
      * Hamiltonian:
        H0-scaling (s, p, d)           1.850000    2.230000    2.230000
        zeta-weighting                 0.500000
      * Dispersion:
        s8                             2.700000
        a1                             0.520000
        a2                             5.000000
        s9                             5.000000
      * Repulsion:
        kExp                           1.500000    1.000000
        rExp                           1.000000
      * Coulomb:
        alpha                          2.000000
        third order                    shell-resolved
        anisotropic                    true
        a3                             3.000000
        a5                             4.000000
        cn-shift                       1.200000
        cn-exp                         4.000000
        max-rad                        5.000000


          ...................................................
          :                      SETUP                      :
          :.................................................:
          :  # basis functions                6498          :
          :  # atomic orbitals                6498          :
          :  # shells                         4338          :
          :  # electrons                      6498          :
          :  max. iterations                   250          :
          :  Hamiltonian                  GFN2-xTB          :
          :  restarted?                      false          :
          :  GBSA solvation                  false          :
          :  PC potential                    false          :
          :  electronic temp.          300.0000000     K    :
          :  accuracy                    1.0000000          :
          :  -> integral cutoff          0.2500000E+02      :
          :  -> integral neglect         0.1000000E-07      :
          :  -> SCF convergence          0.1000000E-05 Eh   :
          :  -> wf. convergence          0.1000000E-03 e    :
          :  Broyden damping             0.4000000          :
          ...................................................

 iter      E             dE          RMSdq      gap      omega  full diag
   1  -3473.5305589 -0.347353E+04  0.244E+00   11.31       0.0  T
   2  -3478.6111077 -0.508055E+01  0.135E+00   11.47       1.0  T
   3  -3478.8164927 -0.205385E+00  0.596E-01   11.46       1.0  T
   4  -3478.8369513 -0.204586E-01  0.759E-02   11.46       1.0  T
   5  -3478.8380185 -0.106717E-02  0.397E-02   11.47       1.0  T
   6  -3478.8382308 -0.212320E-03  0.667E-03   11.47       1.0  T
   7  -3478.8382474 -0.165734E-04  0.127E-03   11.47       1.4  T
   8  -3478.8382485 -0.109717E-05  0.402E-04   11.47       4.4  T
   9  -3478.8382485 -0.722835E-07  0.144E-04   11.47      12.2  T
  10  -3478.8382485 -0.418959E-08  0.423E-05   11.47      41.4  T

   *** convergence criteria satisfied after 10 iterations ***

         #    Occupation            Energy/Eh            Energy/eV
      -------------------------------------------------------------
         1        2.0000           -0.6253016             -17.0153
       ...           ...                  ...                  ...
      3243        2.0000           -0.4020408             -10.9401
      3244        2.0000           -0.4020103             -10.9393
      3245        2.0000           -0.4019843             -10.9385
      3246        2.0000           -0.4015913             -10.9279
      3247        2.0000           -0.4011942             -10.9171
      3248        2.0000           -0.4009400             -10.9101
      3249        2.0000           -0.4005589             -10.8998 (HOMO)
      3250                          0.0209071               0.5689 (LUMO)
      3251                          0.0220674               0.6005
      3252                          0.0221602               0.6030
      3253                          0.0222677               0.6059
      3254                          0.0227564               0.6192
       ...                                ...                  ...
      6498                          0.3883729              10.5682
      -------------------------------------------------------------
                  HL-Gap            0.4214660 Eh           11.4687 eV
             Fermi-level           -0.1898259 Eh           -5.1654 eV

 SCC (total)                   0 d,  0 h, 14 min, 47.434 sec
 SCC setup                      ...        0 min,  0.439 sec (  0.049%)
 Dispersion                     ...        0 min,  3.629 sec (  0.409%)
 classical contributions        ...        0 min,  0.154 sec (  0.017%)
 integral evaluation            ...        0 min,  5.866 sec (  0.661%)
 iterations                     ...       10 min, 19.799 sec ( 69.842%)
 molecular gradient             ...        4 min,  8.985 sec ( 28.057%)
 printout                       ...        0 min,  8.562 sec (  0.965%)

         :::::::::::::::::::::::::::::::::::::::::::::::::::::
         ::                     SUMMARY                     ::
         :::::::::::::::::::::::::::::::::::::::::::::::::::::
         :: total energy           -3427.576344369492 Eh    ::
         :: gradient norm              0.019124837273 Eh/a0 ::
         :: HOMO-LUMO gap             11.468672730623 eV    ::
         ::.................................................::
         :: SCC energy             -3478.838248528142 Eh    ::
         :: -> isotropic ES            0.417529941467 Eh    ::
         :: -> anisotropic ES          1.115260537964 Eh    ::
         :: -> anisotropic XC          1.945669939825 Eh    ::
         :: -> dispersion             -4.070441196109 Eh    ::
         :: repulsion energy          50.611582339939 Eh    ::
         :: add. restraining           0.000000000000 Eh    ::
         :: total charge              -0.000000000010 e     ::
         :::::::::::::::::::::::::::::::::::::::::::::::::::::

      ----------------------------------------------------------- 
     |              Fast Inertial Relaxation Engine              |
      ----------------------------------------------------------- 

          ...................................................
          :                      SETUP                      :
          :.................................................:
          :   energy convergence        0.5000000E-05 Eh    :
          :   grad. convergence         0.1000000E-02 Eh/a0 :
          :   optimization log               true           :
          :   writing optlog all                1     steps :
          :   Hessian reset                    20     steps :
          :   time step scaling                 5     steps :
          :   maximium step len.        1.0000000     a0    :
          :   initial time step         0.2500000     fs    :
          :   maximum time step         1.2500000     fs    :
          :   power reset thr           0.0000000     au    :
          :   alpha parameter           0.1000000           :
          :   BFGS update                   false           :
          :   preconditioning               false           :
          ...................................................

........................................................................
.............................. CYCLE    1 ..............................
........................................................................

 iter      E             dE          RMSdq      gap      omega  full diag
   1  -3478.8418405 -0.347884E+04  0.276E-04   11.47       0.0  T
   2  -3478.8418406 -0.296841E-07  0.158E-04   11.47      11.1  T
   3  -3478.8418406 -0.716682E-09  0.500E-05   11.47      35.0  T
     SCC iter.                  ...        3 min,  0.042 sec
     gradient                   ...        4 min, 10.253 sec
 * total energy  : -3427.5763854 Eh     change    :  -0.4098764E-04 Eh
   gradient norm :     0.0176086 Eh/a0  converged?    E=F G=F D=F
   time step     :     0.2500000 fs     power     :   0.2094326E-08
   step length   :     0.0022414 a0     speed     :   0.2168665E-03

........................................................................
.............................. CYCLE    2 ..............................
........................................................................

 iter      E             dE          RMSdq      gap      omega  full diag
   1  -3478.8470685 -0.347885E+04  0.399E-04   11.47       0.0  T
   2  -3478.8470686 -0.622276E-07  0.228E-04   11.47       7.7  T
   3  -3478.8470686 -0.138971E-08  0.724E-05   11.47      24.2  T
     SCC iter.                  ...        3 min,  2.569 sec
     gradient                   ...        4 min,  9.254 sec
 * total energy  : -3427.5764395 Eh     change    :  -0.5415127E-04 Eh
   gradient norm :     0.0154289 Eh/a0  converged?    E=F G=F D=F
   time step     :     0.2500000 fs     power     :   0.2676522E-08
   step length   :     0.0032730 a0     speed     :   0.3166836E-03

........................................................................
.............................. CYCLE    3 ..............................
........................................................................

 iter      E             dE          RMSdq      gap      omega  full diag
   1  -3478.8537012 -0.347885E+04  0.508E-04   11.47       0.0  T
   2  -3478.8537013 -0.999598E-07  0.290E-04   11.47       6.0  T
   3  -3478.8537014 -0.228283E-08  0.917E-05   11.47      19.1  T
     SCC iter.                  ...        2 min, 58.364 sec
     gradient                   ...        4 min,  9.761 sec
 * total energy  : -3427.5764981 Eh     change    :  -0.5861743E-04 Eh
   gradient norm :     0.0127059 Eh/a0  converged?    E=F G=F D=F
   time step     :     0.2500000 fs     power     :   0.2800264E-08
   step length   :     0.0041759 a0     speed     :   0.4040400E-03

........................................................................
.............................. CYCLE    4 ..............................
........................................................................

 iter      E             dE          RMSdq      gap      omega  full diag
   1  -3478.8614400 -0.347886E+04  0.596E-04   11.47       0.0  T
   2  -3478.8614402 -0.135713E-06  0.340E-04   11.47       5.1  T
   3  -3478.8614402 -0.312093E-08  0.106E-04   11.47      16.5  T
     SCC iter.                  ...        3 min,  2.415 sec
     gradient                   ...        4 min,  9.288 sec
 * total energy  : -3427.5765525 Eh     change    :  -0.5436128E-04 Eh
   gradient norm :     0.0096374 Eh/a0  converged?    E=F G=F D=F
   time step     :     0.2500000 fs     power     :   0.2461077E-08
   step length   :     0.0049154 a0     speed     :   0.4755920E-03

........................................................................
.............................. CYCLE    5 ..............................
........................................................................

 iter      E             dE          RMSdq      gap      omega  full diag
   1  -3478.8699149 -0.347887E+04  0.659E-04   11.47       0.0  T
   2  -3478.8699150 -0.161626E-06  0.377E-04   11.47       4.7  T
   3  -3478.8699150 -0.375621E-08  0.116E-04   11.47      15.1  T
     SCC iter.                  ...        2 min, 59.282 sec
     gradient                   ...        4 min, 16.928 sec
 * total energy  : -3427.5765949 Eh     change    :  -0.4237298E-04 Eh
   gradient norm :     0.0065820 Eh/a0  converged?    E=F G=F D=F
   time step     :     0.2500000 fs     power     :   0.1739118E-08
   step length   :     0.0054620 a0     speed     :   0.5284812E-03

........................................................................
.............................. CYCLE    6 ..............................
........................................................................

 iter      E             dE          RMSdq      gap      omega  full diag
   1  -3478.8795614 -0.347888E+04  0.765E-04   11.47       0.0  T
   2  -3478.8795616 -0.207255E-06  0.438E-04   11.47       4.0  T
   3  -3478.8795616 -0.501677E-08  0.130E-04   11.47      13.5  T
     SCC iter.                  ...        2 min, 58.051 sec
     gradient                   ...        4 min, 10.312 sec
 * total energy  : -3427.5766219 Eh     change    :  -0.2699147E-04 Eh
   gradient norm :     0.0043381 Eh/a0  converged?    E=F G=F D=F
   time step     :     0.2750000 fs     power     :   0.6950658E-09
   step length   :     0.0063954 a0     speed     :   0.5625398E-03

........................................................................
.............................. CYCLE    7 ..............................
........................................................................

 iter      E             dE          RMSdq      gap      omega  full diag
   1  -3478.8893685 -0.347889E+04  0.819E-04   11.47       0.0  T
   2  -3478.8893688 -0.208903E-06  0.471E-04   11.47       3.7  T
   3  -3478.8893688 -0.526506E-08  0.127E-04   11.47      13.8  T
     SCC iter.                  ...        3 min,  1.990 sec
     gradient                   ...        4 min,  8.822 sec
 * total energy  : -3427.5766275 Eh     change    :  -0.5636368E-05 Eh
   gradient norm :     0.0052203 Eh/a0  converged?    E=F G=F D=F
   time step     :     0.3025000 fs     power     :  -0.3383258E-09
   step length   :     0.0069536 a0     speed     :   0.5560324E-03

........................................................................
.............................. CYCLE    8 ..............................
........................................................................
 * reset velocities

 iter      E             dE          RMSdq      gap      omega  full diag
   1  -3478.8892489 -0.347889E+04  0.141E-05   11.47       0.0  T
   2  -3478.8892489  0.190994E-10  0.751E-06   11.47     233.2  T
   3  -3478.8892489 -0.313776E-10  0.342E-06   11.47     512.9  T
     SCC iter.                  ...        2 min, 56.835 sec
     gradient                   ...        4 min,  8.805 sec
 * total energy  : -3427.5766281 Eh     change    :  -0.5826610E-06 Eh
   gradient norm :     0.0051600 Eh/a0  converged?    E=T G=F D=T
   time step     :     0.1512500 fs     power     :   0.5068640E-10
   step length   :     0.0001120 a0     speed     :   0.1790682E-04

........................................................................
.............................. CYCLE    9 ..............................
........................................................................

 iter      E             dE          RMSdq      gap      omega  full diag
   1  -3478.8890114 -0.347889E+04  0.278E-05   11.47       0.0  T
   2  -3478.8890114 -0.154614E-09  0.162E-05   11.47     108.1  T
   3  -3478.8890114 -0.104592E-09  0.397E-06   11.47     441.1  T
     SCC iter.                  ...        2 min, 58.503 sec
     gradient                   ...        4 min,  8.395 sec
 * total energy  : -3427.5766292 Eh     change    :  -0.1136171E-05 Eh
   gradient norm :     0.0050463 Eh/a0  converged?    E=T G=F D=T
   time step     :     0.1512500 fs     power     :   0.9855367E-10
   step length   :     0.0002226 a0     speed     :   0.3560627E-04

........................................................................
.............................. CYCLE   10 ..............................
........................................................................

 iter      E             dE          RMSdq      gap      omega  full diag
   1  -3478.8886614 -0.347889E+04  0.408E-05   11.47       0.0  T
   2  -3478.8886614 -0.405180E-09  0.238E-05   11.47      73.7  T
   3  -3478.8886614  0.454747E-12  0.585E-06   11.47     299.3  T
     SCC iter.                  ...        3 min,  0.799 sec
     gradient                   ...        4 min,  8.046 sec
 * total energy  : -3427.5766308 Eh     change    :  -0.1641894E-05 Eh
   gradient norm :     0.0048808 Eh/a0  converged?    E=T G=F D=T
   time step     :     0.1512500 fs     power     :   0.1416010E-09
   step length   :     0.0003309 a0     speed     :   0.5291420E-04

........................................................................
.............................. CYCLE   11 ..............................
........................................................................

 iter      E             dE          RMSdq      gap      omega  full diag
   1  -3478.8882068 -0.347889E+04  0.535E-05   11.47       0.0  T
   2  -3478.8882068 -0.722594E-09  0.312E-05   11.47      56.1  T
   3  -3478.8882068  0.286491E-10  0.763E-06   11.47     229.5  T
     SCC iter.                  ...        3 min,  1.383 sec
     gradient                   ...        4 min,  9.175 sec
 * total energy  : -3427.5766329 Eh     change    :  -0.2078312E-05 Eh
   gradient norm :     0.0046685 Eh/a0  converged?    E=T G=F D=T
   time step     :     0.1512500 fs     power     :   0.1781115E-09
   step length   :     0.0004355 a0     speed     :   0.6964815E-04

........................................................................
.............................. CYCLE   12 ..............................
........................................................................

 iter      E             dE          RMSdq      gap      omega  full diag
   1  -3478.8876585 -0.347889E+04  0.656E-05   11.47       0.0  T
   2  -3478.8876585 -0.106411E-08  0.383E-05   11.47      45.8  T
   3  -3478.8876585  0.363798E-11  0.924E-06   11.47     189.6  T
     SCC iter.                  ...        3 min,  3.032 sec
     gradient                   ...        4 min,  8.889 sec
 * total energy  : -3427.5766353 Eh     change    :  -0.2422280E-05 Eh
   gradient norm :     0.0044168 Eh/a0  converged?    E=T G=F D=T
   time step     :     0.1512500 fs     power     :   0.2068064E-09
   step length   :     0.0005355 a0     speed     :   0.8563749E-04

........................................................................
.............................. CYCLE   13 ..............................
........................................................................

 iter      E             dE          RMSdq      gap      omega  full diag
   1  -3478.8870303 -0.347889E+04  0.767E-05   11.47       0.0  T
   2  -3478.8870303 -0.133377E-08  0.448E-05   11.47      39.1  T
   3  -3478.8870303 -0.300133E-10  0.107E-05   11.47     164.4  T
     SCC iter.                  ...        3 min,  2.438 sec
     gradient                   ...        4 min,  8.773 sec
 * total energy  : -3427.5766380 Eh     change    :  -0.2680758E-05 Eh
   gradient norm :     0.0041354 Eh/a0  converged?    E=T G=F D=T
   time step     :     0.1512500 fs     power     :   0.2269493E-09
   step length   :     0.0006298 a0     speed     :   0.1007276E-03

........................................................................
.............................. CYCLE   14 ..............................
........................................................................

 iter      E             dE          RMSdq      gap      omega  full diag
   1  -3478.8862623 -0.347889E+04  0.967E-05   11.47       0.0  T
   2  -3478.8862623 -0.217824E-08  0.565E-05   11.47      31.0  T
   3  -3478.8862623 -0.115506E-09  0.132E-05   11.47     132.8  T
     SCC iter.                  ...        3 min,  4.102 sec
     gradient                   ...        4 min, 10.232 sec
 * total energy  : -3427.5766412 Eh     change    :  -0.3143073E-05 Eh
   gradient norm :     0.0038040 Eh/a0  converged?    E=T G=F D=T
   time step     :     0.1663750 fs     power     :   0.2390140E-09
   step length   :     0.0007992 a0     speed     :   0.1161946E-03

........................................................................
.............................. CYCLE   15 ..............................
........................................................................

 iter      E             dE          RMSdq      gap      omega  full diag
   1  -3478.8853547 -0.347889E+04  0.119E-04   11.47       0.0  T
   2  -3478.8853547 -0.306591E-08  0.698E-05   11.47      25.1  T
   3  -3478.8853547 -0.836735E-10  0.158E-05   11.47     110.8  T
     SCC iter.                  ...        2 min, 58.731 sec
     gradient                   ...        4 min,  9.602 sec
 * total energy  : -3427.5766447 Eh     change    :  -0.3535923E-05 Eh
   gradient norm :     0.0034369 Eh/a0  converged?    E=T G=F D=T
   time step     :     0.1830125 fs     power     :   0.2407774E-09
   step length   :     0.0009962 a0     speed     :   0.1316741E-03

........................................................................
.............................. CYCLE   16 ..............................
........................................................................

 iter      E             dE          RMSdq      gap      omega  full diag
   1  -3478.8843281 -0.347888E+04  0.144E-04   11.47       0.0  T
   2  -3478.8843281 -0.419686E-08  0.844E-05   11.47      20.8  T
   3  -3478.8843281 -0.550244E-10  0.183E-05   11.47      95.7  T
     SCC iter.                  ...        2 min, 58.190 sec
     gradient                   ...        4 min,  7.294 sec
 * total energy  : -3427.5766485 Eh     change    :  -0.3812349E-05 Eh
   gradient norm :     0.0030684 Eh/a0  converged?    E=T G=F D=F
   time step     :     0.2013138 fs     power     :   0.2311452E-09
   step length   :     0.0012207 a0     speed     :   0.1466692E-03

........................................................................
.............................. CYCLE   17 ..............................
........................................................................

 iter      E             dE          RMSdq      gap      omega  full diag
   1  -3478.8832365 -0.347888E+04  0.170E-04   11.47       0.0  T
   2  -3478.8832365 -0.536102E-08  0.997E-05   11.47      17.6  T
   3  -3478.8832365 -0.927685E-10  0.202E-05   11.47      86.5  T
     SCC iter.                  ...        3 min,  0.652 sec
     gradient                   ...        4 min,  6.806 sec
 * total energy  : -3427.5766524 Eh     change    :  -0.3919202E-05 Eh
   gradient norm :     0.0027587 Eh/a0  converged?    E=T G=F D=F
   time step     :     0.2214451 fs     power     :   0.2114174E-09
   step length   :     0.0014696 a0     speed     :   0.1605279E-03

........................................................................
.............................. CYCLE   18 ..............................
........................................................................

 iter      E             dE          RMSdq      gap      omega  full diag
   1  -3478.8821844 -0.347888E+04  0.195E-04   11.47       0.0  T
   2  -3478.8821844 -0.590580E-08  0.115E-04   11.47      15.3  T
   3  -3478.8821844 -0.115506E-09  0.210E-05   11.47      83.4  T
     SCC iter.                  ...        3 min,  1.359 sec
     gradient                   ...        4 min,  7.619 sec
 * total energy  : -3427.5766563 Eh     change    :  -0.3903329E-05 Eh
   gradient norm :     0.0025816 Eh/a0  converged?    E=T G=F D=F
   time step     :     0.2435896 fs     power     :   0.1865692E-09
   step length   :     0.0017367 a0     speed     :   0.1724524E-03

........................................................................
.............................. CYCLE   19 ..............................
........................................................................

 iter      E             dE          RMSdq      gap      omega  full diag
   1  -3478.8813349 -0.347888E+04  0.217E-04   11.47       0.0  T
   2  -3478.8813349 -0.572300E-08  0.128E-04   11.47      13.7  T
   3  -3478.8813349 -0.117325E-09  0.202E-05   11.47      86.9  T
     SCC iter.                  ...        3 min,  3.814 sec
     gradient                   ...        4 min,  9.605 sec
 * total energy  : -3427.5766601 Eh     change    :  -0.3790850E-05 Eh
   gradient norm :     0.0025657 Eh/a0  converged?    E=T G=F D=F
   time step     :     0.2679486 fs     power     :   0.1650250E-09
   step length   :     0.0020133 a0     speed     :   0.1817482E-03

........................................................................
.............................. CYCLE   20 ..............................
........................................................................

 iter      E             dE          RMSdq      gap      omega  full diag
   1  -3478.8808921 -0.347888E+04  0.237E-04   11.47       0.0  T
   2  -3478.8808921 -0.454520E-08  0.140E-04   11.47      12.5  T
   3  -3478.8808921 -0.841283E-10  0.181E-05   11.47      96.7  T
     SCC iter.                  ...        3 min,  0.718 sec
     gradient                   ...        4 min,  8.594 sec
 * total energy  : -3427.5766641 Eh     change    :  -0.3926032E-05 Eh
   gradient norm :     0.0026382 Eh/a0  converged?    E=T G=F D=F
   time step     :     0.2947435 fs     power     :   0.1548564E-09
   step length   :     0.0022977 a0     speed     :   0.1885656E-03
 * RMSD in coord.:     0.0005883 a0     energy gain  -0.3196913E-03 Eh

........................................................................
.............................. CYCLE   21 ..............................
........................................................................

 iter      E             dE          RMSdq      gap      omega  full diag
   1  -3478.8809871 -0.347888E+04  0.195E-04   11.47       0.0  T
   2  -3478.8809871 -0.199179E-08  0.115E-04   11.47      15.3  T
   3  -3478.8809871 -0.718501E-10  0.126E-05   11.47     138.7  T
     SCC iter.                  ...        3 min,  1.980 sec
     gradient                   ...        4 min,  6.737 sec
 * total energy  : -3427.5766673 Eh     change    :  -0.3283854E-05 Eh
   gradient norm :     0.0026557 Eh/a0  converged?    E=T G=F D=F
   time step     :     0.2500000 fs     power     :   0.1608064E-09
   step length   :     0.0019734 a0     speed     :   0.1909378E-03

........................................................................
.............................. CYCLE   22 ..............................
........................................................................

 iter      E             dE          RMSdq      gap      omega  full diag
   1  -3478.8815473 -0.347888E+04  0.191E-04   11.47       0.0  T
   2  -3478.8815473 -0.168075E-08  0.112E-04   11.47      15.6  T
   3  -3478.8815473 -0.709406E-10  0.125E-05   11.47     140.2  T
     SCC iter.                  ...        3 min,  5.266 sec
     gradient                   ...        4 min,  7.427 sec
 * total energy  : -3427.5766708 Eh     change    :  -0.3433749E-05 Eh
   gradient norm :     0.0025609 Eh/a0  converged?    E=T G=F D=F
   time step     :     0.2500000 fs     power     :   0.1709491E-09
   step length   :     0.0020009 a0     speed     :   0.1936021E-03

........................................................................
.............................. CYCLE   23 ..............................
........................................................................

 iter      E             dE          RMSdq      gap      omega  full diag
   1  -3478.8825313 -0.347888E+04  0.191E-04   11.47       0.0  T
   2  -3478.8825313 -0.200089E-08  0.111E-04   11.47      15.7  T
   3  -3478.8825313 -0.341061E-10  0.135E-05   11.47     129.9  T
     SCC iter.                  ...        3 min,  0.273 sec
     gradient                   ...        4 min,  7.946 sec
 * total energy  : -3427.5766743 Eh     change    :  -0.3568439E-05 Eh
   gradient norm :     0.0023386 Eh/a0  converged?    E=T G=F D=F
   time step     :     0.2500000 fs     power     :   0.1767298E-09
   step length   :     0.0020392 a0     speed     :   0.1973039E-03

........................................................................
.............................. CYCLE   24 ..............................
........................................................................

 iter      E             dE          RMSdq      gap      omega  full diag
   1  -3478.8838699 -0.347888E+04  0.194E-04   11.47       0.0  T
   2  -3478.8838699 -0.282944E-08  0.113E-04   11.47      15.6  T
   3  -3478.8838699 -0.413820E-10  0.152E-05   11.47     115.6  T
     SCC iter.                  ...        3 min,  9.222 sec
     gradient                   ...        4 min,  7.210 sec
 * total energy  : -3427.5766779 Eh     change    :  -0.3507523E-05 Eh
   gradient norm :     0.0020109 Eh/a0  converged?    E=T G=F D=F
   time step     :     0.2500000 fs     power     :   0.1716922E-09
   step length   :     0.0020877 a0     speed     :   0.2019925E-03

........................................................................
.............................. CYCLE   25 ..............................
........................................................................

 iter      E             dE          RMSdq      gap      omega  full diag
   1  -3478.8854658 -0.347889E+04  0.198E-04   11.47       0.0  T
   2  -3478.8854658 -0.391537E-08  0.114E-04   11.47      15.3  T
   3  -3478.8854658 -0.198270E-09  0.170E-05   11.47     103.1  T
     SCC iter.                  ...        3 min,  1.396 sec
     gradient                   ...        4 min,  6.640 sec
 * total energy  : -3427.5766811 Eh     change    :  -0.3218881E-05 Eh
   gradient norm :     0.0016406 Eh/a0  converged?    E=T G=F D=F
   time step     :     0.2500000 fs     power     :   0.1534482E-09
   step length   :     0.0021407 a0     speed     :   0.2071242E-03

........................................................................
.............................. CYCLE   26 ..............................
........................................................................

 iter      E             dE          RMSdq      gap      omega  full diag
   1  -3478.8873647 -0.347889E+04  0.220E-04   11.47       0.0  T
   2  -3478.8873647 -0.569116E-08  0.126E-04   11.47      13.9  T
   3  -3478.8873647 -0.173259E-09  0.202E-05   11.47      86.7  T
     SCC iter.                  ...        3 min,  2.296 sec
     gradient                   ...        4 min,  7.145 sec
 * total energy  : -3427.5766841 Eh     change    :  -0.2978525E-05 Eh
   gradient norm :     0.0013285 Eh/a0  converged?    E=T G=F D=F
   time step     :     0.2750000 fs     power     :   0.1213976E-09
   step length   :     0.0024172 a0     speed     :   0.2126115E-03

........................................................................
.............................. CYCLE   27 ..............................
........................................................................

 iter      E             dE          RMSdq      gap      omega  full diag
   1  -3478.8893417 -0.347889E+04  0.234E-04   11.47       0.0  T
   2  -3478.8893417 -0.639693E-08  0.134E-04   11.47      13.1  T
   3  -3478.8893417 -0.125965E-09  0.211E-05   11.47      83.2  T
     SCC iter.                  ...        3 min,  0.281 sec
     gradient                   ...        4 min,  7.937 sec
 * total energy  : -3427.5766865 Eh     change    :  -0.2442860E-05 Eh
   gradient norm :     0.0013043 Eh/a0  converged?    E=T G=F D=F
   time step     :     0.3025000 fs     power     :   0.8500613E-10
   step length   :     0.0027014 a0     speed     :   0.2160089E-03

........................................................................
.............................. CYCLE   28 ..............................
........................................................................

 iter      E             dE          RMSdq      gap      omega  full diag
   1  -3478.8910137 -0.347889E+04  0.232E-04   11.47       0.0  T
   2  -3478.8910137 -0.476211E-08  0.133E-04   11.47      13.1  T
   3  -3478.8910137 -0.147338E-09  0.178E-05   11.47      98.4  T
     SCC iter.                  ...        2 min, 59.174 sec
     gradient                   ...        4 min,  7.861 sec
 * total energy  : -3427.5766885 Eh     change    :  -0.2025042E-05 Eh
   gradient norm :     0.0015391 Eh/a0  converged?    E=T G=F D=F
   time step     :     0.3327500 fs     power     :   0.6216392E-10
   step length   :     0.0029366 a0     speed     :   0.2134724E-03

........................................................................
.............................. CYCLE   29 ..............................
........................................................................

 iter      E             dE          RMSdq      gap      omega  full diag
   1  -3478.8920544 -0.347889E+04  0.219E-04   11.47       0.0  T
   2  -3478.8920544 -0.229102E-08  0.127E-04   11.47      13.8  T
   3  -3478.8920544 -0.152795E-09  0.126E-05   11.47     138.5  T
     SCC iter.                  ...        3 min,  1.777 sec
     gradient                   ...        4 min,  9.090 sec
 * total energy  : -3427.5766905 Eh     change    :  -0.2020673E-05 Eh
   gradient norm :     0.0017401 Eh/a0  converged?    E=T G=F D=F
   time step     :     0.3660250 fs     power     :   0.6065134E-10
   step length   :     0.0031280 a0     speed     :   0.2067136E-03

........................................................................
.............................. CYCLE   30 ..............................
........................................................................

 iter      E             dE          RMSdq      gap      omega  full diag
   1  -3478.8922650 -0.347889E+04  0.207E-04   11.47       0.0  T
   2  -3478.8922650 -0.127284E-08  0.121E-04   11.47      14.5  T
   3  -3478.8922650 -0.227374E-09  0.104E-05   11.47     168.7  T
     SCC iter.                  ...        2 min, 59.214 sec
     gradient                   ...        4 min,  9.426 sec
 * total energy  : -3427.5766930 Eh     change    :  -0.2435118E-05 Eh
   gradient norm :     0.0017297 Eh/a0  converged?    E=T G=F D=F
   time step     :     0.4026275 fs     power     :   0.7160623E-10
   step length   :     0.0033415 a0     speed     :   0.2007469E-03

........................................................................
.............................. CYCLE   31 ..............................
........................................................................

 iter      E             dE          RMSdq      gap      omega  full diag
   1  -3478.8915809 -0.347889E+04  0.205E-04   11.47       0.0  T
   2  -3478.8915809 -0.306409E-08  0.121E-04   11.47      14.5  T
   3  -3478.8915809 -0.150067E-09  0.132E-05   11.47     133.0  T
     SCC iter.                  ...        2 min, 59.571 sec
     gradient                   ...        4 min,  9.506 sec
 * total energy  : -3427.5766960 Eh     change    :  -0.2984320E-05 Eh
   gradient norm :     0.0015018 Eh/a0  converged?    E=T G=F D=F
   time step     :     0.4428903 fs     power     :   0.7842430E-10
   step length   :     0.0036302 a0     speed     :   0.1982643E-03

........................................................................
.............................. CYCLE   32 ..............................
........................................................................

 iter      E             dE          RMSdq      gap      omega  full diag
   1  -3478.8901669 -0.347889E+04  0.211E-04   11.47       0.0  T
   2  -3478.8901669 -0.640102E-08  0.124E-04   11.47      14.1  T
   3  -3478.8901669 -0.167347E-09  0.197E-05   11.47      89.1  T
     SCC iter.                  ...        2 min, 56.598 sec
     gradient                   ...        4 min,  8.962 sec
 * total energy  : -3427.5766991 Eh     change    :  -0.3127700E-05 Eh
   gradient norm :     0.0012884 Eh/a0  converged?    E=T G=F D=F
   time step     :     0.4871793 fs     power     :   0.7055517E-10
   step length   :     0.0040069 a0     speed     :   0.1989461E-03

........................................................................
.............................. CYCLE   33 ..............................
........................................................................

 iter      E             dE          RMSdq      gap      omega  full diag
   1  -3478.8886115 -0.347889E+04  0.203E-04   11.47       0.0  T
   2  -3478.8886115 -0.708587E-08  0.120E-04   11.47      14.6  T
   3  -3478.8886115 -0.206001E-09  0.211E-05   11.47      83.1  T
     SCC iter.                  ...        2 min, 57.571 sec
     gradient                   ...        4 min,  9.345 sec
 * total energy  : -3427.5767021 Eh     change    :  -0.2970849E-05 Eh
   gradient norm :     0.0014176 Eh/a0  converged?    E=T G=F D=F
   time step     :     0.5358972 fs     power     :   0.5920004E-10
   step length   :     0.0044258 a0     speed     :   0.1997673E-03

........................................................................
.............................. CYCLE   34 ..............................
........................................................................

 iter      E             dE          RMSdq      gap      omega  full diag
   1  -3478.8877870 -0.347889E+04  0.182E-04   11.47       0.0  T
   2  -3478.8877870 -0.280716E-08  0.108E-04   11.47      16.2  T
   3  -3478.8877870 -0.135515E-09  0.108E-05   11.47     161.6  T
     SCC iter.                  ...        3 min,  0.123 sec
     gradient                   ...        4 min,  9.027 sec
 * total energy  : -3427.5767054 Eh     change    :  -0.3315759E-05 Eh
   gradient norm :     0.0016181 Eh/a0  converged?    E=T G=F D=F
   time step     :     0.5894869 fs     power     :   0.6609799E-10
   step length   :     0.0048402 a0     speed     :   0.1986110E-03

........................................................................
.............................. CYCLE   35 ..............................
........................................................................

 iter      E             dE          RMSdq      gap      omega  full diag
   1  -3478.8883070 -0.347889E+04  0.201E-04   11.47       0.0  T
   2  -3478.8883070 -0.109912E-08  0.117E-04   11.47      14.9  T
   3  -3478.8883070 -0.582077E-10  0.768E-06   11.47     228.1  T
     SCC iter.                  ...        3 min,  5.553 sec
     gradient                   ...        4 min,  9.973 sec
 * total energy  : -3427.5767099 Eh     change    :  -0.4477711E-05 Eh
   gradient norm :     0.0014899 Eh/a0  converged?    E=T G=F D=F
   time step     :     0.6484356 fs     power     :   0.8459504E-10
   step length   :     0.0053616 a0     speed     :   0.2000068E-03

........................................................................
.............................. CYCLE   36 ..............................
........................................................................

 iter      E             dE          RMSdq      gap      omega  full diag
   1  -3478.8902536 -0.347889E+04  0.266E-04   11.47       0.0  T
   2  -3478.8902536 -0.772525E-08  0.154E-04   11.47      11.4  T
   3  -3478.8902536 -0.213731E-09  0.229E-05   11.47      76.3  T
     SCC iter.                  ...        2 min, 59.462 sec
     gradient                   ...        4 min,  8.314 sec
 * total energy  : -3427.5767152 Eh     change    :  -0.5307485E-05 Eh
   gradient norm :     0.0011477 Eh/a0  converged?    E=F G=F D=F
   time step     :     0.7132792 fs     power     :   0.8574226E-10
   step length   :     0.0061018 a0     speed     :   0.2069248E-03

........................................................................
.............................. CYCLE   37 ..............................
........................................................................

 iter      E             dE          RMSdq      gap      omega  full diag
   1  -3478.8926576 -0.347889E+04  0.301E-04   11.47       0.0  T
   2  -3478.8926576 -0.125469E-07  0.175E-04   11.47      10.0  T
   3  -3478.8926576 -0.333330E-09  0.305E-05   11.47      57.4  T
     SCC iter.                  ...        2 min, 59.959 sec
     gradient                   ...        4 min,  8.074 sec
 * total energy  : -3427.5767204 Eh     change    :  -0.5194171E-05 Eh
   gradient norm :     0.0012594 Eh/a0  converged?    E=F G=F D=F
   time step     :     0.7846071 fs     power     :   0.7111874E-10
   step length   :     0.0070074 a0     speed     :   0.2160314E-03

........................................................................
.............................. CYCLE   38 ..............................
........................................................................

 iter      E             dE          RMSdq      gap      omega  full diag
   1  -3478.8936571 -0.347889E+04  0.276E-04   11.47       0.0  T
   2  -3478.8936571 -0.619275E-08  0.162E-04   11.47      10.8  T
   3  -3478.8936571 -0.257842E-09  0.232E-05   11.47      75.7  T
     SCC iter.                  ...        2 min, 57.804 sec
     gradient                   ...        4 min,  7.242 sec
 * total energy  : -3427.5767260 Eh     change    :  -0.5599361E-05 Eh
   gradient norm :     0.0013352 Eh/a0  converged?    E=F G=F D=F
   time step     :     0.8630678 fs     power     :   0.7691589E-10
   step length   :     0.0078901 a0     speed     :   0.2211319E-03

........................................................................
.............................. CYCLE   39 ..............................
........................................................................

 iter      E             dE          RMSdq      gap      omega  full diag
   1  -3478.8925520 -0.347889E+04  0.303E-04   11.47       0.0  T
   2  -3478.8925520 -0.101763E-07  0.177E-04   11.47       9.9  T
   3  -3478.8925520 -0.352429E-09  0.299E-05   11.47      58.6  T
     SCC iter.                  ...        2 min, 59.809 sec
     gradient                   ...        4 min,  8.387 sec
 * total energy  : -3427.5767326 Eh     change    :  -0.6600092E-05 Eh
   gradient norm :     0.0010610 Eh/a0  converged?    E=F G=F D=F
   time step     :     0.9493746 fs     power     :   0.7891605E-10
   step length   :     0.0089705 a0     speed     :   0.2285566E-03

........................................................................
.............................. CYCLE   40 ..............................
........................................................................

 iter      E             dE          RMSdq      gap      omega  full diag
   1  -3478.8910964 -0.347889E+04  0.318E-04   11.47       0.0  T
   2  -3478.8910964 -0.980299E-08  0.185E-04   11.47       9.5  T
   3  -3478.8910964 -0.376986E-09  0.255E-05   11.47      68.8  T
     SCC iter.                  ...        3 min,  2.578 sec
     gradient                   ...        4 min,  6.936 sec
 * total energy  : -3427.5767392 Eh     change    :  -0.6654889E-05 Eh
   gradient norm :     0.0013048 Eh/a0  converged?    E=F G=F D=F
   time step     :     1.0443120 fs     power     :   0.7074106E-10
   step length   :     0.0102820 a0     speed     :   0.2381562E-03

........................................................................
.............................. CYCLE   41 ..............................
........................................................................

 iter      E             dE          RMSdq      gap      omega  full diag
   1  -3478.8921681 -0.347889E+04  0.323E-04   11.47       0.0  T
   2  -3478.8921681 -0.501768E-08  0.188E-04   11.47       9.3  T
   3  -3478.8921681 -0.456566E-09  0.142E-05   11.47     123.2  T
     SCC iter.                  ...        2 min, 58.036 sec
     gradient                   ...        4 min,  8.038 sec
 * total energy  : -3427.5767475 Eh     change    :  -0.8250210E-05 Eh
   gradient norm :     0.0011568 Eh/a0  converged?    E=F G=F D=F
   time step     :     1.1487432 fs     power     :   0.8729397E-10
   step length   :     0.0116513 a0     speed     :   0.2453384E-03

........................................................................
.............................. CYCLE   42 ..............................
........................................................................

 iter      E             dE          RMSdq      gap      omega  full diag
   1  -3478.8945808 -0.347889E+04  0.391E-04   11.47       0.0  T
   2  -3478.8945808 -0.177452E-07  0.228E-04   11.47       7.7  T
   3  -3478.8945808 -0.567525E-09  0.322E-05   11.47      54.4  T
     SCC iter.                  ...        3 min,  6.601 sec
     gradient                   ...        4 min,  8.220 sec
 * total energy  : -3427.5767567 Eh     change    :  -0.9243941E-05 Eh
   gradient norm :     0.0012215 Eh/a0  converged?    E=F G=F D=F
   time step     :     1.2500000 fs     power     :   0.8235091E-10
   step length   :     0.0133533 a0     speed     :   0.2584005E-03
 * RMSD in coord.:     0.0016980 a0     energy gain  -0.9264115E-04 Eh

........................................................................
.............................. CYCLE   43 ..............................
........................................................................

 iter      E             dE          RMSdq      gap      omega  full diag
   1  -3478.8946202 -0.347889E+04  0.623E-05   11.47       0.0  T
   2  -3478.8946202 -0.107775E-09  0.367E-05   11.47      47.8  T
   3  -3478.8946202  0.136424E-10  0.208E-06   11.47     840.3  T
     SCC iter.                  ...        3 min,  4.107 sec
     gradient                   ...        4 min,  9.208 sec
 * total energy  : -3427.5767585 Eh     change    :  -0.1788389E-05 Eh
   gradient norm :     0.0012350 Eh/a0  converged?    E=T G=F D=F
   time step     :     0.2500000 fs     power     :   0.9336104E-10
   step length   :     0.0025819 a0     speed     :   0.2498122E-03

........................................................................
.............................. CYCLE   44 ..............................
........................................................................

 iter      E             dE          RMSdq      gap      omega  full diag
   1  -3478.8942591 -0.347889E+04  0.633E-05   11.47       0.0  T
   2  -3478.8942591 -0.280124E-09  0.370E-05   11.47      47.4  T
   3  -3478.8942591 -0.181899E-10  0.483E-06   11.47     363.0  T
     SCC iter.                  ...        2 min, 56.808 sec
     gradient                   ...        4 min,  8.101 sec
 * total energy  : -3427.5767604 Eh     change    :  -0.1942160E-05 Eh
   gradient norm :     0.0011434 Eh/a0  converged?    E=T G=F D=F
   time step     :     0.2500000 fs     power     :   0.1020489E-09
   step length   :     0.0025212 a0     speed     :   0.2439372E-03

........................................................................
.............................. CYCLE   45 ..............................
........................................................................

 iter      E             dE          RMSdq      gap      omega  full diag
   1  -3478.8935897 -0.347889E+04  0.742E-05   11.47       0.0  T
   2  -3478.8935897 -0.862201E-09  0.431E-05   11.47      40.6  T
   3  -3478.8935897 -0.368345E-10  0.819E-06   11.47     214.0  T
     SCC iter.                  ...        2 min, 59.528 sec
     gradient                   ...        4 min,  9.472 sec
 * total energy  : -3427.5767625 Eh     change    :  -0.2027125E-05 Eh
   gradient norm :     0.0010013 Eh/a0  converged?    E=T G=F D=F
   time step     :     0.2500000 fs     power     :   0.1041613E-09
   step length   :     0.0024933 a0     speed     :   0.2412362E-03

........................................................................
.............................. CYCLE   46 ..............................
........................................................................

 iter      E             dE          RMSdq      gap      omega  full diag
   1  -3478.8927574 -0.347889E+04  0.829E-05   11.47       0.0  T
   2  -3478.8927574 -0.139971E-08  0.482E-05   11.47      36.3  T
   3  -3478.8927574 -0.427463E-10  0.103E-05   11.47     169.5  T
     SCC iter.                  ...        2 min, 59.512 sec
     gradient                   ...        4 min,  9.899 sec
 * total energy  : -3427.5767645 Eh     change    :  -0.1992536E-05 Eh
   gradient norm :     0.0009036 Eh/a0  converged?    E=T G=T D=F
   time step     :     0.2500000 fs     power     :   0.1002771E-09
   step length   :     0.0024933 a0     speed     :   0.2412420E-03

   *** GEOMETRY OPTIMIZATION CONVERGED AFTER 46 CYCLES ***

------------------------------------------------------------------------
 total energy gain   :        -0.0004201 Eh       -0.2636 kcal/mol
 total RMSD          :         0.0020975 a0        0.0011 Å
 total power (kW/mol):        -0.0239767 (step)   -0.0001 (real)
------------------------------------------------------------------------

 FIRE (total)                  0 d,  5 h, 43 min, 42.818 sec
 setup                          ...        0 min,  0.116 sec (  0.001%)
 velocities                     ...        0 min,  0.003 sec (  0.000%)
 propagation                    ...        0 min,  0.004 sec (  0.000%)
 singlepoint calculation        ...      343 min, 41.949 sec ( 99.996%)
 log and printout               ...        0 min,  0.692 sec (  0.003%)
 preconditioner                 ...        0 min,  0.000 sec (  0.000%)
 model hessian                  ...        0 min,  0.000 sec (  0.000%)
 hessian update                 ...        0 min,  0.000 sec (  0.000%)

================
 final structure:
================
3258
 xtb: 6.6.1 (8d0f1dd)
C          114.12877565659512      111.51479899077943       98.62453819850550
C          112.73284141681150      111.63086159999577       98.02558727519856
C          111.85643656532764      112.59543913029430       98.81855139568242
C          110.44022750749190      112.70367396804463       98.25718925321402
C          109.55618569639445      113.56376812309152       99.15636087038141
C          108.08679109557609      113.60346999594793       98.73360035134830
C          107.78209995014846      114.60583340138150       97.62303559298383
C          106.28768640440919      114.67849334478093       97.29490435235084
C          105.45129222508226      115.26476696957729       98.43181816058600
C          103.97576747454455      115.41785791689513       98.06599080357316
C          103.15464760565811      115.88045497201045       99.26897409629177
C          101.66311207378007      116.01450900331437       98.96715798340070
C          100.87010102121708      116.33218007502367      100.23338870336477
C           99.36274734541276      116.46198605806983      100.01045415328107
C           98.69106480450900      115.14392100425631       99.62663060639620
C           97.16766179838964      115.23216689970465       99.69363895560318
C           96.49899488735610      113.88471384992589       99.42570615727523
C           94.97592021890026      113.98116166255721       99.49869945417409
C           94.27244324645895      112.62892983768067       99.35503891388345
C           94.32247169953885      111.78811113164004      100.62963582091189
C           93.60341360209331      110.44978002405752      100.46494961295473
C           93.62241394921497      109.63127069928784      101.75443251575230
C           92.93980161964195      108.27401414844006      101.59655808880225
C           93.02013861243277      107.40385782060677      102.85317628533326
C           94.43551695037883      106.92454978254891      103.17615337715041
C           94.44749301169151      105.94462233072147      104.34960109632017
C           95.84767716232065      105.65005583987333      104.89078114991716
C           96.76909058783755      104.95469131045913      103.89155085272097
C           98.11512218110319      104.59593511395930      104.51818920867544
C           99.05903209417883      103.92085339417488      103.52599188032605
C          100.40587079562786      103.57110458346239      104.15682986184379
C          101.36684845931494      102.94640893651605      103.14842566898500
C          102.71471801985007      102.57843218911579      103.76635703797265
C          103.70968221631915      102.11194881506869      102.70610304409976
C          105.04162573293856      101.65488219459739      103.29675539039903
C          106.06123260016321      101.31656047870391      102.21016064247728
C          107.40705280159430      100.87196762799699      102.78212614887283
C          108.48203520793081      100.77379664097300      101.70023427234094
C          109.85905731494391      100.37649542034023      102.23614525098009
C          109.98237980148218       98.90024301707354      102.60599586080627
C          111.38292481056776       98.57409867690411      103.11922448716666
C          111.53332858407408       97.12762815836918      103.58851199663225
C          112.97685950654646       96.83504165895334      103.99157402142237
C          113.20023998281411       95.41545922811738      104.51210754861516
C          114.69171909881976       95.13850432818475      104.69881255298425
C          114.99422657492835       93.73853277474322      105.22819508998272
C          116.47237971377469       93.36392508243983      105.09769512800912
C          117.40386316379042       94.17278468072284      106.00063674013316
C          118.86823638830613       93.81737981871240      105.74174069643105
C          119.85934084472625       94.61832438158740      106.58928657093222
C          119.86510301088771       94.19596258173289      108.05631878235135
C          120.96384769343850       94.86113330033162      108.88814950514657
C          120.75468288546817       96.36315494402035      109.06687219582312
C          121.70467742084881       96.97347103490154      110.09524883396357
C          121.43789674137160       98.46443448433234      110.29267003076981
C          122.31462239416325       99.08012856370729      111.38033454448805
C          121.99312469998418      100.55639408066770      111.60272954977187
C          122.77383173302933      101.15273813106032      112.77150258423897
C          122.39619447849388      102.60899818787972      113.03378267346787
C          123.11092449160206      103.18176823101575      114.25565342291819
C          122.68820465513485      104.61926478993016      114.55063056599758
C          123.34369822062150      105.16863691103204      115.81589917342168
C          122.88596549696092      106.59109481881531      116.13088504591767
C          123.48416727272583      107.12053822310588      117.43260816655189
C          122.99763636303530      108.53168760317618      117.75505968736459
C          123.53638602311540      109.04690782807329      119.08803491176182
C          123.02124704531100      110.44871899674131      119.40636753083140
C          123.49568951059594      110.95694388967696      120.76599398756811
C          122.94532761446406      112.34774665337090      121.07326867394708
C          123.35366270009897      112.85363691529143      122.45473010383016
C          122.76767808812441      114.23282168252634      122.75019108911262
C          123.12939118391560      114.72859819131675      124.14822358802988
C          122.60994349503316      116.13635684907311      124.44926796004788
C          121.09448090155672      116.20654794886450      124.63174209195293
C          120.63111323100429      117.62120085511638      124.97464425271822
C          119.11587627559328      117.72116081243027      125.14245626184515
C          118.66942317036627      119.15421775394870      125.42336538724412
C          117.15162939106085      119.29216837723538      125.52808151566606
C          116.73612211664339      120.75044498162623      125.71502436744160
C          115.22256396400486      120.96656126599738      125.69155118129291
C          114.51689109266145      120.41458848920503      126.92790144370787
C          113.04226473614411      120.81188510323037      127.00949090721953
C          112.19266997721471      120.22405906631731      125.88516705850225
C          110.70119594995134      120.46769614968676      126.10528803419648
C          109.85958713016528      119.84974584814886      124.99245888134668
C          108.36304335236292      120.09014760289922      125.17784332447937
C          107.55496800437552      119.42978360066267      124.06407232192515
C          106.05262924480958      119.67090010055438      124.19034655446120
C          105.27048342203985      119.06206795831822      123.02446124154432
C          105.13224215361134      117.54291687636048      123.11081418241777
C          104.60325974341997      116.95134396658342      121.80640867884973
C          104.44186360716400      115.43423312990136      121.87827563858978
C          104.23636910086158      114.81655420155006      120.49781827101199
C          104.12946630822029      113.29399895977929      120.54836007001570
C          104.10368624138519      112.69441860165422      119.14524352347621
C          103.84851490276979      111.18916011626759      119.11412656993349
C          104.94566096276915      110.35976276032984      119.78064395464673
C          104.79713999752808      108.88164344093455      119.42859723678821
C          105.82316568231516      107.99007440019443      120.12155676573998
C          105.67297214091656      106.53113697786532      119.69611525512641
C          106.63241696501522      105.59990125874764      120.43171004709434
C          106.42988538498558      104.14046964022158      120.03032554107682
C          107.34701974546503      103.20088206361616      120.81080456734385
C          107.05139247313591      101.72012774649463      120.56643387433444
C          107.33613704269212      101.27439943395817      119.13435332659238
C          107.19402345406310       99.76448593649101      118.95626485667120
C          107.58439812477401       99.31844458387712      117.54848759048977
C          107.38573481571275       97.81779693468491      117.34383856623762
C          108.03291677000387       97.28787060085507      116.06337919742948
C          107.42941801997617       97.88354671592015      114.79568642299806
C          108.03702235108771       97.28166055490047      113.53010742471976
C          107.40826902785777       97.81678071689193      112.24228943298762
C          107.53061505908428       99.33103497659454      112.09165970073153
C          107.00585684249101       99.84717950729500      110.75309480363319
C          106.79919886740333      101.36430220495451      110.75797022100042
C          105.57585237134946      101.77754192938357      111.57382608637717
C          105.22217625930188      103.26078084641776      111.47655485457089
C          106.27441708085627      104.18664081122027      112.08364574503690
C          105.76736394087533      105.62462328377680      112.17391359119361
C          106.81077137053039      106.57963498975484      112.74015192901982
H          105.46595917078714      105.96418087518072      111.17979664513801
H          104.87902399301313      105.64548282673755      112.81003530035053
H          106.53395984239293      103.83298547158246      113.08498926209258
H          107.18219025107183      104.15919040207245      111.47920913542453
H          105.06137538928937      103.53222390702993      110.42996613789582
H          104.27459434719830      103.42025322230261      111.99906727786951
H          104.71885039364953      101.19617975693089      111.22385421138074
H          105.73722273056745      101.53258450916108      112.62371768582499
H          107.69485931078454      101.84494152469530      111.15611044453685
H          106.66198889943118      101.70424199741042      109.72980997757615
H          107.71146834848132       99.57984301305915      109.96333350974210
H          106.05509525637306       99.36157222473435      110.52131104407862
H          106.96472738468205       99.80702481217043      112.89150966158915
H          108.57621319812327       99.62477953329277      112.19981111982115
H          107.88670958884184       97.32924642755447      111.38967890806538
H          106.35045685304772       97.54201953517399      112.22858062446066
H          109.11218429355661       97.47766921314917      113.51437144416424
H          107.90601142916736       96.19779363690436      113.55347980132605
H          106.35065231258960       97.71669595503300      114.79510689500610
H          107.60215362865513       98.95863359968288      114.80378405404805
H          109.10366011739524       97.50391719844642      116.08532051140273
H          107.91651161347626       96.20224647730461      116.03618072728604
H          107.81771275948650       97.28635044613986      118.19706987728600
H          106.31681226643545       97.59638273194035      117.32914727296559
H          106.98568812984257       99.87286341923379      116.82462502655738
H          108.63364761151202       99.56717092685233      117.37138192826880
H          107.82693410931661       99.25314537088342      119.68673405312694
H          106.16029922178947       99.47217216197204      119.15669336405588
H          106.65405211312981      101.77799050798608      118.44702916063574
H          108.35495569987879      101.56919287875283      118.87170354435700
H          107.66900437650239      101.12677905056948      121.24591935564298
H          106.00594879240691      101.51477038425378      120.80880006244725
H          108.38720002897441      103.40987242449943      120.54979538185991
H          107.22966680532249      103.40587842608490      121.87802103757255
H          105.38976908391868      103.86042142334998      120.21481221400876
H          106.61615596984042      104.03596779050881      118.95952619207414
H          107.66403975706245      105.89520131553459      120.22433613932812
H          106.47375615408319      105.70201401441933      121.50686943980311
H          104.64761466249404      106.20832473582936      119.89295900329267
H          105.84498601072069      106.45070548368517      118.61942755117815
H          106.83015246538959      108.33829681302979      119.87713374953228
H          105.69811713228732      108.06697607725293      121.20355823903354
H          103.79275723723853      108.54862000023036      119.70060351447535
H          104.90039480104927      108.76547978413255      118.34737779767914
H          105.92321984846198      110.71409101134111      119.44418766149737
H          104.89916469070731      110.48170977989196      120.86446140191548
H          102.89128735063166      110.97303663652602      119.59449817308625
H          103.76965411069963      110.88003445599337      118.06915780265810
H          103.31997550694382      113.19111892480996      118.56768107376521
H          105.05420254048653      112.90460037166126      118.64934313311224
H          104.98225381474825      112.89420720868037      121.10029237358964
H          103.22260126883447      113.00862372686719      121.08593559343559
H          103.33362916266205      115.22990024512838      120.04439776607913
H          105.07945729567528      115.09046232322109      119.85713563139930
H          105.33640918132443      115.00078041118662      122.33063887476003
H          103.59822103749107      115.18330489033043      122.52463273870359
H          103.64346084220581      117.40914150378222      121.55705517363296
H          105.30029137293113      117.19848391379396      121.00116434712726
H          106.10488076867911      117.09808804453682      123.32621095151927
H          104.46181921783429      117.28198384348643      123.93259944421587
H          104.27199948391620      119.50504554140622      122.98793788485733
H          105.77940125602662      119.31800119786608      122.09203969234792
H          105.68879698935177      119.25504203119205      125.13254711007556
H          105.87167643613529      120.74877728852285      124.21521428694976
H          107.89331351904310      119.81969675370399      123.10074888358869
H          107.75636294331160      118.35791953458956      124.07445375559396
H          108.04594800272996      119.69068664548192      126.14437197966566
H          108.16516496214957      121.16522416143469      125.18723431022451
H          110.17310864894395      120.26793088504665      124.03316327354648
H          110.04684540767113      118.77404365521591      124.95883596621110
H          110.40036454772338      120.04099327608230      127.06571114111232
H          110.51200828517428      121.54315458237022      126.15254494478070
H          112.48614749862669      120.66650679473256      124.93254652386565
H          112.37307681601648      119.14900935371456      125.82385803773236
H          112.64407655200414      120.46632241926228      127.96734452149954
H          112.95794247459288      121.90137157833189      126.99405227352869
H          114.59077438610981      119.32638592054532      126.93628128791232
H          115.02686841061768      120.78953007622587      127.81909049462784
H          115.02480586200316      122.03946780191582      125.62657654150638
H          114.81239844403693      120.49840843899828      124.79534292093444
H          117.14122495927708      121.12465569862603      126.65825494378136
H          117.18207611305226      121.33982072832015      124.91033703186724
H          116.69056028659389      118.90559547770550      124.61557965281133
H          116.79027627693213      118.68860169435742      126.36229106185057
H          119.12810018515449      119.50072958049942      126.35244638581887
H          119.02970058029189      119.79995453417118      124.61916299116685
H          118.62866153579256      117.37085550871146      124.22906688079547
H          118.79292679961128      117.06878553805784      125.95677699714348
H          121.11686826267508      117.94629783852137      125.89778098046763
H          120.94738997200943      118.30133865753041      124.18031639993147
H          120.59865452903388      115.88385323348624      123.71460128194795
H          120.79334730049359      115.52286718475702      125.42827139060823
H          123.08543731429062      116.49436413674638      125.36583532939183
H          122.90801527668138      116.80913738874443      123.64184537080126
H          122.73587736989262      114.03220726524974      124.89217545392584
H          124.21807778763679      114.73182169650390      124.24413892793335
H          123.13596879579333      114.94494680001368      122.00914872177553
H          121.68179894269450      114.18145649697739      122.65129811522925
H          123.01082011855159      112.14653697610129      123.21326514417439
H          124.44335071606048      112.90122622547638      122.51704150345860
H          123.29510931714199      113.04938050747222      120.31324586683002
H          121.85399693475969      112.31677364109912      121.01688833729669
H          123.17202128265632      110.26115230334118      121.54331728481743
H          124.58765205123996      110.98592467040548      120.78372211591594
H          123.34925699981716      111.13987170874394      118.62712818816134
H          121.92814135332608      110.43533428278587      119.39704076974421
H          123.23626366229225      108.36322109782516      119.88544488565826
H          124.62849896335561      109.05899770020183      119.05864823886033
H          123.29948172951117      109.21102613107183      116.95516613789147
H          121.90499505937596      108.53070202422293      117.79198105997742
H          123.21164800486729      106.45059981800505      118.25148364505421
H          124.57412086003755      107.12087755816673      117.35697519674743
H          123.16344552896500      107.25306195160363      115.30809722999152
H          121.79555582234831      106.60390463920962      116.21002179413065
H          123.09785659146479      104.51778977732471      116.65846889244764
H          124.42953200684708      105.15518061715892      115.69613494977499
H          122.94561258489765      105.25607063375929      113.70199926972479
H          121.60166132164751      104.65313670489864      114.66882532344962
H          122.88940820345267      102.55747964395800      115.12481700855560
H          124.19054843504641      103.14732618664472      114.09275854303290
H          122.63659645004557      103.21179281679889      112.15577998877745
H          121.31580722812062      102.67378577010810      113.18996664159594
H          122.57533401462024      100.56406894301574      113.67064073380963
H          123.84427210659265      101.08669167311409      112.56444976571754
H          122.21320231703022      101.11854746841064      110.69265871334866
H          120.92250640678819      100.65945594924743      111.79947796173190
H          122.15949047170196       98.53485562237638      112.31456940828127
H          123.36642034222812       98.97301223490129      111.10635912548958
H          121.60427914434788       98.99108224313187      109.34998239603223
H          120.38827901053159       98.60432475113700      110.56601540779212
H          121.58140384668035       96.45748259901980      111.05057542411309
H          122.73772236208360       96.82743397574257      109.77189292487284
H          120.89596678339997       96.87098987139628      108.11144562259500
H          119.72585805541267       96.53999075571174      109.38969652040012
H          120.97911657308413       94.39059505420487      109.87475391557142
H          121.93494822123384       94.67902393297086      108.42216765399826
H          118.89613841488838       94.42957372297941      108.50112964399312
H          120.00274579914604       93.11246666672162      108.10506648188237
H          120.86315668726158       94.47790909661461      106.18070414113967
H          119.61429968053325       95.67925677554830      106.51223674384894
H          119.02058942008640       92.75035621480740      105.92274372272789
H          119.08595007706720       94.00318177074060      104.68658013730006
H          117.26332283377593       95.23891478492395      105.81536012805095
H          117.14869215771667       93.97508877273505      107.04338399083579
H          116.58983490653956       92.30352710230170      105.33673429348185
H          116.77901095439393       93.49723736700933      104.05664268935114
H          114.69247434325437       93.66757059320636      106.27346024746963
H          114.40334556079404       93.01350336228776      104.66250106444022
H          115.18759370111131       95.26055984129302      103.73316744525880
H          115.10341355174907       95.88263484774134      105.38366932490953
H          112.67472655328908       95.28447237399959      105.46133775863416
H          112.78464496666885       94.69678787595993      103.80162403626862
H          113.61888848652862       96.99664805547214      103.12253643876842
H          113.28381205803450       97.54940493390475      104.76000903111128
H          110.86795052505758       96.94509027842639      104.43589093918648
H          111.23885376935394       96.44950457039205      102.78361000639784
H          112.10810543164710       98.76626027430608      102.32405536179377
H          111.62390864162488       99.24320423926801      103.94842002796055
H          109.24791879042391       98.64306382330813      103.36981302584192
H          109.76965693767306       98.29295437573742      101.72363668087084
H          110.60962136898424      100.60471047928331      101.47472386761568
H          110.09342082872303      100.98346094309778      103.11407613701131
H          108.17032286154587      100.05552609573239      100.94037740852042
H          108.56875819221787      101.74941792898672      101.21365502575664
H          107.73005943835082      101.59649617468105      103.53428880520457
H          107.28673217885471       99.90761097827797      103.27841662002278
H          105.65974182439632      100.52638216512385      101.57106955038246
H          106.21350231326305      102.19801780429729      101.58178442528531
H          105.44513672765973      102.45325500603687      103.92489462912638
[...]
  3011   6 C     3012   6 C                                       1.5295957
  3012   6 C     3013   6 C                                       1.5271251
  3013   6 C     3014   6 C                                       1.5297292
  3014   6 C     3015   6 C                                       1.5277374
  3015   6 C     3016   6 C                                       1.5241677
  3015   6 C     3017   1 H                                       1.0925474
  3015   6 C     3018   1 H                                       1.0916397
  3014   6 C     3019   1 H                                       1.0926263
  3014   6 C     3020   1 H                                       1.0931068
  3013   6 C     3021   1 H                                       1.0911090
  3013   6 C     3022   1 H                                       1.0927505
  3012   6 C     3023   1 H                                       1.0919591
  3012   6 C     3024   1 H                                       1.0919137
  3011   6 C     3025   1 H                                       1.0926310
  3011   6 C     3026   1 H                                       1.0932947
  3010   6 C     3027   1 H                                       1.0912113
  3010   6 C     3028   1 H                                       1.0905107
  3009   6 C     3029   1 H                                       1.0930094
  3009   6 C     3030   1 H                                       1.0925699
  3008   6 C     3031   1 H                                       1.0928392
  3008   6 C     3032   1 H                                       1.0931250
  3007   6 C     3033   1 H                                       1.0929377
  3007   6 C     3034   1 H                                       1.0911938
  3006   6 C     3035   1 H                                       1.0928422
  3006   6 C     3036   1 H                                       1.0923892
  3005   6 C     3037   1 H                                       1.0933654
  3005   6 C     3038   1 H                                       1.0931634
  3004   6 C     3039   1 H                                       1.0928479
  3004   6 C     3040   1 H                                       1.0925491
  3003   6 C     3041   1 H                                       1.0919729
  3003   6 C     3042   1 H                                       1.0931207
  3002   6 C     3043   1 H                                       1.0934407
  3002   6 C     3044   1 H                                       1.0924382
  3001   6 C     3045   1 H                                       1.0929574
  3001   6 C     3046   1 H                                       1.0932561
  3000   6 C     3047   1 H                                       1.0925100
  3000   6 C     3048   1 H                                       1.0911436
  2999   6 C     3049   1 H                                       1.0926861
  2999   6 C     3050   1 H                                       1.0922859
  2998   6 C     3051   1 H                                       1.0925925
  2998   6 C     3052   1 H                                       1.0926789
  2997   6 C     3053   1 H                                       1.0935447
  2997   6 C     3054   1 H                                       1.0925533
  2996   6 C     3055   1 H                                       1.0923551
  2996   6 C     3056   1 H                                       1.0923328
  2995   6 C     3057   1 H                                       1.0929404
  2995   6 C     3058   1 H                                       1.0927357
  2994   6 C     3059   1 H                                       1.0925364
  2994   6 C     3060   1 H                                       1.0924278
  2993   6 C     3061   1 H                                       1.0923211
  2993   6 C     3062   1 H                                       1.0918551
  2992   6 C     3063   1 H                                       1.0924505
  2992   6 C     3064   1 H                                       1.0926027
  2991   6 C     3065   1 H                                       1.0918503
  2991   6 C     3066   1 H                                       1.0932555
  2990   6 C     3067   1 H                                       1.0923708
  2990   6 C     3068   1 H                                       1.0910028
  2989   6 C     3069   1 H                                       1.0913385
  2989   6 C     3070   1 H                                       1.0930811
  2988   6 C     3071   1 H                                       1.0939127
  2988   6 C     3072   1 H                                       1.0919923
  2987   6 C     3073   1 H                                       1.0931864
  2987   6 C     3074   1 H                                       1.0942161
  2986   6 C     3075   1 H                                       1.0931903
  2986   6 C     3076   1 H                                       1.0903287
  2985   6 C     3077   1 H                                       1.0912012
  2985   6 C     3078   1 H                                       1.0931868
  2984   6 C     3079   1 H                                       1.0926005
  2984   6 C     3080   1 H                                       1.0935822
  2983   6 C     3081   1 H                                       1.0931726
  2983   6 C     3082   1 H                                       1.0913206
  2982   6 C     3083   1 H                                       1.0915644
  2982   6 C     3084   1 H                                       1.0922505
  2981   6 C     3085   1 H                                       1.0917072
  2981   6 C     3086   1 H                                       1.0937692
  2980   6 C     3087   1 H                                       1.0940991
  2980   6 C     3088   1 H                                       1.0925534
  2979   6 C     3089   1 H                                       1.0910379
  2979   6 C     3090   1 H                                       1.0936068
  2978   6 C     3091   1 H                                       1.0935035
  2978   6 C     3092   1 H                                       1.0918492
  2977   6 C     3093   1 H                                       1.0921643
  2977   6 C     3094   1 H                                       1.0909269
  2976   6 C     3095   1 H                                       1.0929595
  2976   6 C     3096   1 H                                       1.0882205
  2975   6 C     3097   1 H                                       1.0913605
  2975   6 C     3098   1 H                                       1.0931100
  2974   6 C     3099   1 H                                       1.0899008
  2974   6 C     3100   1 H                                       1.0933945
  2973   6 C     3101   1 H                                       1.0939626
  2973   6 C     3102   1 H                                       1.0937828
  2972   6 C     3103   1 H                                       1.0921090
  2972   6 C     3104   1 H                                       1.0902169
  2971   6 C     3105   1 H                                       1.0908706
  2971   6 C     3106   1 H                                       1.0927074
  2970   6 C     3107   1 H                                       1.0922716
  2970   6 C     3108   1 H                                       1.0934796
  2969   6 C     3109   1 H                                       1.0931070
  2969   6 C     3110   1 H                                       1.0928840
  2968   6 C     3111   1 H                                       1.0926190
  2968   6 C     3112   1 H                                       1.0927248
  2967   6 C     3113   1 H                                       1.0931397
  2967   6 C     3114   1 H                                       1.0925365
  2966   6 C     3115   1 H                                       1.0923260
  2966   6 C     3116   1 H                                       1.0921870
  2965   6 C     3117   1 H                                       1.0934880
  2965   6 C     3118   1 H                                       1.0920946
  2964   6 C     3119   1 H                                       1.0922119
  2964   6 C     3120   1 H                                       1.0914289
  2963   6 C     3121   1 H                                       1.0929996
  2963   6 C     3122   1 H                                       1.0909737
  2962   6 C     3123   1 H                                       1.0926794
  2962   6 C     3124   1 H                                       1.0934500
  2961   6 C     3125   1 H                                       1.0923404
  2961   6 C     3126   1 H                                       1.0928040
  2960   6 C     3127   1 H                                       1.0913746
  2960   6 C     3128   1 H                                       1.0910104
  2959   6 C     3129   1 H                                       1.0915640
  2959   6 C     3130   1 H                                       1.0910811
  2958   6 C     3131   1 H                                       1.0921770
  2958   6 C     3132   1 H                                       1.0925968
  2957   6 C     3133   1 H                                       1.0929041
  2957   6 C     3134   1 H                                       1.0932102
  2956   6 C     3135   1 H                                       1.0926491
  2956   6 C     3136   1 H                                       1.0912669
  2955   6 C     3137   1 H                                       1.0927641
  2955   6 C     3138   1 H                                       1.0924559
  2954   6 C     3139   1 H                                       1.0935880
  2954   6 C     3140   1 H                                       1.0908937
  2953   6 C     3141   1 H                                       1.0919169
  2953   6 C     3142   1 H                                       1.0909187
  2952   6 C     3143   1 H                                       1.0924124
  2952   6 C     3144   1 H                                       1.0923336
  2951   6 C     3145   1 H                                       1.0928062
  2951   6 C     3146   1 H                                       1.0938075
  2950   6 C     3147   1 H                                       1.0895406
  2950   6 C     3148   1 H                                       1.0922748
  2949   6 C     3149   1 H                                       1.0925988
  2949   6 C     3150   1 H                                       1.0936134
  2948   6 C     3151   1 H                                       1.0927619
  2948   6 C     3152   1 H                                       1.0921227
  2947   6 C     3153   1 H                                       1.0935029
  2947   6 C     3154   1 H                                       1.0923723
  2946   6 C     3155   1 H                                       1.0916716
  2946   6 C     3156   1 H                                       1.0909001
  2945   6 C     3157   1 H                                       1.0918297
  2945   6 C     3158   1 H                                       1.0929870
  2944   6 C     3159   1 H                                       1.0902900
  2944   6 C     3160   1 H                                       1.0923601
  2943   6 C     3161   1 H                                       1.0937666
  2943   6 C     3162   1 H                                       1.0913377
  2942   6 C     3163   1 H                                       1.0893223
  2942   6 C     3164   1 H                                       1.0929499
  2941   6 C     3165   1 H                                       1.0933143
  2941   6 C     3166   1 H                                       1.0912485
  2940   6 C     3167   1 H                                       1.0934161
  2940   6 C     3168   1 H                                       1.0933196
  2939   6 C     3169   1 H                                       1.0902059
  2939   6 C     3170   1 H                                       1.0934040
  2938   6 C     3171   1 H                                       1.0933222
  2938   6 C     3172   1 H                                       1.0909976
  2937   6 C     3173   1 H                                       1.0930643
  2937   6 C     3174   1 H                                       1.0925672
  2936   6 C     3175   1 H                                       1.0930377
  2936   6 C     3176   1 H                                       1.0917226
  2935   6 C     3177   1 H                                       1.0915099
  2935   6 C     3178   1 H                                       1.0926295
  2934   6 C     3179   1 H                                       1.0933968
  2934   6 C     3180   1 H                                       1.0917818
  2933   6 C     3181   1 H                                       1.0926439
  2933   6 C     3182   1 H                                       1.0917407
  2932   6 C     3183   1 H                                       1.0939149
  2932   6 C     3184   1 H                                       1.0928809
  2931   6 C     3185   1 H                                       1.0900012
  2931   6 C     3186   1 H                                       1.0930857
  2930   6 C     3187   1 H                                       1.0939289
  2930   6 C     3188   1 H                                       1.0910090
  2929   6 C     3189   1 H                                       1.0934018
  2929   6 C     3190   1 H                                       1.0929378
  2928   6 C     3191   1 H                                       1.0912634
  2928   6 C     3192   1 H                                       1.0913423
  2927   6 C     3193   1 H                                       1.0913490
  2927   6 C     3194   1 H                                       1.0916151
  2926   6 C     3195   1 H                                       1.0935654
  2926   6 C     3196   1 H                                       1.0926168
  2925   6 C     3197   1 H                                       1.0901843
  2925   6 C     3198   1 H                                       1.0932476
  2924   6 C     3199   1 H                                       1.0934933
  2924   6 C     3200   1 H                                       1.0923820
  2923   6 C     3201   1 H                                       1.0929852
  2923   6 C     3202   1 H                                       1.0927658
  2922   6 C     3203   1 H                                       1.0923231
  2922   6 C     3204   1 H                                       1.0909481
  2921   6 C     3205   1 H                                       1.0920734
  2921   6 C     3206   1 H                                       1.0920695
  2920   6 C     3207   1 H                                       1.0921214
  2920   6 C     3208   1 H                                       1.0931947
  2919   6 C     3209   1 H                                       1.0935057
  2919   6 C     3210   1 H                                       1.0920252
  2918   6 C     3211   1 H                                       1.0922658
  2918   6 C     3212   1 H                                       1.0913495
  2917   6 C     3213   1 H                                       1.0931323
  2917   6 C     3214   1 H                                       1.0927855
  2916   6 C     3215   1 H                                       1.0939194
  2916   6 C     3216   1 H                                       1.0922602
  2915   6 C     3217   1 H                                       1.0911396
  2915   6 C     3218   1 H                                       1.0907513
  2914   6 C     3219   1 H                                       1.0929109
  2914   6 C     3220   1 H                                       1.0932656
  2913   6 C     3221   1 H                                       1.0933099
  2913   6 C     3222   1 H                                       1.0922827
  2912   6 C     3223   1 H                                       1.0914191
  2912   6 C     3224   1 H                                       1.0917089
  2911   6 C     3225   1 H                                       1.0919755
  2911   6 C     3226   1 H                                       1.0926172
  2910   6 C     3227   1 H                                       1.0931834
  2910   6 C     3228   1 H                                       1.0924462
  2909   6 C     3229   1 H                                       1.0928913
  2909   6 C     3230   1 H                                       1.0923890
  2908   6 C     3231   1 H                                       1.0915561
  2908   6 C     3232   1 H                                       1.0914944
  2907   6 C     3233   1 H                                       1.0932049
  2907   6 C     3234   1 H                                       1.0925047
  2906   6 C     3235   1 H                                       1.0933077
  2906   6 C     3236   1 H                                       1.0922025
  2905   6 C     3237   1 H                                       1.0929220
  2905   6 C     3238   1 H                                       1.0926697
  2904   6 C     3239   1 H                                       1.0928437
  2904   6 C     3240   1 H                                       1.0923475
  2903   6 C     3241   1 H                                       1.0927304
  2903   6 C     3242   1 H                                       1.0931830
  2902   6 C     3243   1 H                                       1.0920198
  2902   6 C     3244   1 H                                       1.0921851
  2901   6 C     3245   1 H                                       1.0926284
  2901   6 C     3246   1 H                                       1.0931958
  2900   6 C     3247   1 H                                       1.0927550
  2900   6 C     3248   1 H                                       1.0932351
  2899   6 C     3249   1 H                                       1.0930184
  2899   6 C     3250   1 H                                       1.0932019
  2898   6 C     3251   1 H                                       1.0926757
  2898   6 C     3252   1 H                                       1.0925806
  2897   6 C     3253   1 H                                       1.0874806
  2897   6 C     3254   1 H                                       1.0880228
  2897   6 C     3255   1 H                                       1.0880071
  3016   6 C     3256   1 H                                       1.0880620
  3016   6 C     3257   1 H                                       1.0881152
  3016   6 C     3258   1 H                                       1.0876282

 * 2 distinct bonds (by element types)

   Z      Z             #   av. dist./Å        max./Å        min./Å
   1 H    6 C        2178     1.0923059     1.0942213     1.0861449
   6 C    6 C        1071     1.5274208     1.5353220     1.5220842


optimized geometry written to: xtbopt.xyz


           -------------------------------------------------
          | TOTAL ENERGY            -3427.576764452108 Eh   |
          | GRADIENT NORM               0.000903776160 Eh/α |
          | HOMO-LUMO GAP              11.470185749416 eV   |
           -------------------------------------------------

------------------------------------------------------------------------
 * finished run on 2024/10/04 at 03:27:11.274     
------------------------------------------------------------------------
 total:
 * wall-time:     0 d,  6 h,  6 min, 39.163 sec
 *  cpu-time:     1 d,  6 h, 19 min, 12.784 sec
 * ratio c/w:     4.962 speedup
 SCF:
 * wall-time:     0 d,  0 h, 14 min, 47.557 sec
 *  cpu-time:     0 d,  1 h, 31 min, 40.936 sec
 * ratio c/w:     6.198 speedup
 ANC optimizer:
 * wall-time:     0 d,  5 h, 51 min,  9.348 sec
 *  cpu-time:     1 d,  4 h, 46 min, 34.164 sec
 * ratio c/w:     4.917 speedup

