3795
 energy: -5103.712338770587 gnorm: 0.000992387232 xtb: 6.6.1 (8d0f1dd)
C          118.61598618787927      116.55383217275219      132.29650502441797
C          117.15878458009054      116.41618687520949      131.94195723454206
C          118.97243609433460      116.18202358389725      133.73881233615853
C          119.18577725196931      114.68141122910376      133.93929518956458
H          119.89918840992398      116.69340049496293      134.00303967536954
H          118.18930715626584      116.53886694171572      134.40849099533375
C          117.90159152272507      113.86283461123617      133.80488623793514
H          119.91893000735276      114.31491756990307      133.21641213348704
H          119.59562755154788      114.50754558703237      134.93652174970828
C          118.17619017813414      112.39789347466090      134.11297744829159
H          117.17361059007366      114.22916640297112      134.53179728838492
H          117.49038298020120      113.96134184121458      132.80246055976778
N          117.80718540288615      111.54369680671400      133.14976251163569
O          116.32901293723079      116.85519647214950      132.85512288528525
O          116.78260925043554      115.98187470326610      130.86559805900461
H          115.36444237900690      116.81484188915202      132.54117436831049
H          118.86570981522604      117.60380363301203      132.12042110426310
H          119.19588260958041      115.96187687963209      131.58983585078528
C          118.04723679249109      110.11653746782733      133.19998567434837
H          117.41310411447456      111.90864399467500      132.29156498773511
C          116.85545320158353      109.32973686516658      132.65712281492492
H          118.94205257896851      109.88284260367256      132.60864345622699
H          118.25310236038658      109.85732838290505      134.24133194492498
C          117.13643219280017      107.82694323032021      132.63029642501147
H          115.97718364503729      109.53130093855226      133.27204279275549
H          116.64831631555479      109.67769787627353      131.64301776594277
C          116.05053509151315      107.03738364040983      131.89796868930475
H          118.09043440382624      107.65662124140701      132.12563024235322
H          117.23847315030629      107.45571829748637      133.65120475213951
C          116.43923586733281      105.56947509756353      131.73294705560872
H          115.10144788222522      107.10819777060725      132.42982728238240
H          115.90992047111096      107.47253288767421      130.90804340015342
C          115.50840585387800      104.80816631058534      130.79050883831243
H          117.45000423839571      105.51276714851132      131.32170772737351
H          116.45371565926776      105.07542495396291      132.70566261564369
N          116.08916257290096      103.51813013770295      130.48202989236862
H          114.52077852254332      104.65767007536343      131.23339477115709
H          115.38119587856838      105.37848903123306      129.86173551281297
C          115.43274436043326      102.40780191797778      130.14371208136666
H          117.11037890965547      103.47989793719466      130.50226470096436
O          118.68643920376724      112.03899033093344      135.17074124431329
C          116.36590272925248      101.22282660556758      129.93834727837699
C          116.93511379125169      100.73346067437802      131.27571795762481
H          115.82344805227166      100.42128340150649      129.43898190859949
H          117.19164959884674      101.54300806148308      129.30225677460072
C          118.26553088636429       99.99988916389982      131.11571958089633
H          117.10957125914580      101.59266672484186      131.92612320169371
H          116.20807342908607      100.08432834991179      131.76812616301814
C          118.17731538428922       98.74356875282048      130.24825812645827
H          118.99782025601483      100.68720679092159      130.68590909320079
H          118.62969619523088       99.70412200829242      132.10246258255242
C          119.45245796818537       97.92545442359568      130.37270788188894
H          117.35396569821948       98.12048306394365      130.60766586669621
H          118.00676256805741       98.99648569157621      129.20368196174584
N          120.03225636992856       97.59557622097829      129.21510363233361
C          121.25117836776859       96.81033928090369      129.16684507831974
H          119.61156241767478       97.88165287879185      128.33758162304190
O          114.21312025232193      102.33318800162159      130.00181573958326
C          121.87863289946760       96.81642010142451      127.77945392252990
H          121.94345167214317       97.21962518186571      129.91092761800252
H          121.02452123485509       95.77995043041345      129.46993511162825
C          122.30200668731597       98.21087343315072      127.31814830183711
H          122.74932266777056       96.15914568565961      127.80525186939784
H          121.16309068166871       96.40349573747163      127.06612675399711
C          123.12180381745139       98.13329343051210      126.02981404495821
H          121.40641559707173       98.81105205550983      127.15994758347138
H          122.89357268838893       98.69000066692158      128.10049904448826
C          123.46141415846918       99.49850678987337      125.42984040339559
H          124.05135156684548       97.59998154136711      126.23722772330753
H          122.56543211206998       97.54854126922662      125.29460801480600
C          122.21084583730844      100.24651142766525      124.97034180200430
N          122.51787801282762      101.38061307331149      124.12586538252869
H          121.56996987679189       99.58238561029866      124.38484509299262
H          121.64618776627462      100.59728409214712      125.84005904305566
C          121.98597213455434      101.55866800505441      122.91726639150119
H          123.16816035725776      102.07683642694982      124.47341616251992
O          119.91297361832510       97.58999837120112      131.46357333518759
C          122.29221914605590      102.88039484236126      122.26239688949438
C          121.24517006121422      103.92866951040884      122.66309960451792
H          123.27868608381300      103.22812413315462      122.56061437869211
H          122.27065008124312      102.75577184822617      121.17971059686926
C          121.39324917259970      104.39773162869658      124.10656159178701
H          121.38172892146135      104.79709855531780      122.01766199151795
H          120.23986097937954      103.53882543040916      122.48504958303027
C          120.48098549595532      105.59795120879180      124.38162742963175
H          121.16209435382139      103.59236121756001      124.80490880961959
H          122.43319496988055      104.68534655615640      124.26906683457368
C          120.99195365212125      106.41678314992956      125.54529072349239
H          120.47203311959930      106.23562795555367      123.49921629532119
H          119.46228070714163      105.26874336455361      124.58656336883166
N          121.98607910568387      107.24332269374959      125.21818365274726
C          122.55467279126989      108.22904420705558      126.10963041992686
H          122.25509484699674      107.28940150733776      124.23695077679432
H          123.99470226403504      100.10149144984511      126.16648028229109
H          124.11808925154568       99.35611135952126      124.56861938525462
O          121.25466289030952      100.71881370415771      122.37885464975970
O          120.54370190354439      106.32281175523643      126.68689720444399
C          122.18810951446169      109.62990480409819      125.61283305765770
H          122.13835971875125      108.04956265515344      127.10323803196302
H          123.63818809283953      108.09380453051884      126.14983115142914
C          122.77648340811429      110.78982839192862      126.42504006060857
H          122.52351608112461      109.71535661428645      124.57851943761352
H          121.09921201601519      109.69666476433156      125.61686185518512
C          124.03617762011700      111.39389840833947      125.80413093553210
H          122.02584663377338      111.57829028738838      126.50140022695714
H          123.00643123527468      110.46362416828366      127.44039332366100
C          125.25299930937838      110.48656383160233      125.94761797013796
H          123.85990296612248      111.60625681780995      124.74754805370758
H          124.25081628550890      112.34106928599643      126.30053183146212
C          126.51735436824785      111.11882747890957      125.38640518811113
H          125.41047108282346      110.26098538573619      127.00360169243372
H          125.08093598301582      109.55037199342962      125.41777886755877
N          126.91204883004494      112.28937821296394      126.14859634825352
H          127.33378529028786      110.38740089954563      125.41207525764138
H          126.37233336003949      111.43063782048498      124.34767254181669
C          127.66554341484274      113.24209586646545      125.61754723898245
H          126.62727340180760      112.32290238637968      127.12593726364338
C          128.07297022437439      114.38459131873883      126.51943439443602
C          127.33461558126602      115.67430859645853      126.13353325233784
H          127.86427632586827      114.13423614421066      127.55935698191469
H          129.14608458482800      114.54166988011374      126.39571199938477
C          125.85868808288772      115.59461118813033      126.50904325854481
H          127.79390940809661      116.52033220276280      126.64756621466910
H          127.43862071268873      115.84257665250847      125.05912391201977
C          125.05611977621049      116.80555444381029      126.03510222344048
H          125.42839974926167      114.69494461948395      126.06157077071536
H          125.77787454609076      115.51743755038096      127.59553646811625
C          125.37086421436527      118.07297807247981      126.81708311017934
H          125.22720425102968      116.98622449448044      124.97548941223152
H          123.99292686674336      116.59586194285541      126.18791324926762
N          125.60741155453877      119.14281222187614      126.05998948582189
C          125.89068222334804      120.46137555274036      126.59290547322560
H          125.61541557622151      119.04302336723771      125.05041527104058
O          128.00934879328619      113.19917322312027      124.42457016374219
C          126.54239860159414      121.34439197548564      125.53199656932595
H          124.96015808983020      120.91762083895976      126.94902429861055
H          126.55063792248500      120.34291409974058      127.45867531054523
C          125.55541098309514      121.87604042850872      124.48721472117165
H          127.03170808784128      122.18405581066172      126.02763715369026
H          127.31302663165339      120.75768107333067      125.02848390858679
C          124.71388072401879      123.04297521137151      125.00652231673068
H          126.12630267973458      122.21547340435554      123.62094103619812
H          124.91252203978239      121.05689249635675      124.16559787495092
C          123.85547040222144      123.71220880150658      123.92951076847579
H          124.06157928874893      122.70100069212236      125.81188930928676
H          125.38462428765551      123.79672887488890      125.42422086487734
C          122.79702055150408      122.76822017363445      123.36216179041840
H          123.35199541459019      124.57456679721155      124.37113756186953
H          124.49182486362864      124.07772296066101      123.12151092679780
N          121.78563365149442      123.46107134219996      122.59375365540104
H          123.26860602983501      122.01214535834232      122.72927766546958
H          122.27122636486450      122.26581861987721      124.17667834534259
O          125.34663141232197      118.10673042068221      128.05006632657441
C          120.48517592140588      123.31978439500473      122.84344548303068
H          122.09429320119412      124.07901454078025      121.85111617373403
C          119.55940638629585      124.10948503523352      121.94503688835917
C          119.65442995014904      125.61319117334781      122.21525332923524
H          119.83117578383425      123.91291588415966      120.90747847909239
H          118.54020618504759      123.76037652117765      122.11663213624300
C          119.26569627755887      125.97224806903598      123.64877755963536
H          120.67246740455812      125.95057073118646      122.01278897454594
H          118.99161325399893      126.13542020424960      121.52219721724225
C          119.30014286783984      127.48643084243665      123.89068006066572
H          118.26068829246846      125.60522404975526      123.86674706428322
H          119.95063287949675      125.48708869839830      124.34677563341025
C          118.34173542298791      128.18391851742533      122.94754015252489
H          119.01325257164568      127.69498470576332      124.92128612809933
H          120.30534538788673      127.87074655221024      123.71092081353086
N          117.05614788403075      128.07858990213782      123.27119125744967
O          120.06176824686314      122.58340042533803      123.73966900815913
C          115.98086788394713      128.47280301973987      122.39061044705227
H          116.78094005882370      127.56609088989231      124.10817878283923
C          114.95745202782003      127.35206115135271      122.23738569686913
H          115.48096341095118      129.36739603900745      122.77939845540902
H          116.42613712721506      128.72091895662439      121.42336302599894
C          115.56592276587487      126.08349297645348      121.64760489368962
H          114.54403423746888      127.11960813073006      123.22024330543887
H          114.15450050742848      127.72219651076595      121.59902953453646
C          114.50869939826470      125.00008176561734      121.44045894900478
H          116.04382312897248      126.32461936327535      120.69588840481153
H          116.33249912994143      125.71367879255199      122.33087166288612
C          115.10135499637111      123.61032440900441      121.21512001009651
H          113.86688167883835      124.96037925612343      122.32254684356565
H          113.88383993788000      125.26886492292525      120.58780251602495
C          116.04808528040422      123.57773466914759      120.02182321329245
H          115.64867668622955      123.29709442613343      122.10737765960481
H          114.28611082258286      122.90350422954904      121.05068659392197
N          116.51335756783165      122.23291024287059      119.75904104204025
H          115.54130422735062      123.93006311513628      119.12014881483034
H          116.90968762296559      124.22785253287356      120.20910348150721
C          116.77708527196897      121.79995447670620      118.52296022679852
H          116.76657421462895      121.67422842258058      120.56465892414809
O          118.73403502608856      128.77971937844225      121.94127173958542
C          117.25952875767227      120.36922812085704      118.42391569567944
C          116.10344963022710      119.43643577047031      118.04072573406847
H          118.01814609198374      120.32948003124078      117.63964068292549
H          117.69990006188688      120.05676827995259      119.37097727613232
C          116.64319182995426      118.06770390693404      117.63857364486343
H          115.42226578766781      119.33519879729673      118.88755420184287
H          115.54864029327950      119.87015146642520      117.20721586393057
C          115.53927698850920      117.07373887552438      117.26691422882170
H          117.31006070756668      118.18412177744389      116.78300118392882
H          117.22336407141103      117.66671148195584      118.46738571865380
C          116.17034704012632      115.72481676365615      116.98207199060823
H          114.83336486673308      116.96626554346712      118.09138185745640
H          115.00967773900305      117.42524874362968      116.38393197895994
N          116.79568027665880      115.62963666927497      115.80883073276790
C          117.53297962104780      114.44800541581859      115.41545403807463
H          116.75007713429500      116.41182877403992      115.16568161710615
O          116.61306821438063      122.50038837148939      117.52484200867144
C          118.99689248374182      114.75639253117151      115.08132761701195
H          117.48230668220256      113.76208562486750      116.26534470091131
H          117.03320335174031      113.98369491248370      114.56206119064072
C          119.90443745075719      113.54064283905188      115.28112569086228
H          119.07164109020998      115.11817039937240      114.05512792709393
H          119.34397846647551      115.55431010992575      115.74206600707723
C          119.58363732913762      112.37599545730153      114.34371289798180
H          120.93970896030797      113.84650832213116      115.11524028399575
H          119.81159073286685      113.21807476061153      116.31881074024301
C          120.43069403693393      111.13517618796214      114.64565202687123
H          118.52970159275741      112.11211917977397      114.43183514102230
H          119.77625489708599      112.69838472067910      113.32031732030227
C          119.89074829128867      110.36751548143114      115.84903596096487
H          120.43461037602434      110.47317506088515      113.77938111823536
H          121.45877423986430      111.44860159525105      114.83637756561313
N          120.75204210450875      109.25262580907430      116.20208150312405
H          119.78568564470353      111.03345990295834      116.71177566878904
H          118.90314690353895      109.95327724545074      115.63173035463210
C          120.29507813596784      108.15837975859566      116.83579825884343
H          121.74196465183110      109.37356526349542      116.05438136609533
O          116.14607166855383      114.80716063029890      117.80324180872542
C          121.33246985461642      107.09534911939386      117.15287825306747
C          121.23586304033219      106.67522229941035      118.62040515740931
H          121.09516022617018      106.23431055963624      116.52716518053357
H          122.33861622196952      107.43665182855507      116.91631951142759
C          121.81048003168114      105.29233124090513      118.92011009869952
H          121.75215502634587      107.40824473295734      119.24576559590906
H          120.18336674243197      106.67828760979243      118.90813668141216
C          121.05853519122817      104.14036766263230      118.23592118015782
H          122.86481604578182      105.24111915853337      118.64573668906185
H          121.75734202650494      105.14248564440059      119.99958833607469
C          119.56557002068310      104.28704855676831      118.45442593549467
H          121.26870632108530      104.11600803826971      117.16798825330839
H          121.39253399558531      103.20281823957249      118.68205713759950
N          118.87613855189224      104.61803241709568      117.36651415425696
O          119.11197861799913      108.01536314984710      117.11341989009362
C          117.49034994859466      105.03369026842786      117.36152730763219
H          119.36721099263642      104.71053124703138      116.48320875891324
C          116.82035454882144      104.65288092794005      116.04386188222261
H          116.99625383176010      104.57625356947273      118.22195542848237
H          117.45928617226515      106.12435756187699      117.47944004691900
C          115.58579484856281      105.50124004094509      115.74654272540840
H          117.54698194750448      104.81369561060903      115.24541179057890
H          116.56210997366118      103.59288235555886      116.04331283735063
C          114.39369983130182      105.20828449619407      116.65766141755034
H          115.85405288850258      106.55481128458503      115.84481006460206
H          115.29056134536084      105.33081792881856      114.70997790574202
C          113.19598792162365      106.06812162490189      116.25402825992654
H          114.12360377593832      104.15247785191900      116.58660289362125
H          114.66114318862454      105.41866061397155      117.69349095139994
C          111.97948414938212      105.88790476634433      117.15103824443214
H          113.49193747414817      107.11948654803956      116.27775062570399
H          112.90137509604688      105.81504762229658      115.23591689072788
N          112.25403692276436      106.35678176383810      118.49409132051647
H          111.12026869412045      106.42972307567445      116.73169619937327
H          111.69567038301733      104.83418261889923      117.22599140759927
C          111.53614623705940      105.94338021282945      119.54231253669897
H          112.90785021612855      107.12218170780103      118.58392219393419
O          119.04290749286112      104.12616436061599      119.56153911989290
C          111.92561165309559      106.46161013030448      120.90955173302510
C          113.23161539422034      107.24062313458049      120.98230305951094
H          111.09633144244931      107.07728006631953      121.26991508604647
H          111.97263186024927      105.58409836546353      121.56171251643471
C          113.54999788015671      107.64222017753974      122.41892072664668
H          114.04697525456390      106.62866368451463      120.59562519634596
H          113.17942169288844      108.14510933066036      120.37431103929923
C          114.84220812701146      108.46214002381214      122.48279092116935
H          112.72208842037168      108.22997001244278      122.82045442523308
H          113.66016574130887      106.75013576518850      123.04052288352003
C          115.02932877059781      108.98262840759054      123.89009971364344
H          115.68382050524293      107.83287093403290      122.20498135535047
H          114.77791678281837      109.30258212631365      121.79030991421156
N          115.77457750101826      108.20652970579179      124.67331682612456
C          115.95610583174269      108.45035492533567      126.08990963825465
H          116.18145481768370      107.35400362819459      124.29962513849777
O          110.60392111319220      105.14874642807564      119.41861803577851
C          116.91834805964207      107.42336654736111      126.66913595094603
H          116.32197926201637      109.47192732841748      126.23065484372080
H          114.98445364116462      108.37872136350785      126.59463735143538
C          117.04196890963732      107.53106853000975      128.18657562912821
H          116.55037592595427      106.42747389476723      126.41391993776570
H          117.89896527273046      107.53173280128539      126.20677754761488
C          117.71866572761552      108.81274991529889      128.67166798230568
H          116.04160987435482      107.46748965196785      128.62130389555918
H          117.61804500007453      106.67909655159626      128.55117579174777
C          119.11417924757421      108.99694402037794      128.07425989344819
H          117.10138992450479      109.67756282277703      128.42692714434980
H          117.80342578452310      108.75884566823107      129.75817539726964
C          120.02233409576102      109.82797676603415      128.96397225356228
H          119.57950271456333      108.02144127308678      127.92658461756629
H          119.03727815396542      109.48500475819098      127.10215452123283
N          119.54810641954272      111.19354165383507      129.08561230451724
H          120.08347445514787      109.39503861435234      129.96907906657057
H          121.03771001629426      109.84881363825797      128.55378933253388
C          120.16350660393050      112.06967277098319      129.87854126908411
H          118.76896540175922      111.47558125150783      128.50379316195782
O          114.48970537959380      110.01817503691171      124.28178074309452
C          119.59102080590328      113.47018926391971      129.88210607162313
C          119.64556793488426      114.11251835759082      128.49588362297288
H          118.55812053932456      113.43451808471079      130.23059923047447
H          120.17343021957680      114.06233916674353      130.59089971707826
C          119.15172707821358      115.55540357921240      128.53819689778379
H          120.67392225243404      114.08617863189120      128.12373322355197
H          119.02188342945345      113.54388802861207      127.80604694275698
C          119.36789529154406      116.25665500240871      127.19648991784528
H          118.09167262790719      115.56138961986085      128.79482804716622
H          119.67686431433485      116.10813851164738      129.31899955223977
C          118.52384877500278      117.51786607654240      127.09937904725668
H          120.42616459618559      116.50299467521101      127.08094970186181
H          119.07447860501962      115.59421354045432      126.37911200368629
N          118.76265986946312      118.43603325057789      128.03766537597821
O          121.14773796629044      111.76654304321458      130.55677677795541
C          117.97137421797873      119.63957481677518      128.16650953407293
H          119.46590453781462      118.27977954116864      128.75206954056810
C          117.77840669336049      120.00640643260375      129.63357257408470
H          118.45978577309651      120.46609986446013      127.63561901694852
H          117.01059829609851      119.45487030606290      127.67869928296726
C          116.96456747659209      121.28939265256551      129.77927765133654
H          117.27823600879087      119.18419916288084      130.15011879281400
H          118.75971742418554      120.13502457222515      130.09642833898528
C          116.90874148780587      121.78158188209908      131.22332442723049
H          117.40689206682006      122.06003661736675      129.14652950527372
H          115.94584769679371      121.11543572079458      129.43087478491668
C          116.00431296306320      123.00503664081651      131.39055963800845
H          116.52547236879658      120.97709240440403      131.85594173268299
H          117.91951708803778      122.01153708669148      131.57114999735089
C          116.56204765521738      124.29376893472933      130.76640763855815
H          115.03562659396341      122.79196340839252      130.93688130626563
H          115.83700815515208      123.18413793992183      132.45706050208420
N          117.72454446710886      124.86233125961267      131.43281988422638
H          116.84028804623622      124.11599002092073      129.72629648447128
H          115.77612208862492      125.05436419585010      130.77184331110476
H          117.49798091849361      125.06226031493479      132.40122865524515
H          118.47952465281105      124.18502331913932      131.43474358460483
O          117.67934959510677      117.65786370251851      126.22028123136917
C          103.67585389682164      107.24629801436534      130.72725301183073
C          105.14727581523086      107.09385332682663      130.41853244821826
C          102.80491210320322      106.26899352450452      129.92961538592081
C          102.91214412685176      106.47750704037973      128.41998172519015
H          103.09708409575060      105.24699031158679      130.17651284656390
H          101.76515940149773      106.40436496089421      130.23333733067219
C          101.82073791653201      105.70594608841749      127.66477151054440
H          102.82514975067363      107.54066534433716      128.18451139905284
H          103.89182193271182      106.14012194882825      128.07388251721281
C          100.47241697040137      106.39517682568354      127.81389187335643
H          102.08028484375528      105.64831875229274      126.61030983891871
H          101.74084260658495      104.69678914759965      128.06984557087083
N          100.26304572493255      107.40039255505492      126.95501624817643
O          105.66060838323595      105.95008576059435      130.79609984284340
O          105.79877254814903      107.97288455249441      129.88710369993535
H          106.65093207411869      105.87218324207110      130.58220616892888
H          103.38632521559397      108.27404588227243      130.50468913576159
H          103.53588998611211      107.05394011211210      131.79174857465688
C           99.10935573334261      108.27580629983471      127.05983855097942
H          101.00900026025856      107.67368639221081      126.31880535887406
C           98.84552154679187      109.07837862853469      125.78969824011060
H           98.24711158716151      107.65460990690455      127.31933071215779
H           99.27114746373799      108.97287450609673      127.89273860107166
C           98.20458609250421      108.28316357769027      124.64965767293300
H           98.18161677092816      109.90437697656041      126.04828656821206
H           99.78433804350981      109.51790427835375      125.44875743851732
C           97.65828632372293      109.22977693389942      123.57800656217621
H           98.93716890559666      107.60802919375755      124.20537554640791
H           97.38950984901972      107.67202059015335      125.04107417836029
C           97.21335177820178      108.51750795534900      122.30136325446065
H           96.81454797594044      109.78332734066086      123.99252599573586
H           98.42761944882939      109.96097667930491      123.32571839217816
C           96.71658820241227      109.51619464179799      121.25578453713761
H           98.05062921623771      107.96007689716127      121.87586675354628
H           96.41602460040639      107.80835717094759      122.52879751238069
N           96.28244435360020      108.85427885541050      120.04568321970636
H           95.86021177798868      110.08194125861669      121.63195091154121
H           97.51530927440423      110.22863677182130      121.01735504561306