3536
 energy: -3716.250568575485 gnorm: 0.000780390434 xtb: 6.6.1 (8d0f1dd)
C           59.76304346718568       64.75404369541808       52.77579906076116
C           59.44286149531406       63.72582167344405       53.85690311082306
C           60.62987504456532       62.78137604477968       54.03098863013568
C           58.17979863669601       62.92224044225822       53.52370404010652
C           56.88210316707244       63.73621132778497       53.47523346792750
C           56.59084799023887       64.39074190838022       54.82642180374036
C           55.67471239744905       62.87076797172045       53.08315093329144
C           55.73139060038350       62.16916478825273       51.72081859970415
C           55.96499234389820       63.16946935751426       50.59049517055646
C           54.41810547598487       61.41339954463886       51.46329566774101
C           54.26952607347950       60.06769515983017       52.19102091868776
C           55.07054187249111       58.98395322403908       51.47438076659020
C           52.77756791930733       59.71311742677430       52.24549914984433
C           52.38261791704507       58.36379113884650       52.86409221932124
C           50.87472170274130       58.18931867674909       52.68613724083463
C           52.77714634244546       58.29957973771297       54.34276514331538
C           52.52484176600669       56.96680005090935       55.06457493108943
C           52.65868632474945       57.18538327124385       56.57155504790214
C           53.50085827800232       55.89394254189641       54.56842151882152
C           53.30899868745016       54.49162462791060       55.15684484917959
C           54.47248610864084       53.59620204014880       54.72601871022608
C           51.91961351091806       53.87756011331967       54.89099666390885
C           51.28283808867356       54.01613330550171       53.49786801728842
C           49.80494349197092       53.63567464884741       53.60094582367771
C           51.98897333555797       53.15701385916751       52.44670832242818
C           51.46061175466217       53.25363638797112       51.00582683048640
C           52.32934756000242       52.34896387218699       50.13380071890165
C           51.48345262034818       54.71037121848086       50.52353295035132
C           51.33806348129397       54.95848439877395       49.01466579120315
C           51.51694720303480       56.45768487553888       48.76829284382100
C           49.98776142946513       54.46990851074176       48.47479556678259
C           49.88925404365257       54.44043360648667       46.94184199238665
C           48.42535346143384       54.41172258837305       46.50568862179784
C           50.62916080251587       53.23529242222065       46.34849336621371
C           51.06141868397504       53.44340497709558       44.88850940275551
C           51.31465800097521       52.08603142938934       44.23449298201039
C           52.31176869646622       54.33989756120555       44.82731734895858
C           52.34820197827478       55.44562459468028       43.75980668088174
C           51.27462374061411       56.50407053880502       44.01474080524709
C           52.23128749283551       54.93820400219278       42.31930932631250
C           53.37924034664679       54.05665716794454       41.81048428314054
C           54.71656565983970       54.79386598308110       41.84354246876303
C           53.05675599725003       53.59835529768812       40.37798869031749
C           53.74754882414992       52.29469401946379       39.95013146410267
C           53.75957884829312       52.19745826918148       38.42531519555104
C           53.03087274673922       51.09151632209837       40.57390765967573
C           53.78186113276848       49.75531611325755       40.51720466145584
C           52.88590168887738       48.66095907978931       41.09993808698614
C           55.12691832507780       49.81538399520213       41.26531299494918
C           56.34652094221676       49.76369982371683       40.33626489642185
C           56.57028511590254       48.33331871415900       39.84793571042613
C           57.60977770355578       50.28428051300601       41.03695634354359
C           57.70007163571915       51.81142453079408       41.12298010102712
C           57.90118810149441       52.42987353667792       39.73855633269925
C           58.85658271672860       52.27625492894050       42.01873546483360
C           58.82313190107654       51.85292326532249       43.49323745159968
C           57.46501669171897       52.14344290308561       44.13113405081636
C           59.90688319109480       52.60618908036313       44.27994199431657
C           61.35873145481681       52.21990470329199       43.96764942489309
C           61.71656092686533       50.90489220911210       44.65551760732363
C           62.31333086452766       53.33339300104331       44.42290615869905
C           63.67548192302404       53.34556089887847       43.71244873832753
C           64.68453892687813       54.11295746501008       44.56428566999718
C           63.54190730170992       53.97511641086849       42.31951491636051
C           64.80258690342640       53.86779659796154       41.43890623600056
C           65.41274497996487       55.24703763316855       41.19202807604896
C           64.49818713911230       53.18936794537584       40.09516239265961
C           64.26374771381784       51.67677774507089       40.21976374015239
C           65.59742004578473       50.94009229859401       40.31778309284337
C           63.43338910738419       51.14692314639985       39.04247141008428
C           62.80314674976882       49.76473539591674       39.27966670427366
C           62.30430304093009       49.19820207326227       37.95023333676990
C           61.66161334682064       49.86461794040157       40.30467399316995
C           61.54384726535549       48.73423113020429       41.34055600527324
C           62.85476661081623       48.52554831504447       42.09825633946941
C           61.03094060176188       47.42582584945752       40.72844262149098
C           60.53899705977675       46.40491051077361       41.76601709271073
C           60.41230405607111       45.02529961256736       41.12013024158620
C           59.19471917320485       46.82944031538422       42.37221124064526
C           58.95288585642655       46.34635618625015       43.80945820072737
C           57.47821435314522       46.55995736414526       44.15541511355156
C           59.86212327759758       47.08798262438413       44.80753440938745
C           60.58252955147761       46.22443463228429       45.85506298619435
C           61.63056276749669       45.31908308023220       45.20951334037697
C           59.61655292994237       45.40601182558194       46.72099723253957
C           60.19378478661935       45.04774999082906       48.10139888198034
C           59.57014132221931       43.75658126665739       48.62538247862018
C           59.96824025140661       46.20532395670981       49.08032753783490
C           60.73681416033224       46.07928484414737       50.39314474554853
C           60.54948295871596       47.31605262401998       51.26260886670455
H           58.97919471965070       65.50278462583913       52.70727184803945
H           60.69636359179934       65.26623214570789       53.00307127462877
H           59.86689741538740       64.26959456385104       51.80659035418211
H           60.95812120278764       48.19403098802398       50.76662460751984
H           59.49213329522185       47.49121750341462       51.44903419692842
H           61.05294956970773       47.19621412587858       52.21917425291066
H           60.26592952872019       47.13883885751084       48.59629846972707
H           58.90011281618593       46.27875861961775       49.30138373030817
H           58.69548634024173       45.97247155361965       46.87271065449880
H           59.35365201077544       44.49033315433799       46.18659144739031
H           61.11252978758181       46.92531855931868       46.51128242880408
H           62.10698164163877       44.68829206519858       45.95652298196861
H           61.18266256295904       44.66777858257368       44.46251098096058
H           62.40684039228259       45.91125384809579       44.72901803274423
H           60.63130144004367       47.63125135575598       44.25593644839266
H           59.26614591008153       47.83673270673476       45.33417396707863
H           59.10968898796195       47.91699679252085       42.36503284318505
H           58.39812068877083       46.44253441726237       41.73177752994195
H           61.27321512848943       44.88618199970477       48.00086298489660
H           60.03616265756455       43.45092797690226       49.55841852899365
H           58.50671481834760       43.89503425294548       48.80195348808022
H           59.69673494308200       42.94708303663909       47.90874846993830
H           59.15889072991644       45.27272395727392       43.85173140905088
H           57.25622949082145       46.21909693397966       45.16290881942543
H           57.22549787843091       47.61681270018205       44.08764829161886
H           56.83776989618775       46.01397883886585       43.46451040425237
H           61.28471365885407       46.33197477228732       42.55982893569981
H           61.38050732113246       44.66525910681294       40.77813427292146
H           60.01361030732082       44.30309855256446       41.82952097049735
H           59.74170976025499       45.06520832416721       40.26306968042368
H           60.20452263634294       47.64524316721098       40.04666534816182
H           61.83129620440832       46.97188828750224       40.13945052908348
H           60.79653686953507       49.08198390940391       42.06316667999560
H           62.68634317984716       47.98063806166893       43.02366837733621
H           63.56658862395606       47.95756792987657       41.50510162004052
H           63.30338826927390       49.48221120875374       42.35144761545443
H           61.78180860795292       50.79286410904179       40.86635383259681
H           60.71330861047708       49.94483116118199       39.76661350392870
H           63.57602077720723       49.09364354850999       39.65781374257568
H           61.57799722294468       49.87175668564178       37.49761922987822
H           63.13015215392943       49.07270779847276       37.25196317682715
H           61.83050189129969       48.23077466202697       38.09359981279486
H           62.62651040292117       51.85159680358874       38.82107002303059
H           64.07281569868741       51.10268922142695       38.15684265716936
H           63.71034229975506       51.49927273968844       41.14609868435996
H           66.16093248651472       51.04249254268937       39.39158221186081
H           66.19915172571230       51.34629748739160       41.12720248893637
H           65.44561394719565       49.88126536804888       40.51155331275793
H           63.61619587516827       53.66720565138241       39.66058469566536
H           65.32850383511477       53.36037088431549       39.40472251364518
H           65.54835775473738       53.25937696925546       41.96038228655664
H           66.34271499173292       55.15903840762930       40.63233869363386
H           64.72724950727088       55.86827942302487       40.61810724190735
H           65.62673965163636       55.75213959985208       42.13066143421411
H           62.70328301377597       53.50383543073876       41.80483425598567
H           63.27911647751583       55.02819247155720       42.44280284275607
H           64.03232753070236       52.31519191380205       43.59745824415459
H           65.65908913649197       54.15107861222718       44.08342289523003
H           64.34169519028913       55.13257169219688       44.72326469699853
H           64.80280201744586       53.64051204587481       45.53746978198139
H           61.84378934899542       54.30541114504829       44.25740569398353
H           62.47135322803470       53.22790115768403       45.49828362187372
H           61.46660381381766       52.08928889083312       42.88727602918425
H           62.74839921926434       50.62825326049598       44.45417867211245
H           61.59392545779369       50.99782570327415       45.73287089854621
H           61.07813483001583       50.09703240252260       44.30919683845725
H           59.77026384752251       53.67413048604160       44.09128797600584
H           59.74088062848008       52.44374389119614       45.34585035288628
H           59.01680819732260       50.77783271077511       43.56661246227008
H           57.19786874542479       53.18979211517097       43.99672952912255
H           56.68325236995182       51.52841123663249       43.69326942049504
H           57.49782756167679       51.93390356559965       45.19812764641448
H           59.78628708503635       51.92105182376644       41.57054856296576
H           58.87634860250393       53.36979997904494       41.98547660824323
H           56.76465972484053       52.20139550600749       41.53358122036835
H           57.07248294059085       52.20652161025008       39.07164667549408
H           57.98049320414356       53.51130196020556       39.81784057080909
H           58.81560175231158       52.05293824459800       39.28308839337879
H           57.63953853769697       49.85868019857316       42.04133360023948
H           58.48948510818803       49.91927150744231       40.50168116686896
H           56.14553773915944       50.38745373377419       39.46110611825874
H           56.81131938689154       47.68363897117332       40.68612835027816
H           55.67837648613803       47.94482891991800       39.36091471524833
H           57.39065423013423       48.29197194139213       39.13366801383101
H           55.15986533766991       50.72762951555347       41.86180960840618
H           55.19669915600962       48.97740812626535       41.96283869517264
H           53.96805111054249       49.50451559022407       39.46803894241305
H           53.37552972469268       47.69114931161695       41.04176782682802
H           52.66098796118199       48.87153595507392       42.14372621913432
H           51.94589514601803       48.60149253933913       40.55461507899774
H           52.82471923522323       51.30612268788321       41.62400201363976
H           52.06632070536890       50.96975304743720       40.07329992228609
H           54.78295675943451       52.31703376594479       40.29687109521756
H           54.22522543226777       51.27218270340506       38.09390020491058
H           52.74408688021632       52.22500826125920       38.03386810299811
H           54.31491026462172       53.02855688947373       37.99413810738267
H           51.97739514025440       53.45889692260251       40.27300750791337
H           53.34351476141225       54.39734576954749       39.68970269260743
H           53.46168170887095       53.17671334493885       42.45366292717269
H           55.48138098918306       54.21800215032130       41.32738822131342
H           54.62965665778899       55.76232437097474       41.35367587576910
H           55.05261104883079       54.95333982019188       42.86492074316082
H           51.29597166409690       54.38505069270681       42.22200375431368
H           52.15813817928293       55.80631332177207       41.65692226774927
H           53.31775768413577       55.94718998050826       43.86354041904949
H           50.27574453231159       56.09105602721211       43.89763707868873
H           51.36342856121323       56.90955329753093       45.02042818206637
H           51.38209594219037       57.32705387977705       43.31176817096414
H           52.41951674698966       54.83915697835317       45.79273714481065
H           53.19093221545373       53.70421789404828       44.70169723685127
H           50.23890333528198       53.92571912632617       44.35254941213644
H           51.51559989176747       52.19713027054330       43.17291011846071
H           52.16505377204551       51.59062351333901       44.69917901107127
H           50.44665956369977       51.43862642339049       44.34448485971239
H           51.52067530554979       53.01172583247784       46.93788616501138
H           49.97362672832575       52.36265589925429       46.41422794633063
H           50.33536036715257       55.35497433149302       46.54481867121573
H           48.34528764135653       54.36842986134395       45.42110817055981
H           47.92273199319627       53.53903760527031       46.91674289133365
H           47.90264342806119       55.30251641408645       46.84319875709511
H           49.78330791099525       53.46518376551367       48.85026710749089
H           49.20733249896227       55.12699710997373       48.86821189338796
H           52.14389355429233       54.43515751647207       48.49148173215676
H           50.72513160604134       57.02008754594694       49.25990795646021
H           52.47087732981106       56.79581094050172       49.16851319264040
H           51.49906019339890       56.69511088128136       47.70764964738181
H           50.68858065381443       55.26233879381787       51.02959109503872
H           52.43615617048928       55.14762153772409       50.83538643506308
H           50.43461498492664       52.87283382881449       50.97353238354721
H           53.32432585136909       52.77327289368363       50.01981035230570
H           52.42608680535698       51.36976046208414       50.59725563751906
H           51.89603075051858       52.21047231518888       49.14749662170296
H           53.04064278364929       53.43794305066470       52.41496863897585
H           51.93699206813631       52.11080694781006       52.76282704172156
H           51.34229047997532       55.06291042912262       53.19468163740719
H           49.30885636492744       54.21614562819930       54.37664691774999
H           49.29077886149422       53.82086512584749       52.66138188977302
H           49.69698105741587       52.58071933782612       53.84763265108221
H           51.96403331961643       52.81468885685480       55.14809185178523
H           51.22695685065867       54.34104575758858       55.59985341493193
H           53.39105716157472       54.57220668900552       56.24714304195074
H           55.40474678952970       53.99724083100404       55.12082247317613
H           54.34788051852183       52.58721093300557       55.11240825821024
H           54.57297636677077       53.54162333013063       53.64690382117220
H           53.43606719476466       55.82545345062205       53.48156646156630
H           54.51695223955306       56.22151096520075       54.81254772125652
H           51.50092708351620       56.64075006727677       54.86967221350277
H           53.67680334841462       57.47395313125089       56.82984160505880
H           51.98444823051157       57.97168047107593       56.90589833238528
H           52.40729640160985       56.28297988540642       57.12187872647733
H           53.84105929278292       58.52989281112865       54.43074948509567
H           52.22618953066030       59.08632698647948       54.86522520743024
H           52.88539823073135       57.56378976996255       52.31340381230025
H           50.60298699393956       58.27644974852632       51.63648335212520
H           50.54316883232129       57.21690007892460       53.03901705790803
H           50.33751071870386       58.95539306446251       53.24265034031499
H           52.25708499019668       60.50199039530379       52.79607667580223
H           52.40244201899057       59.72968195462479       51.22004104460779
H           54.65543105914042       60.17442973433984       53.20861570796993
H           54.61501254302983       58.75020298690199       50.51324289458704
H           56.09176280172085       59.31361024974234       51.29616954176620
H           55.11443539762770       58.07304011888489       52.06449586614107
H           53.58899733954432       62.06769444190053       51.74454650164354
H           54.32582842973916       61.22422678489492       50.39094819350930
H           56.55574295591673       61.44906512870471       51.71913166597022
H           56.93284192497648       63.65379831274652       50.68582122631886
H           55.93468677719027       62.66445524417686       49.62747775643479
H           55.19316701926106       63.93671407036788       50.59883803862726
H           55.52453291370157       62.11596296854072       53.85750764615615
H           54.79143145324240       63.51615672972001       53.09015718006346
H           56.98425975537595       64.53120416128070       52.73171893989397
H           55.62493218635542       64.88895507508522       54.80433119754895
H           56.57598385989488       63.64364901055529       55.61805858450499
H           57.34093063971538       65.13624787729785       55.07720838534308
H           58.33730449639033       62.44140969987603       52.55624992438481
H           58.06487344810114       62.13158861971835       54.26994153519014
H           59.29513556426122       64.25319002683885       54.80450396713847
H           60.80251451408063       62.21212728596288       53.11972479148707
H           61.53120276517750       63.34772511546853       54.25953612621202
H           60.45382792299095       62.08292443482488       54.84627647300686
H           60.39133105608283       45.20186968933657       50.94287182723500
H           61.79953107428886       45.94058069188103       50.18070006561204
C           57.76860122421380       63.97682370360781       67.42640896314246
C           58.34616612746778       62.86975374427583       68.30865293476850
C           59.87055302051411       62.92321273711813       68.27024974842145
C           57.79880880671401       61.51383846566309       67.84466267288025
C           58.31559337158142       60.26537089496123       68.57526568447290
C           57.70335357283833       59.02984982050489       67.91634934805239
C           57.97439785327064       60.31287887206544       70.06880200388692
C           58.64178664884203       59.24796140631494       70.95481973216164
C           57.96702485855396       59.27735450781000       72.32690345907953
C           60.14762726164226       59.51061997060521       71.06939792011875
C           60.96611720836892       58.50889370584308       71.89707005815822
C           62.39709089580688       59.03999660735278       72.01949676936744
C           60.99161531041191       57.09789268475694       71.28351997130238
C           59.98636180553542       56.09825250378213       71.87166339330642
C           60.38246519666935       55.70912164692891       73.29629213053002
C           59.92113984264792       54.82683057386910       71.01236593772713
C           59.22882309669069       54.99276898823097       69.65444964333820
C           57.71314796227792       55.09583860592668       69.81474455634059
C           59.57993185936018       53.82500561466178       68.72019783912847
C           59.40804794531986       54.15772147372973       67.22740074542304
C           58.69679438705168       53.01544334859300       66.50694847861674
C           60.75035585270783       54.42724109905250       66.53704851680243
C           61.56598561884104       55.59808986237904       67.09899485766037
C           60.88688894755603       56.93162297623343       66.79812905298709
C           62.97914731525452       55.55629290892126       66.50251297447808
C           64.00238627177404       56.50607707451814       67.13898230181080
C           65.27088134725891       56.52361992485722       66.28704669934213
C           64.28723671330771       56.20078840910136       68.61965969182917
C           64.90963175688836       54.82868969754750       68.93511777138315
C           64.32042576135304       54.27506299028281       70.23291808895591
C           66.43811920311130       54.92396711783256       69.04145611507978
C           67.19728916166970       53.59869424507270       68.87386462742526
C           68.64767046739962       53.80957241837085       69.31052623268124
C           67.13128227411075       53.12297761785626       67.41712295340186
C           67.66256020549976       51.70838484548383       67.13481025320381
C           68.31981827796758       51.69253907787902       65.75278166026314
C           66.57470120491591       50.62457849931184       67.17727404703265
C           65.96829860132917       50.30638407252962       68.54865408245139
C           67.04144729525208       49.84003774568209       69.53434301937338
C           64.90837014552538       49.19804767658880       68.43499291116065
C           63.61527924550565       49.54701341680728       67.68851795694370
C           62.90114538356264       50.72869613534922       68.34671479916743
C           62.65975725403569       48.34221057656171       67.66732597912497
C           63.13364548174093       47.10913620830255       66.88885091535926
C           63.28026259710773       47.41258323042022       65.39825688387664
C           62.14204220367511       45.94596552030852       67.03890110820363
C           61.92353072249372       45.38426769352508       68.44881562772609
C           63.24525109644583       45.02509307094977       69.12814012274119
C           61.04919266293562       44.12073559714712       68.39413194065091
C           59.63841268724997       44.28623104081997       67.81242744135967
C           58.80195435241467       45.23653044745286       68.66505005493710
C           58.97384983247605       42.90549465360368       67.71692001278554
C           57.68597453591792       42.84272962663537       66.88371407092480
C           57.07118598582830       41.44885507769261       67.02407201537071
C           57.94143183799604       43.16869240131038       65.40126336688959
C           57.52406299456931       44.58369484751005       64.97420502294663
C           56.00431907928472       44.67666057545852       64.87935036840314
C           58.18221249173301       44.93718570536464       63.63439562871539
C           58.04410447148435       46.40145377036927       63.19933984666279
C           58.63970413694527       46.56673549428228       61.80216370640594
C           58.71591259123674       47.35668559048602       64.20302471154289
C           57.70897125550535       48.15023340999363       65.05011545903659
C           57.17627558973669       49.33187168259268       64.24384735043728
C           58.36521167666992       48.59298619062488       66.36228834994647
C           57.50787749011776       49.45629985786771       67.30009311075294
C           58.31030396996845       49.72603217514031       68.57338057321066
C           56.16160155276281       48.79389214508383       67.61341535188778
C           55.24446733403511       49.55975097580621       68.57806292771409
C           53.95722671625622       48.76355370346874       68.79597778553615
C           54.94070661315097       51.00372484077093       68.14616723636433
C           54.18085056260993       51.18043056302095       66.81431529469380
C           54.92797141018824       52.15888413281701       65.90829079326896
C           52.75094646588698       51.67361543850682       67.07674783406321
C           51.82716700212575       51.66777808787900       65.85039879527477
C           50.65303214517534       52.61572850315464       66.09661243489229
C           51.32791683675570       50.25052252645906       65.51341796381861
C           51.43959278640862       49.86864316355859       64.03057345746974
C           50.65122991746924       50.84514345894004       63.15996661836837
C           50.92978746733633       48.43184333694962       63.79248455597752
C           51.99246954947571       47.33172266955039       63.63456336275110
C           52.82183631011868       47.16475724954405       64.90543658131803
C           52.88767213397822       47.57644737784062       62.41150738344374
C           53.62296359816983       46.33284531952761       61.88303363379163
C           54.81505019711187       46.76494698195266       61.03002981864947
C           52.67110451820578       45.44241559550336       61.07471584227297
C           53.30199855593646       44.18687557606366       60.45891768178499
C           52.26384089278996       43.45466113674033       59.61014305638494
C           53.94194202547002       43.24088185490595       61.48443737853935
C           53.02214302848935       42.78047807328642       62.61363057972674
C           53.66647088145655       41.67314972424541       63.43938663396081
H           56.68140694361377       63.97185503978984       67.46574580790291
H           58.11627020043496       64.95290002025652       67.75954399057358
H           58.07892328690443       63.83879049843716       66.39241450077181
H           54.60186884740009       42.01136278059894       63.88031850132273
H           53.00564126314119       41.35956495575348       64.24523288336880
H           53.87891997857220       40.80793935337786       62.81551491838925
H           54.30190254856323       42.35854604498318       60.94795541662941
H           54.81836631827021       43.72660120045828       61.91961269885697
H           51.83151939717379       45.14047018200387       61.70360425444171
H           52.25839741108149       46.04177092354220       60.25718959058898
H           54.00170579347494       45.76542936943915       62.73745502140506
H           55.41797959702346       47.49989061471430       61.55705885961503
H           55.45714649132756       45.92117737381718       60.79301258285162
H           54.47607383622911       47.20896814803735       60.09686245178149
H           52.28281080332848       47.99233531954908       61.60202861315427
H           53.63351914162380       48.32843433439692       62.67729032560444
H           50.26902465532784       48.15080383706772       64.61586495148062
H           50.32011529565123       48.41933078438078       62.88607224902196
H           54.10320634569382       44.50464150941063       59.78118203035775
H           51.86114071385077       44.11677534644765       58.84835430776085
H           52.71015149014724       42.59639681015160       59.11101860590154