3536
 energy: -3716.231379143726 gnorm: 0.000989384145 xtb: 6.6.1 (8d0f1dd)
C           59.76341190208019       64.75401527572538       52.77547407753787
C           59.44296186071831       63.72621097370195       53.85707546002727
C           60.62971535806403       62.78093252213056       54.03100140136718
C           58.17990656184237       62.92204974723225       53.52362934011744
C           56.88229439120891       63.73671449839171       53.47487082644914
C           56.59121512768676       64.39089074321583       54.82646459178014
C           55.67464455832952       62.87071791823250       53.08344587089348
C           55.73184309074543       62.16882165401427       51.72092161180147
C           55.96460372993344       63.16972778500308       50.59075332983446
C           54.41787890870931       61.41359825007689       51.46350543552339
C           54.26965123357080       60.06789925277580       52.19191334117708
C           55.07024991300117       58.98389939581187       51.47451913419992
C           52.77721792124607       59.71375688309249       52.24549943434179
C           52.38276516649588       58.36367555022284       52.86348354864310
C           50.87453748202289       58.18981551222015       52.68608587426233
C           52.77720124662420       58.29968904740187       54.34252640985608
C           52.52375446258790       56.96658352498741       55.06418031566673
C           52.65858283297412       57.18522622523639       56.57128436037656
C           53.50046858912782       55.89393876697799       54.56794404058538
C           53.30842191807427       54.49166140541966       55.15720850516252
C           54.47260287526085       53.59667868140042       54.72640497678144
C           51.91900315746079       53.87753407538634       54.89078527052968
C           51.28275374828052       54.01706516027759       53.49721523380941
C           49.80495688545352       53.63555246322004       53.60052049648331
C           51.98913287234480       53.15703863643561       52.44640179862256
C           51.45976104214171       53.25328706641727       51.00559323175990
C           52.32890896875563       52.34884067271106       50.13351498345013
C           51.48299218660824       54.71030295230025       50.52328746265579
C           51.33809557029303       54.95770725609858       49.01392307951732
C           51.51676071156140       56.45728464957041       48.76813302635406
C           49.98746809487520       54.46942566794267       48.47414804154300
C           49.88939190653645       54.44057750246404       46.94077668723571
C           48.42510045997498       54.41172658025514       46.50531854669982
C           50.62919852644243       53.23463832336154       46.34819881701109
C           51.06124156719047       53.44266416906874       44.88784270960831
C           51.31477885038171       52.08510632741570       44.23423786976205
C           52.31192599289870       54.33940594660405       44.82698343624676
C           52.34806365432387       55.44512931131386       43.75879209053241
C           51.27408935609429       56.50346600894722       44.01382378262888
C           52.23070927247927       54.93714840742101       42.31855722878322
C           53.37925210888432       54.05582229195863       41.81036094497779
C           54.71627523486020       54.79436703590404       41.84349145968113
C           53.05691558682204       53.59804177659140       40.37764230748111
C           53.74846967744921       52.29452282237977       39.95031102229641
C           53.75970821292623       52.19753821488788       38.42575815225975
C           53.03109168431249       51.09149937144456       40.57408888786340
C           53.78221723141272       49.75539587756725       40.51710914584039
C           52.88660298205443       48.66146982276216       41.10055945743331
C           55.12731114639455       49.81563281620976       41.26539627032589
C           56.34662065346169       49.76400299626354       40.33559373637185
C           56.57049188718688       48.33357317012571       39.84821896319743
C           57.61004409910734       50.28427012484943       41.03658047474312
C           57.69965182759421       51.81169122962408       41.12245665678046
C           57.90178571233937       52.43018208096014       39.73815677737645
C           58.85675163810450       52.27670278183430       42.01785434715205
C           58.82324921648707       51.85265560866442       43.49226278970362
C           57.46491615676300       52.14311214578980       44.13061864440278
C           59.90679896317059       52.60614031356211       44.27970237203770
C           61.35882469541910       52.21943928229834       43.96729791688961
C           61.71656682570310       50.90445777901918       44.65577625392306
C           62.31343909928485       53.33336483160394       44.42232510487294
C           63.67567898988593       53.34525433299239       43.71124653802643
C           64.68453452208701       54.11292804700182       44.56354842305984
C           63.54212207729870       53.97526141964838       42.31840621860967
C           64.80343785296770       53.86724086703214       41.43817687695338
C           65.41368261790895       55.24656235652350       41.19073158278960
C           64.49793943241632       53.18873484797948       40.09477334964856
C           64.26347172620858       51.67607569797195       40.22030887135455
C           65.59772047359910       50.93985725119457       40.31735185412380
C           63.43326835832310       51.14644882358249       39.04273710102461
C           62.80398254639802       49.76384938262888       39.27979833469690
C           62.30433976075092       49.19822522051148       37.95064798574028
C           61.66172137361594       49.86432573829323       40.30426243344129
C           61.54342074836489       48.73405006820313       41.34053388227262
C           62.85503816198786       48.52535830933336       42.09800301014013
C           61.03099278038464       47.42549841584584       40.72821423861362
C           60.54006198653813       46.40458482651611       41.76635479467343
C           60.41276989999996       45.02550880020069       41.12005270620477
C           59.19510090646769       46.82912332546153       42.37188194144311
C           58.95268726560230       46.34562091535398       43.80900588797395
C           57.47794431813823       46.55986098606856       44.15509405404193
C           59.86208335074134       47.08749763356688       44.80717551076633
C           60.58335387777470       46.22427734624408       45.85497472798134
C           61.63105658205805       45.31875408050239       45.20900237688162
C           59.61695506718574       45.40527684654279       46.72041200846481
C           60.19441029611888       45.04628999154988       48.10071760366302
C           59.57064019623530       43.75509447710790       48.62470390932955
C           59.96815678397373       46.20399969590419       49.07989895851978
C           60.73720902404200       46.07741960303136       50.39273977703716
C           60.54939840604586       47.31437804517220       51.26252770576620
H           58.97928130849755       65.50228279968718       52.70734476301151
H           60.69657032820151       65.26529766989907       53.00377666210776
H           59.86759040185483       64.26880052937247       51.80672693452364
H           60.95801391094666       48.19263508782525       50.76679240471580
H           59.49209660753790       47.49018529582876       51.44891516928135
H           61.05243858827005       47.19451597937623       52.21927405968858
H           60.26541755230605       47.13801906892672       48.59660174372751
H           58.90026497870800       46.27713925839235       49.30153687984058
H           58.69597840345087       45.97174398767979       46.87218763063942
H           59.35562012959098       44.49000759220593       46.18597523114069
H           61.11226405175905       46.92630503091789       46.51077378788990
H           62.10615315604365       44.68776507792325       45.95624450338086
H           61.18208247574670       44.66921989455094       44.46171000074285
H           62.40722521146624       45.91188513850084       44.72970063486592
H           60.63160160902675       47.63059545886449       44.25591906506706
H           59.26662220089582       47.83684745734524       45.33389122381529
H           59.10931811606553       47.91664406123624       42.36540912721738
H           58.39929015551962       46.44124078118062       41.73208992616215
H           61.27321964462303       44.88617473335951       48.00062073452729
H           60.03714220082458       43.45033872769103       49.55766056275954
H           58.50731507897840       43.89426204849212       48.80117086540908
H           59.69795638279987       42.94673152162581       47.90770175003751
H           59.15895048113899       45.27292380690896       43.85216703714785
H           57.25580776987644       46.21964156551861       45.16282936402235
H           57.22537150903095       47.61699743866238       44.08758783773550
H           56.83799523347729       46.01405528202202       43.46421494596017
H           61.28552639545163       46.33267965046301       42.56029383997008
H           61.38097115337722       44.66609459040333       40.77821360873283
H           60.01400556899727       44.30395196971524       41.82971225649889
H           59.74204220363201       45.06727703546404       40.26370900478327
H           60.20438951750798       47.64508352247625       40.04766060071802
H           61.83175947811560       46.97237372646116       40.14020724840597
H           60.79667632812424       49.08197673330045       42.06367551604075
H           62.68747661027751       47.98151577066596       43.02445825167651
H           63.56568601835278       47.95661690152267       41.50467379780471
H           63.30422043978253       49.48213200973358       42.35027964254728
H           61.78097618173291       50.79265683509063       40.86619687715848
H           60.71398232924669       49.94316294594265       39.76590437991357
H           63.57640302515408       49.09319578601180       39.65866635581341
H           61.57828283313690       49.87257710109222       37.49955762237887
H           63.13020399655263       49.07322177932186       37.25293780032759
H           61.83068389232575       48.23093853230021       38.09433863310191
H           62.62619637661234       51.85061281308757       38.82224483402122
H           64.07320179693954       51.10202065642769       38.15842117487246
H           63.71060823793552       51.49880193171683       41.14710514315032
H           66.15939033514438       51.04267266162837       39.39063525103825
H           66.19989667415572       51.34644548366180       41.12629061700247
H           65.44555183937995       49.88124737080680       40.51152903266349
H           63.61611007858666       53.66702581534772       39.66138849485633
H           65.32862935924111       53.35900227540597       39.40584880617526
H           65.54768942094920       53.25886794591421       41.96089438327638
H           66.34293687341068       55.15690338481630       40.63102170548799
H           64.72770326003548       55.86707600116213       40.61710845112603
H           65.62832051093015       55.75220919274773       42.12928354463021
H           62.70332454944074       53.50395372841313       41.80465148456722
H           63.27969948087186       55.02806125118325       42.44310232581553
H           64.03174756413900       52.31529090807916       43.59777323194104
H           65.65847908079841       54.15096767125808       44.08222302033451
H           64.34130806381145       55.13245440275390       44.72247793051241
H           64.80244049478404       53.64023846970746       45.53681429691436
H           61.84334853853619       54.30501426550943       44.25678252862779
H           62.47152343832276       53.22794617033719       45.49779762739409
H           61.46628460518563       52.08900371481315       42.88775495831639
H           62.74851993596631       50.62870719280811       44.45488246366310
H           61.59334573382665       50.99738553091106       45.73328294979542
H           61.07810658527824       50.09703897334035       44.30911280974971
H           59.77051178930554       53.67413961286336       44.09157852635131
H           59.74079815709691       52.44341782639163       45.34570377583820
H           59.01702659043824       50.77835044656661       43.56690428836074
H           57.19741731105648       53.18944581191894       43.99616828648088
H           56.68387959687068       51.52734577037642       43.69297507832703
H           57.49824816501413       51.93387887322022       45.19785018107179
H           59.78625516382341       51.92123338333096       41.57044298520437
H           58.87628468368220       53.37008174607773       41.98615203830347
H           56.76513624769552       52.20172625453880       41.53441624962178
H           57.07312372399773       52.20607164708676       39.07218741494909
H           57.98073265606232       53.51149494719335       39.81845686737868
H           58.81654117577004       52.05285654066336       39.28461733453288
H           57.64001689003953       49.85900727165792       42.04114802748533
H           58.48954472290329       49.92057568931271       40.50108472459313
H           56.14605909461060       50.38835429333793       39.46167861673627
H           56.81091719876362       47.68459647070134       40.68704492287021
H           55.67840232990797       47.94612717560635       39.36166104113073
H           57.39093912725347       48.29284496715844       39.13458988930402
H           55.16003940116844       50.72736747739354       41.86312844926893
H           55.19725178488931       48.97749090239092       41.96264930835378
H           53.96867867894026       49.50510109288216       39.46885602335537
H           53.37665132509848       47.69214749098224       41.04186250138441
H           52.66236787957133       48.87180201620479       42.14485906029291
H           51.94662426046121       48.60257693055949       40.55570730498832
H           52.82467381449536       51.30574083603096       41.62436742856963
H           52.06742814245096       50.96987070272712       40.07285009923979
H           54.78324124819213       52.31742964606327       40.29830916860399
H           54.22511885198936       51.27234159937542       38.09518094009787
H           52.74383984700214       52.22512045694193       38.03634628060163
H           54.31463790178242       53.02893012646865       37.99512170925463
H           51.97794229475665       53.45847403644915       40.27368315376506
H           53.34423471583532       54.39740036908995       39.69083174080292
H           53.46284588636072       53.17665104522926       42.45422703210841
H           55.48078517714011       54.21885030609221       41.32687993990589
H           54.62869864890831       55.76315171804463       41.35471339684684
H           55.05338405395738       54.95320733034758       42.86494896258142
H           51.29557243171543       54.38431632001155       42.22234284326233
H           52.15847411279337       55.80555777716233       41.65750580041659
H           53.31745692719613       55.94607805067225       43.86306939075018
H           50.27563203271224       56.08997879224265       43.89667580833777
H           51.36306385482654       56.90885512027022       45.01974458383359
H           51.38242391414731       57.32593014112881       43.31080272709742
H           52.41971129351394       54.83857936578491       45.79260260466351
H           53.19092921369590       53.70373862076239       44.70130338665584
H           50.23942582976678       53.92590748055753       44.35321484594979
H           51.51579292573967       52.19796719181658       43.17324432381103
H           52.16538980685646       51.59065060568267       44.69935264557567
H           50.44669932828934       51.43852985440223       44.34480115815049
H           51.52053646667961       53.01196816248493       46.93796501432204
H           49.97315467256963       52.36307815750298       46.41455600743025
H           50.33589437256801       55.35485412434615       46.54466429459849
H           48.34594895002330       54.36914936341928       45.42113453537808
H           47.92388826783943       53.53883270723894       46.91700343972948
H           47.90337300805675       55.30263892774882       46.84376214212185
H           49.78391468554725       53.46499446254607       48.84953128144431
H           49.20813463210286       55.12706806719290       48.86786862157585
H           52.14391485656297       54.43465185657035       48.49186146569146
H           50.72459714773519       57.01870665130504       49.26015135907762
H           52.47058114948949       56.79505543335336       49.16871529319028
H           51.49858281363401       56.69400204170698       47.70763895796011
H           50.68808368630493       55.26235368916430       51.02868174711389
H           52.43581525163538       55.14708135368842       50.83479991158855
H           50.43456190773434       52.87327774140752       50.97440426018961
H           53.32350731711801       52.77419708684861       50.02002163954087
H           52.42553589953599       51.37026065731062       50.59778725919148
H           51.89482993885943       52.21118261794496       49.14778842642649
H           53.04060600996123       53.43819982514744       52.41443152932417
H           51.93615354496709       52.11165040655299       52.76289158078473
H           51.34281895311659       55.06335384398138       53.19398082939117
H           49.30944887867837       54.21617119649106       54.37626688412765
H           49.29177141873129       53.82090260658153       52.66073499904245
H           49.69908944426574       52.58082066415604       53.84735759585694
H           51.96387520759883       52.81498158295291       55.14643173144655
H           51.22642827454058       54.34111134487924       55.59896311982939
H           53.39013440198038       54.57309633733185       56.24671535637214
H           55.40387534381507       53.99890081219775       55.12189339961643
H           54.34725035759613       52.58813347357478       55.11291381453744
H           54.57278248617321       53.54276587428636       53.64732645097197
H           53.43547360770830       55.82520864089605       53.48145246365099
H           54.51565409817223       56.22150609586787       54.81322824507506
H           51.50039821534515       56.64102156650049       54.86903094817111
H           53.67691563047594       57.47346498390343       56.82784838309571
H           51.98435079414767       57.97141957212436       56.90506598438861
H           52.40726287578966       56.28242448410509       57.12056650398439
H           53.84098774868649       58.52884691293096       54.43026226797577
H           52.22599245004009       59.08591234404368       54.86456938499881
H           52.88573547780457       57.56457468917455       52.31312095027695
H           50.60350668675748       58.27708292415305       51.63647316599651
H           50.54363444302762       57.21748966626092       53.03934746207284
H           50.33878887841144       58.95628532044571       53.24302533209962
H           52.25664521998431       60.50197924514664       52.79612780823472
H           52.40296660261023       59.72952434739798       51.22005631259417
H           54.65491060047746       60.17454579760143       53.20903321280079
H           54.61365233197295       58.75108460961354       50.51396444045756
H           56.09103591012080       59.31419958378915       51.29629708821935
H           55.11380869082254       58.07327015471431       52.06488947399723
H           53.58898148328480       62.06734811920157       51.74503174419513
H           54.32641696691017       61.22348649675963       50.39169358421817
H           56.55530778286507       61.44869269455469       51.71906421403937
H           56.93246495626680       63.65334128668331       50.68699725721682
H           55.93409664589562       62.66417206069757       49.62823519858127
H           55.19241007876942       63.93628324688086       50.60054405617983
H           55.52458592647324       62.11616140108426       53.85775746359823
H           54.79190830035898       63.51612967509531       53.08936479870025
H           56.98389626368589       64.53060160027637       52.73113216054742
H           55.62518668512956       64.88858393019916       54.80387716668081
H           56.57685317786314       63.64293467268008       55.61711847694303
H           57.34161263348832       65.13596236896737       55.07653243099352
H           58.33721186330236       62.44130488101941       52.55636296045358
H           58.06446920372614       62.13227434393774       54.27035547784276
H           59.29466268743522       64.25282158508568       54.80429718512880
H           60.80139855009071       62.21168356679386       53.11958594253356
H           61.53057457576150       63.34769285928787       54.25887328677055
H           60.45361952720359       62.08287788744946       54.84665612502225
H           60.39163791072365       45.20069572284887       50.94257329733656
H           61.79956171209933       45.94040563231336       50.18026844899394
C           57.76895788176712       63.97633504973127       67.42609585606355
C           58.34666368495588       62.86944435006596       68.30866568654416
C           59.87114186482957       62.92244764516096       68.27039647351401
C           57.79883616695487       61.51349248658986       67.84487862895092
C           58.31589095318658       60.26530322473241       68.57625784662551
C           57.70352416662116       59.02958555968794       67.91681703915638
C           57.97400891204156       60.31283377020362       70.06954833289979
C           58.64174496357410       59.24739569828997       70.95478289097082
C           57.96682453888884       59.27700487928920       72.32654319593929
C           60.14749219256644       59.51125097162089       71.06975173875462
C           60.96547792239389       58.50925197150137       71.89749796738342
C           62.39632798560775       59.03989041523626       72.01970766455966
C           60.99143459220370       57.09843206923088       71.28345200146921
C           59.98586597391975       56.09900179628155       71.87181898496858
C           60.38353993730472       55.70961946470905       73.29557051081794
C           59.92118731744841       54.82731721863021       71.01294363834988
C           59.22906349618376       54.99378145220603       69.65495101763169
C           57.71306434548747       55.09590737995367       69.81461121503594
C           59.58065274850742       53.82542911077950       68.72130159356402
C           59.40814695016405       54.15830127277429       67.22861463966936
C           58.69690401578074       53.01566505904643       66.50805399495671
C           60.75049780705265       54.42734970749209       66.53744480770632
C           61.56615717908651       55.59844543231642       67.09955223559527
C           60.88704711573661       56.93212411947334       66.79835450973768
C           62.97936081831524       55.55641829374170       66.50265952377985
C           64.00253205719127       56.50648324031330       67.13982779206101
C           65.27105346585735       56.52361496424334       66.28737316046877
C           64.28736950301729       56.20021600382416       68.62023889301575
C           64.90943297032825       54.82757959310311       68.93483767376588
C           64.32009241904497       54.27500567899906       70.23301347687438
C           66.43807940349070       54.92334910394984       69.04159205612052
C           67.19691068153628       53.59781128027186       68.87457003500312
C           68.64736510448637       53.80887079295221       69.30994435034087
C           67.13053476483880       53.12265189790654       67.41742197307488
C           67.66208043990888       51.70799917068573       67.13567813105985
C           68.32041341330329       51.69216921486641       65.75391095510388
C           66.57418584283859       50.62397776975649       67.17788433578257
C           65.96792083833216       50.30634963687272       68.54984185774110
C           67.04160938721918       49.83951655204385       69.53436558159321
C           64.90830845819693       49.19755473149567       68.43601878372901
C           63.61544867008701       49.54680258285516       67.68881136423960
C           62.90099530304886       50.72855526048858       68.34717267044940
C           62.65923738067481       48.34222340419556       67.66810032031775
C           63.13322215777877       47.10892676433059       66.88999733831271
C           63.27988293455083       47.41203147760616       65.39892099597255
C           62.14139612275866       45.94580474005087       67.03951985433874
C           61.92323784059888       45.38422796887095       68.44972518083719
C           63.24543514897060       45.02502792293497       69.12761156912414
C           61.04938186878757       44.12049574074606       68.39390196926009
C           59.63878661382082       44.28660578041683       67.81156782961715
C           58.80250758291857       45.23672751915878       68.66489358401232
C           58.97414997374235       42.90571414764716       67.71686398963328
C           57.68580415400780       42.84318900693574       66.88450928493785
C           57.07150658069540       41.44929620055050       67.02377226013091
C           57.94128837285764       43.16846669640108       65.40179570466380
C           57.52402709206532       44.58378905122859       64.97548220585598
C           56.00414910614319       44.67669101111377       64.87953684164165
C           58.18256777686292       44.93663485643059       63.63545372605864
C           58.04390989119821       46.40090742512689       63.20025821139734
C           58.64058118519180       46.56586233930194       61.80308877695478
C           58.71611018410203       47.35638690729083       64.20385869097288
C           57.70894319304605       48.14991662889769       65.05117122448566
C           57.17639754510337       49.33163027969803       64.24410015364978
C           58.36537548037189       48.59302635191531       66.36326871326945
C           57.50742483516594       49.45693785647246       67.30040946952334
C           58.30983277091771       49.72551030734279       68.57397470188567
C           56.16121379310638       48.79360318368483       67.61323204562761
C           55.24440885810731       49.55976595926860       68.57810604162829
C           53.95723676192809       48.76378329175639       68.79569536817878
C           54.94063500114873       51.00387561234355       68.14677712693340
C           54.18087040412329       51.17982134277246       66.81474827872741
C           54.92807436336843       52.15908961458243       65.90881742948991
C           52.75098356435981       51.67332855857871       67.07731999385567
C           51.82765940895696       51.66787274429289       65.85037748034721
C           50.65318539589808       52.61568713439639       66.09738929655768
C           51.32802185554263       50.25023079427896       65.51407509029742
C           51.44043322150463       49.86794651452811       64.03123745131019
C           50.65119379357122       50.84446125802420       63.16062127678323
C           50.92975869202895       48.43115892986689       63.79314382445114
C           51.99231025671797       47.33062616585485       63.63560270731835
C           52.82203791162811       47.16437155191094       64.90622718062632
C           52.88742095543520       47.57613553167754       62.41223184906032
C           53.62262843530016       46.33213492234272       61.88392377376048
C           54.81488378787711       46.76466272067427       61.03068294721829
C           52.67073219733468       45.44205871689086       61.07511115284022
C           53.30258637565457       44.18659808677248       60.45933613910621
C           52.26370563667906       43.45475736905907       59.61072003839948
C           53.94176072981822       43.24069646517614       61.48572292836621
C           53.02122280928791       42.78068376394618       62.61477522852353
C           53.66623720822367       41.67303314361423       63.43966918796384
H           56.68193337015985       63.97168338729406       67.46656586521826
H           58.11787592709741       64.95178743545696       67.75870511345231
H           58.07828221753109       63.83795705269515       66.39159461202202
H           54.60144063389318       42.01146115997904       63.88050098628901
H           53.00489497491724       41.36009946250470       64.24476969806193
H           53.87830324987765       40.80868427869436       62.81487318055297
H           54.30076033459562       42.35887591364802       60.94861394759280
H           54.81841073172307       43.72677444066598       61.91970224644396
H           51.83185936249603       45.13999697505260       61.70405864129486
H           52.25863883058223       46.04206364737269       60.25790104176335
H           54.00162149652733       45.76538325840023       62.73759024395606
H           55.41780112800171       47.49975258496925       61.55767816248797
H           55.45668607202931       45.92095906015108       60.79343500509722
H           54.47596533281033       47.20896472874655       60.09750284450742
H           52.28289033319064       47.99214095894979       61.60263643860048
H           53.63382171363660       48.32758404190653       62.67774133515725
H           50.26981385218784       48.15093328004013       64.61673435255105
H           50.32036325189340       48.41956938951691       62.88670493973351
H           54.10345089871172       44.50524782581312       59.78201069525437
H           51.86133946240040       44.11759598771418       58.84936573749876
H           52.71060020851689       42.59711905125808       59.11187891361405