      -----------------------------------------------------------      
     |                   =====================                   |     
     |                           x T B                           |     
     |                   =====================                   |     
     |                         S. Grimme                         |     
     |          Mulliken Center for Theoretical Chemistry        |     
     |                    University of Bonn                     |     
      -----------------------------------------------------------      

   * xtb version 6.6.1 (8d0f1dd) compiled by 'stahn@M-Bot' on 2023-08-01

   xtb is free software: you can redistribute it and/or modify it under
   the terms of the GNU Lesser General Public License as published by
   the Free Software Foundation, either version 3 of the License, or
   (at your option) any later version.
   
   xtb is distributed in the hope that it will be useful,
   but WITHOUT ANY WARRANTY; without even the implied warranty of
   MERCHANTABILITY or FITNESS FOR A PARTICULAR PURPOSE.  See the
   GNU Lesser General Public License for more details.
   
   Cite this work as:
   * C. Bannwarth, E. Caldeweyher, S. Ehlert, A. Hansen, P. Pracht,
     J. Seibert, S. Spicher, S. Grimme, WIREs Comput. Mol. Sci., 2020, 11,
     e01493. DOI: 10.1002/wcms.1493
   
   for GFN2-xTB:
   * C. Bannwarth, S. Ehlert and S. Grimme., J. Chem. Theory Comput., 2019,
     15, 1652-1671. DOI: 10.1021/acs.jctc.8b01176
   for GFN1-xTB:
   * S. Grimme, C. Bannwarth, P. Shushkov, J. Chem. Theory Comput., 2017,
     13, 1989-2009. DOI: 10.1021/acs.jctc.7b00118
   for GFN0-xTB:
   * P. Pracht, E. Caldeweyher, S. Ehlert, S. Grimme, ChemRxiv, 2019, preprint.
     DOI: 10.26434/chemrxiv.8326202.v1
   for GFN-FF:
   * S. Spicher and S. Grimme, Angew. Chem. Int. Ed., 2020, 59, 15665-15673.
     DOI: 10.1002/anie.202004239
   
   for ALPB and GBSA implicit solvation:
   * S. Ehlert, M. Stahn, S. Spicher, S. Grimme, J. Chem. Theory Comput.,
     2021, 17, 4250-4261. DOI: 10.1021/acs.jctc.1c00471
   
   for DFT-D4:
   * E. Caldeweyher, C. Bannwarth and S. Grimme, J. Chem. Phys., 2017,
     147, 034112. DOI: 10.1063/1.4993215
   * E. Caldeweyher, S. Ehlert, A. Hansen, H. Neugebauer, S. Spicher,
     C. Bannwarth and S. Grimme, J. Chem. Phys., 2019, 150, 154122.
     DOI: 10.1063/1.5090222
   * E. Caldeweyher, J.-M. Mewes, S. Ehlert and S. Grimme, Phys. Chem. Chem. Phys.
     2020, 22, 8499-8512. DOI: 10.1039/D0CP00502A
   
   for sTDA-xTB:
   * S. Grimme and C. Bannwarth, J. Chem. Phys., 2016, 145, 054103.
     DOI: 10.1063/1.4959605
   
   in the mass-spec context:
   * V. Asgeirsson, C. Bauer and S. Grimme, Chem. Sci., 2017, 8, 4879.
     DOI: 10.1039/c7sc00601b
   * J. Koopman and S. Grimme, ACS Omega 2019, 4, 12, 15120-15133.
     DOI: 10.1021/acsomega.9b02011
   
   for metadynamics refer to:
   * S. Grimme, J. Chem. Theory Comput., 2019, 155, 2847-2862
     DOI: 10.1021/acs.jctc.9b00143
   
   for SPH calculations refer to:
   * S. Spicher and S. Grimme, J. Chem. Theory Comput., 2021, 17, 1701-1714
     DOI: 10.1021/acs.jctc.0c01306
   
   with help from (in alphabetical order)
   P. Atkinson, C. Bannwarth, F. Bohle, G. Brandenburg, E. Caldeweyher
   M. Checinski, S. Dohm, S. Ehlert, S. Ehrlich, I. Gerasimov, C. Hölzer
   A. Katbashev, J. Koopman, C. Lavigne, S. Lehtola, F. März, M. Müller,
   F. Musil, H. Neugebauer, J. Pisarek, C. Plett, P. Pracht, F. Pultar,
   J. Seibert, P. Shushkov, S. Spicher, M. Stahn, M. Steiner, T. Strunk,
   J. Stückrath, T. Rose, and J. Unsleber
   
 * started run on 2024/10/04 at 21:22:08.211     

           -------------------------------------------------
          |                Calculation Setup                |
           -------------------------------------------------

          program call               : /home/abt-grimme/AK-bin/xtb input.xyz --input input.inp --opt
          hostname                   : boar030.thch.uni-bonn.de
          coordinate file            : input.xyz
          omp threads                :                     8

   ID    Z sym.   atoms
    1    6 C      1-146, 294-300, 306, 309-314, 323-468, 616-622, 628,
                  631-636, 645-790, 938-944, 950, 953-958, 967-1112,
                  1260-1266, 1272, 1275-1280, 1289-1434, 1582-1588, 1594,
                  1597-1602, 1611-1756, 1904-1910, 1916, 1919-1924,
                  1933-2078, 2226-2232, 2238, 2241-2246, 2255-2400,
                  2548-2554, 2560, 2563-2568, 2577-2722, 2870-2876, 2882,
                  2885-2890, 2899-3044, 3192-3198, 3204, 3207-3212,
                  3221-3366, 3514-3520, 3526, 3529-3534, 3543-3688,
                  3836-3842, 3848, 3851-3856
    2    1 H      147-293, 301-305, 307, 308, 315-322, 469-615, 623-627, 629,
                  630, 637-644, 791-937, 945-949, 951, 952, 959-966,
                  1113-1259, 1267-1271, 1273, 1274, 1281-1288, 1435-1581,
                  1589-1593, 1595, 1596, 1603-1610, 1757-1903, 1911-1915,
                  1917, 1918, 1925-1932, 2079-2225, 2233-2237, 2239, 2240,
                  2247-2254, 2401-2547, 2555-2559, 2561, 2562, 2569-2576,
                  2723-2869, 2877-2881, 2883, 2884, 2891-2898, 3045-3191,
                  3199-3203, 3205, 3206, 3213-3220, 3367-3513, 3521-3525,
                  3527, 3528, 3535-3542, 3689-3835, 3843-3847, 3849, 3850,
                  3857-3864

molecular fragmentation (1/2 indicates fragments):
111111111111111111111111111111111111111111111111111111111111111111111111
111111111111111111111111111111111111111111111111111111111111111111111111
111111111111111111111111111111111111111111111111111111111111111111111111
111111111111111111111111111111111111111111111111111111111111111111111111
111111111111111111111111111111111122222222222222222222222222222222222222
222222222222222222222222222222222222222222222222222222222222222222222222
222222222222222222222222222222222222222222222222222222222222222222222222
222222222222222222222222222222222222222222222222222222222222222222222222
222222222222222222222222222222222222222222222222222222222222222222222222
222222222222222222222222222222222222222222222222222222222222222222222222
222222222222222222222222222222222222222222222222222222222222222222222222
222222222222222222222222222222222222222222222222222222222222222222222222
222222222222222222222222222222222222222222222222222222222222222222222222
222222222222222222222222222222222222222222222222222222222222222222222222
222222222222222222222222222222222222222222222222222222222222222222222222
222222222222222222222222222222222222222222222222222222222222222222222222
222222222222222222222222222222222222222222222222222222222222222222222222
222222222222222222222222222222222222222222222222222222222222222222222222
222222222222222222222222222222222222222222222222222222222222222222222222
222222222222222222222222222222222222222222222222222222222222222222222222
222222222222222222222222222222222222222222222222222222222222222222222222
222222222222222222222222222222222222222222222222222222222222222222222222
222222222222222222222222222222222222222222222222222222222222222222222222
222222222222222222222222222222222222222222222222222222222222222222222222
222222222222222222222222222222222222222222222222222222222222222222222222
222222222222222222222222222222222222222222222222222222222222222222222222
222222222222222222222222222222222222222222222222222222222222222222222222
222222222222222222222222222222222222222222222222222222222222222222222222
222222222222222222222222222222222222222222222222222222222222222222222222
222222222222222222222222222222222222222222222222222222222222222222222222
222222222222222222222222222222222222222222222222222222222222222222222222
222222222222222222222222222222222222222222222222222222222222222222222222
222222222222222222222222222222222222222222222222222222222222222222222222
222222222222222222222222222222222222222222222222222222222222222222222222
222222222222222222222222222222222222222222222222222222222222222222222222
222222222222222222222222222222222222222222222222222222222222222222222222
222222222222222222222222222222222222222222222222222222222222222222222222
222222222222222222222222222222222222222222222222222222222222222222222222
222222222222222222222222222222222222222222222222222222222222222222222222
222222222222222222222222222222222222222222222222222222222222222222222222
222222222222222222222222222222222222222222222222222222222222222222222222
222222222222222222222222222222222222222222222222222222222222222222222222
222222222222222222222222222222222222222222222222222222222222222222222222
222222222222222222222222222222222222222222222222222222222222222222222222
222222222222222222222222222222222222222222222222222222222222222222222222
222222222222222222222222222222222222222222222222222222222222222222222222
222222222222222222222222222222222222222222222222222222222222222222222222
222222222222222222222222222222222222222222222222222222222222222222222222
222222222222222222222222222222222222222222222222222222222222222222222222
222222222222222222222222222222222222222222222222222222222222222222222222
222222222222222222222222222222222222222222222222222222222222222222222222
222222222222222222222222222222222222222222222222222222222222222222222222
222222222222222222222222222222222222222222222222222222222222222222222222
222222222222222222222222222222222222222222222222
# atoms in fragment 1/2:   322  3542
 fragment masses (1/2) :     2085.00    22935.05
CMA distance (Bohr)    :  30.060
constraining FC (au)   :  0.0500

           -------------------------------------------------
          |                 G F N 2 - x T B                 |
           -------------------------------------------------

        Reference                      10.1021/acs.jctc.8b01176
      * Hamiltonian:
        H0-scaling (s, p, d)           1.850000    2.230000    2.230000
        zeta-weighting                 0.500000
      * Dispersion:
        s8                             2.700000
        a1                             0.520000
        a2                             5.000000
        s9                             5.000000
      * Repulsion:
        kExp                           1.500000    1.000000
        rExp                           1.000000
      * Coulomb:
        alpha                          2.000000
        third order                    shell-resolved
        anisotropic                    true
        a3                             3.000000
        a5                             4.000000
        cn-shift                       1.200000
        cn-exp                         4.000000
        max-rad                        5.000000


          ...................................................
          :                      SETUP                      :
          :.................................................:
          :  # basis functions                9624          :
          :  # atomic orbitals                9624          :
          :  # shells                         5784          :
          :  # electrons                      9624          :
          :  max. iterations                   250          :
          :  Hamiltonian                  GFN2-xTB          :
          :  restarted?                      false          :
          :  GBSA solvation                  false          :
          :  PC potential                    false          :
          :  electronic temp.          300.0000000     K    :
          :  accuracy                    1.0000000          :
          :  -> integral cutoff          0.2500000E+02      :
          :  -> integral neglect         0.1000000E-07      :
          :  -> SCF convergence          0.1000000E-05 Eh   :
          :  -> wf. convergence          0.1000000E-03 e    :
          :  Broyden damping             0.4000000          :
          ...................................................

 iter      E             dE          RMSdq      gap      omega  full diag
   1  -5195.7424783 -0.519574E+04  0.370E+00    4.33       0.0  T
   2  -5198.2851536 -0.254268E+01  0.218E+00    4.31       1.0  T
   3  -5198.2122925  0.728611E-01  0.492E-01    4.13       1.0  T
   4  -5198.4190225 -0.206730E+00  0.241E-01    4.06       1.0  T
   5  -5198.5702470 -0.151224E+00  0.458E-02    4.13       1.0  T
   6  -5198.5722098 -0.196286E-02  0.282E-02    4.12       1.0  T
   7  -5198.5733329 -0.112311E-02  0.109E-02    4.13       1.0  T
   8  -5198.5736350 -0.302063E-03  0.282E-03    4.13       1.0  T
   9  -5198.5736513 -0.162805E-04  0.121E-03    4.13       1.3  T
  10  -5198.5736528 -0.152760E-05  0.520E-04    4.13       3.1  T
  11  -5198.5736530 -0.228863E-06  0.279E-04    4.13       5.8  T
  12  -5198.5736532 -0.170874E-06  0.101E-04    4.13      15.9  T

   *** convergence criteria satisfied after 12 iterations ***

         #    Occupation            Energy/Eh            Energy/eV
      -------------------------------------------------------------
         1        2.0000           -0.6528858             -17.7659
       ...           ...                  ...                  ...
      4806        2.0000           -0.3826871             -10.4134
      4807        2.0000           -0.3825943             -10.4109
      4808        2.0000           -0.3824385             -10.4067
      4809        2.0000           -0.3814923             -10.3809
      4810        2.0000           -0.3813862             -10.3780
      4811        2.0000           -0.3812196             -10.3735
      4812        2.0000           -0.3811604             -10.3719 (HOMO)
      4813                         -0.2294031              -6.2424 (LUMO)
      4814                         -0.2289782              -6.2308
      4815                         -0.2269517              -6.1757
      4816                         -0.2268671              -6.1734
      4817                         -0.2267825              -6.1711
       ...                                ...                  ...
      9624                          0.6818568              18.5543
      -------------------------------------------------------------
                  HL-Gap            0.1517572 Eh            4.1295 eV
             Fermi-level           -0.3052817 Eh           -8.3071 eV

 SCC (total)                   0 d,  0 h, 47 min, 43.386 sec
 SCC setup                      ...        0 min,  0.714 sec (  0.025%)
 Dispersion                     ...        0 min,  6.755 sec (  0.236%)
 classical contributions        ...        0 min,  0.152 sec (  0.005%)
 integral evaluation            ...        0 min, 11.720 sec (  0.409%)
 iterations                     ...       42 min,  8.877 sec ( 88.318%)
 molecular gradient             ...        4 min, 48.127 sec ( 10.062%)
 printout                       ...        0 min, 27.040 sec (  0.944%)

         :::::::::::::::::::::::::::::::::::::::::::::::::::::
         ::                     SUMMARY                     ::
         :::::::::::::::::::::::::::::::::::::::::::::::::::::
         :: total energy           -5104.054961508004 Eh    ::
         :: gradient norm              0.022083559152 Eh/a0 ::
         :: HOMO-LUMO gap              4.129524808106 eV    ::
         ::.................................................::
         :: SCC energy             -5198.573653215934 Eh    ::
         :: -> isotropic ES            0.263998224204 Eh    ::
         :: -> anisotropic ES          0.782404335059 Eh    ::
         :: -> anisotropic XC          3.252752461834 Eh    ::
         :: -> dispersion             -7.010877492551 Eh    ::
         :: repulsion energy          93.361040598701 Eh    ::
         :: add. restraining           0.000000000000 Eh    ::
         :: total charge              -0.000000000032 e     ::
         :::::::::::::::::::::::::::::::::::::::::::::::::::::

      ----------------------------------------------------------- 
     |              Fast Inertial Relaxation Engine              |
      ----------------------------------------------------------- 

          ...................................................
          :                      SETUP                      :
          :.................................................:
          :   energy convergence        0.5000000E-05 Eh    :
          :   grad. convergence         0.1000000E-02 Eh/a0 :
          :   optimization log               true           :
          :   writing optlog all                1     steps :
          :   Hessian reset                    20     steps :
          :   time step scaling                 5     steps :
          :   maximium step len.        1.0000000     a0    :
          :   initial time step         0.2500000     fs    :
          :   maximum time step         1.2500000     fs    :
          :   power reset thr           0.0000000     au    :
          :   alpha parameter           0.1000000           :
          :   BFGS update                   false           :
          :   preconditioning               false           :
          ...................................................

........................................................................
.............................. CYCLE    1 ..............................
........................................................................

 iter      E             dE          RMSdq      gap      omega  full diag
   1  -5198.5748043 -0.519857E+04  0.306E-04    4.13       0.0  T
   2  -5198.5748043 -0.144009E-07  0.189E-04    4.13       8.5  T
   3  -5198.5748043  0.282807E-07  0.819E-05    4.13      19.7  T
     SCC iter.                  ...       10 min, 38.937 sec
     gradient                   ...        4 min, 48.193 sec
 * total energy  : -5104.0550168 Eh     change    :  -0.5530304E-04 Eh
   gradient norm :     0.0206926 Eh/a0  converged?    E=F G=F D=F
   time step     :     0.2500000 fs     power     :   0.2840177E-08
   step length   :     0.0025881 a0     speed     :   0.2504170E-03

........................................................................
.............................. CYCLE    2 ..............................
........................................................................

 iter      E             dE          RMSdq      gap      omega  full diag
   1  -5198.5765109 -0.519858E+04  0.448E-04    4.13       0.0  T
   2  -5198.5765109 -0.277605E-07  0.275E-04    4.13       5.8  T
   3  -5198.5765109  0.430555E-07  0.102E-04    4.13      15.8  T
     SCC iter.                  ...       10 min, 36.812 sec
     gradient                   ...        4 min, 47.023 sec
 * total energy  : -5104.0550915 Eh     change    :  -0.7468253E-04 Eh
   gradient norm :     0.0187314 Eh/a0  converged?    E=F G=F D=F
   time step     :     0.2500000 fs     power     :   0.3761202E-08
   step length   :     0.0037999 a0     speed     :   0.3676641E-03

........................................................................
.............................. CYCLE    3 ..............................
........................................................................

 iter      E             dE          RMSdq      gap      omega  full diag
   1  -5198.5787598 -0.519858E+04  0.576E-04    4.13       0.0  T
   2  -5198.5787598 -0.431055E-07  0.354E-04    4.13       4.5  T
   3  -5198.5787597  0.659129E-07  0.124E-04    4.13      13.0  T
     SCC iter.                  ...       10 min, 35.553 sec
     gradient                   ...        4 min, 47.541 sec
 * total energy  : -5104.0551767 Eh     change    :  -0.8519165E-04 Eh
   gradient norm :     0.0163969 Eh/a0  converged?    E=F G=F D=F
   time step     :     0.2500000 fs     power     :   0.4195876E-08
   step length   :     0.0048930 a0     speed     :   0.4734228E-03

........................................................................
.............................. CYCLE    4 ..............................
........................................................................

 iter      E             dE          RMSdq      gap      omega  full diag
   1  -5198.5815382 -0.519858E+04  0.687E-04    4.13       0.0  T
   2  -5198.5815382 -0.569780E-07  0.423E-04    4.13       3.8  T
   3  -5198.5815381  0.100486E-06  0.148E-04    4.13      10.9  T
     SCC iter.                  ...       10 min, 35.862 sec
     gradient                   ...        4 min, 46.708 sec
 * total energy  : -5104.0552632 Eh     change    :  -0.8649950E-04 Eh
   gradient norm :     0.0139545 Eh/a0  converged?    E=F G=F D=F
   time step     :     0.2500000 fs     power     :   0.4149531E-08
   step length   :     0.0058378 a0     speed     :   0.5648364E-03

........................................................................
.............................. CYCLE    5 ..............................
........................................................................

 iter      E             dE          RMSdq      gap      omega  full diag
   1  -5198.5848313 -0.519858E+04  0.777E-04    4.13       0.0  T
   2  -5198.5848314 -0.675745E-07  0.481E-04    4.13       3.3  T
   3  -5198.5848312  0.147797E-06  0.172E-04    4.13       9.3  T
     SCC iter.                  ...       10 min, 35.882 sec
     gradient                   ...        4 min, 46.082 sec
 * total energy  : -5104.0553430 Eh     change    :  -0.7986050E-04 Eh
   gradient norm :     0.0117359 Eh/a0  converged?    E=F G=F D=F
   time step     :     0.2500000 fs     power     :   0.3716125E-08
   step length   :     0.0066107 a0     speed     :   0.6396233E-03

........................................................................
.............................. CYCLE    6 ..............................
........................................................................

 iter      E             dE          RMSdq      gap      omega  full diag
   1  -5198.5890359 -0.519859E+04  0.934E-04    4.13       0.0  T
   2  -5198.5890360 -0.901991E-07  0.582E-04    4.13       2.8  T
   3  -5198.5890357  0.278926E-06  0.228E-04    4.13       7.1  T
     SCC iter.                  ...       10 min, 38.049 sec
     gradient                   ...        4 min, 46.829 sec
 * total energy  : -5104.0554175 Eh     change    :  -0.7446643E-04 Eh
   gradient norm :     0.0099392 Eh/a0  converged?    E=F G=F D=F
   time step     :     0.2750000 fs     power     :   0.2972730E-08
   step length   :     0.0079801 a0     speed     :   0.7019255E-03

........................................................................
.............................. CYCLE    7 ..............................
........................................................................

 iter      E             dE          RMSdq      gap      omega  full diag
   1  -5198.5942539 -0.519859E+04  0.108E-03    4.13       0.0  T
   2  -5198.5942540 -0.110073E-06  0.683E-04    4.13       2.4  T
   3  -5198.5942535  0.478557E-06  0.292E-04    4.13       5.5  T
     SCC iter.                  ...       10 min, 39.514 sec
     gradient                   ...        4 min, 47.074 sec
 * total energy  : -5104.0554800 Eh     change    :  -0.6253785E-04 Eh
   gradient norm :     0.0089577 Eh/a0  converged?    E=F G=F D=F
   time step     :     0.3025000 fs     power     :   0.2090530E-08
   step length   :     0.0093098 a0     speed     :   0.7444415E-03

........................................................................
.............................. CYCLE    8 ..............................
........................................................................

 iter      E             dE          RMSdq      gap      omega  full diag
   1  -5198.6004441 -0.519860E+04  0.121E-03    4.13       0.0  T
   2  -5198.6004442 -0.128189E-06  0.769E-04    4.13       2.1  T
   3  -5198.6004435  0.707249E-06  0.355E-04    4.13       4.5  T
     SCC iter.                  ...       10 min, 34.167 sec
     gradient                   ...        4 min, 46.686 sec
 * total energy  : -5104.0555279 Eh     change    :  -0.4785005E-04 Eh
   gradient norm :     0.0086437 Eh/a0  converged?    E=F G=F D=F
   time step     :     0.3327500 fs     power     :   0.1283448E-08
   step length   :     0.0104631 a0     speed     :   0.7606021E-03

........................................................................
.............................. CYCLE    9 ..............................
........................................................................

 iter      E             dE          RMSdq      gap      omega  full diag
   1  -5198.6073448 -0.519861E+04  0.130E-03    4.13       0.0  T
   2  -5198.6073450 -0.150304E-06  0.830E-04    4.13       1.9  T
   3  -5198.6073441  0.836994E-06  0.397E-04    4.13       4.0  T
     SCC iter.                  ...       10 min, 33.403 sec
     gradient                   ...        4 min, 46.681 sec
 * total energy  : -5104.0555619 Eh     change    :  -0.3404275E-04 Eh
   gradient norm :     0.0084195 Eh/a0  converged?    E=F G=F D=F
   time step     :     0.3660250 fs     power     :   0.6514994E-09
   step length   :     0.0113644 a0     speed     :   0.7510190E-03

........................................................................
.............................. CYCLE   10 ..............................
........................................................................

 iter      E             dE          RMSdq      gap      omega  full diag
   1  -5198.6144636 -0.519861E+04  0.136E-03    4.13       0.0  T
   2  -5198.6144638 -0.173964E-06  0.858E-04    4.13       1.9  T
   3  -5198.6144630  0.811980E-06  0.409E-04    4.13       3.9  T
     SCC iter.                  ...       10 min, 35.859 sec
     gradient                   ...        4 min, 48.935 sec
 * total energy  : -5104.0555833 Eh     change    :  -0.2137098E-04 Eh
   gradient norm :     0.0081007 Eh/a0  converged?    E=F G=F D=F
   time step     :     0.4026275 fs     power     :   0.1460328E-09
   step length   :     0.0120155 a0     speed     :   0.7218610E-03

........................................................................
.............................. CYCLE   11 ..............................
........................................................................

 iter      E             dE          RMSdq      gap      omega  full diag
   1  -5198.6210639 -0.519862E+04  0.137E-03    4.13       0.0  T
   2  -5198.6210641 -0.181597E-06  0.846E-04    4.13       1.9  T
   3  -5198.6210635  0.642885E-06  0.377E-04    4.13       4.3  T
     SCC iter.                  ...       10 min, 33.529 sec
     gradient                   ...        4 min, 45.593 sec
 * total energy  : -5104.0555922 Eh     change    :  -0.8863948E-05 Eh
   gradient norm :     0.0081728 Eh/a0  converged?    E=F G=F D=F
   time step     :     0.4428903 fs     power     :  -0.2593914E-09
   step length   :     0.0123927 a0     speed     :   0.6768403E-03

........................................................................
.............................. CYCLE   12 ..............................
........................................................................
 * reset velocities

 iter      E             dE          RMSdq      gap      omega  full diag
   1  -5198.6208962 -0.519862E+04  0.601E-05    4.13       0.0  T
   2  -5198.6208962 -0.546061E-08  0.533E-05    4.13      30.2  T
   3  -5198.6208962 -0.116706E-07  0.191E-05    4.13      84.2  T
     SCC iter.                  ...       10 min, 37.024 sec
     gradient                   ...        4 min, 46.979 sec
 * total energy  : -5104.0555960 Eh     change    :  -0.3806334E-05 Eh
   gradient norm :     0.0080318 Eh/a0  converged?    E=T G=F D=T
   time step     :     0.2214451 fs     power     :   0.1808285E-09
   step length   :     0.0003758 a0     speed     :   0.4104492E-04

........................................................................
.............................. CYCLE   13 ..............................
........................................................................

 iter      E             dE          RMSdq      gap      omega  full diag
   1  -5198.6205515 -0.519862E+04  0.731E-05    4.13       0.0  T
   2  -5198.6205515 -0.122782E-08  0.509E-05    4.13      31.6  T
   3  -5198.6205515  0.263844E-08  0.222E-05    4.13      72.4  T
     SCC iter.                  ...       10 min, 35.797 sec
     gradient                   ...        4 min, 47.199 sec
 * total energy  : -5104.0556018 Eh     change    :  -0.5859602E-05 Eh
   gradient norm :     0.0077134 Eh/a0  converged?    E=F G=F D=T
   time step     :     0.2214451 fs     power     :   0.3442323E-09
   step length   :     0.0007450 a0     speed     :   0.8137987E-04

........................................................................
.............................. CYCLE   14 ..............................
........................................................................

 iter      E             dE          RMSdq      gap      omega  full diag
   1  -5198.6200333 -0.519862E+04  0.104E-04    4.13       0.0  T
   2  -5198.6200333 -0.241016E-08  0.737E-05    4.13      21.8  T
   3  -5198.6200333  0.454838E-08  0.321E-05    4.13      50.2  T
     SCC iter.                  ...       10 min, 32.868 sec
     gradient                   ...        4 min, 46.139 sec
 * total energy  : -5104.0556101 Eh     change    :  -0.8209799E-05 Eh
   gradient norm :     0.0072523 Eh/a0  converged?    E=F G=F D=F
   time step     :     0.2214451 fs     power     :   0.4772392E-09
   step length   :     0.0010996 a0     speed     :   0.1201079E-03

........................................................................
.............................. CYCLE   15 ..............................
........................................................................

 iter      E             dE          RMSdq      gap      omega  full diag
   1  -5198.6193472 -0.519862E+04  0.136E-04    4.13       0.0  T
   2  -5198.6193472 -0.403998E-08  0.956E-05    4.13      16.8  T
   3  -5198.6193472  0.774526E-08  0.413E-05    4.13      39.0  T
     SCC iter.                  ...       10 min, 37.408 sec
     gradient                   ...        4 min, 45.948 sec
 * total energy  : -5104.0556200 Eh     change    :  -0.9963930E-05 Eh
   gradient norm :     0.0066700 Eh/a0  converged?    E=F G=F D=F
   time step     :     0.2214451 fs     power     :   0.5705230E-09
   step length   :     0.0014326 a0     speed     :   0.1564878E-03

........................................................................
.............................. CYCLE   16 ..............................
........................................................................

 iter      E             dE          RMSdq      gap      omega  full diag
   1  -5198.6184999 -0.519862E+04  0.164E-04    4.13       0.0  T
   2  -5198.6184999 -0.575437E-08  0.115E-04    4.13      14.0  T
   3  -5198.6184999  0.116233E-07  0.497E-05    4.13      32.4  T
     SCC iter.                  ...       10 min, 35.561 sec
     gradient                   ...        4 min, 46.981 sec
 * total energy  : -5104.0556309 Eh     change    :  -0.1093145E-04 Eh
   gradient norm :     0.0059964 Eh/a0  converged?    E=F G=F D=F
   time step     :     0.2214451 fs     power     :   0.6189451E-09
   step length   :     0.0017381 a0     speed     :   0.1898538E-03

........................................................................
.............................. CYCLE   17 ..............................
........................................................................

 iter      E             dE          RMSdq      gap      omega  full diag
   1  -5198.6175000 -0.519862E+04  0.188E-04    4.13       0.0  T
   2  -5198.6175000 -0.716682E-08  0.132E-04    4.13      12.2  T
   3  -5198.6175000  0.159598E-07  0.571E-05    4.13      28.2  T
     SCC iter.                  ...       10 min, 35.621 sec
     gradient                   ...        4 min, 47.963 sec
 * total energy  : -5104.0556421 Eh     change    :  -0.1117453E-04 Eh
   gradient norm :     0.0052708 Eh/a0  converged?    E=F G=F D=F
   time step     :     0.2214451 fs     power     :   0.6221675E-09
   step length   :     0.0020107 a0     speed     :   0.2196277E-03

........................................................................
.............................. CYCLE   18 ..............................
........................................................................

 iter      E             dE          RMSdq      gap      omega  full diag
   1  -5198.6162284 -0.519862E+04  0.230E-04    4.13       0.0  T
   2  -5198.6162284 -0.104756E-07  0.162E-04    4.13       9.9  T
   3  -5198.6162284  0.253522E-07  0.707E-05    4.13      22.8  T
     SCC iter.                  ...       10 min, 34.670 sec
     gradient                   ...        4 min, 46.995 sec
 * total energy  : -5104.0556539 Eh     change    :  -0.1175154E-04 Eh
   gradient norm :     0.0044706 Eh/a0  converged?    E=F G=F D=F
   time step     :     0.2435896 fs     power     :   0.5786186E-09
   step length   :     0.0024966 a0     speed     :   0.2479212E-03

........................................................................
.............................. CYCLE   19 ..............................
........................................................................

 iter      E             dE          RMSdq      gap      omega  full diag
   1  -5198.6146440 -0.519861E+04  0.273E-04    4.13       0.0  T
   2  -5198.6146440 -0.139162E-07  0.193E-04    4.13       8.3  T
   3  -5198.6146440  0.382925E-07  0.848E-05    4.13      19.0  T
     SCC iter.                  ...       10 min, 37.238 sec
     gradient                   ...        4 min, 45.747 sec
 * total energy  : -5104.0556653 Eh     change    :  -0.1143259E-04 Eh
   gradient norm :     0.0036944 Eh/a0  converged?    E=F G=F D=F
   time step     :     0.2679486 fs     power     :   0.4870647E-09
   step length   :     0.0030247 a0     speed     :   0.2730502E-03

........................................................................
.............................. CYCLE   20 ..............................
........................................................................

 iter      E             dE          RMSdq      gap      omega  full diag
   1  -5198.6127179 -0.519861E+04  0.312E-04    4.13       0.0  T
   2  -5198.6127179 -0.167238E-07  0.221E-04    4.13       7.3  T
   3  -5198.6127178  0.553628E-07  0.985E-05    4.13      16.3  T
     SCC iter.                  ...       10 min, 37.309 sec
     gradient                   ...        4 min, 46.726 sec
 * total energy  : -5104.0556753 Eh     change    :  -0.9977328E-05 Eh
   gradient norm :     0.0031357 Eh/a0  converged?    E=F G=F D=F
   time step     :     0.2947435 fs     power     :   0.3596329E-09
   step length   :     0.0035654 a0     speed     :   0.2926000E-03
 * RMSD in coord.:     0.0012179 a0     energy gain  -0.7137763E-03 Eh

........................................................................
.............................. CYCLE   21 ..............................
........................................................................

 iter      E             dE          RMSdq      gap      omega  full diag
   1  -5198.6110074 -0.519861E+04  0.262E-04    4.13       0.0  T
   2  -5198.6110074 -0.998898E-08  0.183E-04    4.13       8.8  T
   3  -5198.6110073  0.418886E-07  0.823E-05    4.13      19.5  T
     SCC iter.                  ...       10 min, 40.213 sec
     gradient                   ...        4 min, 47.727 sec
 * total energy  : -5104.0556816 Eh     change    :  -0.6284298E-05 Eh
   gradient norm :     0.0029895 Eh/a0  converged?    E=F G=F D=F
   time step     :     0.2500000 fs     power     :   0.2632859E-09
   step length   :     0.0030879 a0     speed     :   0.2987677E-03

........................................................................
.............................. CYCLE   22 ..............................
........................................................................

 iter      E             dE          RMSdq      gap      omega  full diag
   1  -5198.6092954 -0.519861E+04  0.247E-04    4.13       0.0  T
   2  -5198.6092955 -0.747514E-08  0.172E-04    4.13       9.4  T
   3  -5198.6092954  0.402142E-07  0.793E-05    4.13      20.3  T
     SCC iter.                  ...       10 min, 35.913 sec
     gradient                   ...        4 min, 45.242 sec
 * total energy  : -5104.0556863 Eh     change    :  -0.4774429E-05 Eh
   gradient norm :     0.0032783 Eh/a0  converged?    E=T G=F D=F
   time step     :     0.2500000 fs     power     :   0.2003697E-09
   step length   :     0.0030664 a0     speed     :   0.2966932E-03

........................................................................
.............................. CYCLE   23 ..............................
........................................................................

 iter      E             dE          RMSdq      gap      omega  full diag
   1  -5198.6076663 -0.519861E+04  0.230E-04    4.13       0.0  T
   2  -5198.6076663 -0.523232E-08  0.156E-04    4.13      10.3  T
   3  -5198.6076663  0.322998E-07  0.712E-05    4.13      22.6  T
     SCC iter.                  ...       10 min, 35.815 sec
     gradient                   ...        4 min, 46.499 sec
 * total energy  : -5104.0556903 Eh     change    :  -0.3959659E-05 Eh
   gradient norm :     0.0032301 Eh/a0  converged?    E=T G=F D=F
   time step     :     0.2500000 fs     power     :   0.1663093E-09
   step length   :     0.0029831 a0     speed     :   0.2886314E-03

........................................................................
.............................. CYCLE   24 ..............................
........................................................................

 iter      E             dE          RMSdq      gap      omega  full diag
   1  -5198.6061747 -0.519861E+04  0.215E-04    4.13       0.0  T
   2  -5198.6061747 -0.343425E-08  0.140E-04    4.13      11.5  T
   3  -5198.6061747  0.193304E-07  0.563E-05    4.13      28.6  T
     SCC iter.                  ...       10 min, 34.805 sec
     gradient                   ...        4 min, 47.402 sec
 * total energy  : -5104.0556941 Eh     change    :  -0.3800164E-05 Eh
   gradient norm :     0.0774443 Eh/a0  converged?    E=T G=F D=F
   time step     :     0.2500000 fs     power     :   0.2564602E-09
   step length   :     0.0028805 a0     speed     :   0.2787028E-03

........................................................................
.............................. CYCLE   25 ..............................
........................................................................

 iter      E             dE          RMSdq      gap      omega  full diag
   1  -5198.6049132 -0.519860E+04  0.848E-04    4.13       0.0  T
   2  -5198.6049133 -0.136375E-06  0.524E-04    4.13       3.1  T
   3  -5198.6049132  0.109386E-06  0.271E-04    4.13       5.9  T
     SCC iter.                  ...       10 min, 37.058 sec
     gradient                   ...        4 min, 45.321 sec
 * total energy  : -5104.0556874 Eh     change    :   0.6712492E-05 Eh
   gradient norm :     0.0055954 Eh/a0  converged?    E=F G=F D=F
   time step     :     0.2500000 fs     power     :  -0.8706851E-09
   step length   :     0.0055277 a0     speed     :   0.5348303E-03

........................................................................
.............................. CYCLE   26 ..............................
........................................................................
 * reset velocities

 iter      E             dE          RMSdq      gap      omega  full diag
   1  -5198.6049209 -0.519860E+04  0.305E-05    4.13       0.0  T
   2  -5198.6049209 -0.147065E-08  0.209E-05    4.13      76.9  T
   3  -5198.6049209 -0.229102E-08  0.671E-06    4.13     239.9  T
     SCC iter.                  ...       10 min, 36.822 sec
     gradient                   ...        4 min, 46.070 sec
 * total energy  : -5104.0556881 Eh     change    :  -0.6636255E-06 Eh
   gradient norm :     0.0055546 Eh/a0  converged?    E=T G=F D=T
   time step     :     0.1250000 fs     power     :   0.4833362E-10
   step length   :     0.0000820 a0     speed     :   0.1586221E-04

........................................................................
.............................. CYCLE   27 ..............................
........................................................................

 iter      E             dE          RMSdq      gap      omega  full diag
   1  -5198.6049362 -0.519860E+04  0.220E-05    4.13       0.0  T
   2  -5198.6049362 -0.190084E-09  0.138E-05    4.13     116.3  T
   3  -5198.6049362 -0.818545E-11  0.749E-06    4.13     214.7  T
     SCC iter.                  ...       10 min, 36.161 sec
     gradient                   ...        4 min, 45.937 sec
 * total energy  : -5104.0556890 Eh     change    :  -0.8969891E-06 Eh
   gradient norm :     0.0054309 Eh/a0  converged?    E=T G=F D=T
   time step     :     0.1250000 fs     power     :   0.9416146E-10
   step length   :     0.0001633 a0     speed     :   0.3160875E-04

........................................................................
.............................. CYCLE   28 ..............................
........................................................................

 iter      E             dE          RMSdq      gap      omega  full diag
   1  -5198.6049592 -0.519860E+04  0.319E-05    4.13       0.0  T
   2  -5198.6049592 -0.213731E-09  0.202E-05    4.13      79.5  T
   3  -5198.6049592  0.000000E+00  0.109E-05    4.13     147.7  T
     SCC iter.                  ...       10 min, 34.995 sec
     gradient                   ...        4 min, 48.675 sec
 * total energy  : -5104.0556902 Eh     change    :  -0.1296527E-05 Eh
   gradient norm :     0.0052492 Eh/a0  converged?    E=T G=F D=T
   time step     :     0.1250000 fs     power     :   0.1352986E-09
   step length   :     0.0002429 a0     speed     :   0.4700352E-04

........................................................................
.............................. CYCLE   29 ..............................
........................................................................

 iter      E             dE          RMSdq      gap      omega  full diag
   1  -5198.6049896 -0.519860E+04  0.421E-05    4.13       0.0  T
   2  -5198.6049896 -0.608452E-09  0.265E-05    4.13      60.7  T
   3  -5198.6049896  0.436557E-10  0.141E-05    4.13     113.9  T
     SCC iter.                  ...       10 min, 37.365 sec
     gradient                   ...        4 min, 49.242 sec
 * total energy  : -5104.0556919 Eh     change    :  -0.1639195E-05 Eh
   gradient norm :     0.0050143 Eh/a0  converged?    E=T G=F D=T
   time step     :     0.1250000 fs     power     :   0.1700288E-09
   step length   :     0.0003198 a0     speed     :   0.6187914E-04

........................................................................
.............................. CYCLE   30 ..............................
........................................................................

 iter      E             dE          RMSdq      gap      omega  full diag
   1  -5198.6050274 -0.519861E+04  0.515E-05    4.13       0.0  T
   2  -5198.6050274 -0.711225E-09  0.325E-05    4.13      49.5  T
   3  -5198.6050274  0.691216E-10  0.173E-05    4.13      93.2  T
     SCC iter.                  ...       10 min, 37.000 sec
     gradient                   ...        4 min, 48.073 sec
 * total energy  : -5104.0556938 Eh     change    :  -0.1913375E-05 Eh
   gradient norm :     0.0047328 Eh/a0  converged?    E=T G=F D=T
   time step     :     0.1250000 fs     power     :   0.1970301E-09
   step length   :     0.0003931 a0     speed     :   0.7607786E-04

........................................................................
.............................. CYCLE   31 ..............................
........................................................................

 iter      E             dE          RMSdq      gap      omega  full diag
   1  -5198.6050722 -0.519861E+04  0.604E-05    4.13       0.0  T
   2  -5198.6050722 -0.116506E-08  0.380E-05    4.13      42.3  T
   3  -5198.6050722  0.213731E-09  0.202E-05    4.13      79.8  T
     SCC iter.                  ...       10 min, 38.806 sec
     gradient                   ...        4 min, 46.283 sec
 * total energy  : -5104.0556959 Eh     change    :  -0.2106399E-05 Eh
   gradient norm :     0.0044138 Eh/a0  converged?    E=T G=F D=T
   time step     :     0.1250000 fs     power     :   0.2154687E-09
   step length   :     0.0004623 a0     speed     :   0.8945466E-04

........................................................................
.............................. CYCLE   32 ..............................
........................................................................

 iter      E             dE          RMSdq      gap      omega  full diag
   1  -5198.6051298 -0.519861E+04  0.760E-05    4.13       0.0  T
   2  -5198.6051298 -0.166074E-08  0.480E-05    4.13      33.5  T
   3  -5198.6051298  0.365617E-09  0.254E-05    4.13      63.3  T
     SCC iter.                  ...       10 min, 34.644 sec
     gradient                   ...        4 min, 46.543 sec
 * total energy  : -5104.0556984 Eh     change    :  -0.2454618E-05 Eh
   gradient norm :     0.0040309 Eh/a0  converged?    E=T G=F D=T
   time step     :     0.1375000 fs     power     :   0.2254948E-09
   step length   :     0.0005862 a0     speed     :   0.1031261E-03

........................................................................
.............................. CYCLE   33 ..............................
........................................................................

 iter      E             dE          RMSdq      gap      omega  full diag
   1  -5198.6052025 -0.519861E+04  0.938E-05    4.13       0.0  T
   2  -5198.6052025 -0.245655E-08  0.593E-05    4.13      27.2  T
   3  -5198.6052025  0.647560E-09  0.313E-05    4.13      51.4  T
     SCC iter.                  ...       10 min, 37.956 sec
     gradient                   ...        4 min, 47.227 sec
 * total energy  : -5104.0557011 Eh     change    :  -0.2718326E-05 Eh
   gradient norm :     0.0035941 Eh/a0  converged?    E=T G=F D=T
   time step     :     0.1512500 fs     power     :   0.2245263E-09
   step length   :     0.0007300 a0     speed     :   0.1167396E-03

........................................................................
.............................. CYCLE   34 ..............................
........................................................................

 iter      E             dE          RMSdq      gap      omega  full diag
   1  -5198.6052932 -0.519861E+04  0.113E-04    4.13       0.0  T
   2  -5198.6052932 -0.346881E-08  0.716E-05    4.13      22.5  T
   3  -5198.6052932  0.971340E-09  0.376E-05    4.13      42.7  T
     SCC iter.                  ...       10 min, 35.739 sec
     gradient                   ...        4 min, 46.660 sec
 * total energy  : -5104.0557040 Eh     change    :  -0.2897687E-05 Eh
   gradient norm :     0.0031347 Eh/a0  converged?    E=T G=F D=T
   time step     :     0.1663750 fs     power     :   0.2108780E-09
   step length   :     0.0008928 a0     speed     :   0.1298046E-03

........................................................................
.............................. CYCLE   35 ..............................
........................................................................

 iter      E             dE          RMSdq      gap      omega  full diag
   1  -5198.6054042 -0.519861E+04  0.133E-04    4.13       0.0  T
   2  -5198.6054042 -0.462751E-08  0.843E-05    4.13      19.1  T
   3  -5198.6054042  0.193722E-08  0.440E-05    4.13      36.5  T
     SCC iter.                  ...       10 min, 32.879 sec
     gradient                   ...        4 min, 47.468 sec
 * total energy  : -5104.0557069 Eh     change    :  -0.2886281E-05 Eh
   gradient norm :     0.0027209 Eh/a0  converged?    E=T G=F D=F
   time step     :     0.1830125 fs     power     :   0.1850579E-09
   step length   :     0.0010717 a0     speed     :   0.1416490E-03

........................................................................
.............................. CYCLE   36 ..............................
........................................................................

 iter      E             dE          RMSdq      gap      omega  full diag
   1  -5198.6055373 -0.519861E+04  0.152E-04    4.13       0.0  T
   2  -5198.6055373 -0.543423E-08  0.960E-05    4.13      16.8  T
   3  -5198.6055373  0.325235E-08  0.496E-05    4.13      32.4  T
     SCC iter.                  ...       10 min, 32.948 sec
     gradient                   ...        4 min, 46.637 sec
 * total energy  : -5104.0557096 Eh     change    :  -0.2695228E-05 Eh
   gradient norm :     0.0024612 Eh/a0  converged?    E=T G=F D=F
   time step     :     0.2013138 fs     power     :   0.1515941E-09
   step length   :     0.0012596 a0     speed     :   0.1513495E-03

........................................................................
.............................. CYCLE   37 ..............................
........................................................................

 iter      E             dE          RMSdq      gap      omega  full diag
   1  -5198.6056915 -0.519861E+04  0.165E-04    4.13       0.0  T
   2  -5198.6056915 -0.548152E-08  0.105E-04    4.13      15.4  T
   3  -5198.6056915  0.515683E-08  0.533E-05    4.13      30.2  T
     SCC iter.                  ...       10 min, 33.609 sec
     gradient                   ...        4 min, 45.231 sec
 * total energy  : -5104.0557120 Eh     change    :  -0.2455272E-05 Eh
   gradient norm :     0.0024422 Eh/a0  converged?    E=T G=F D=F
   time step     :     0.2214451 fs     power     :   0.1198601E-09
   step length   :     0.0014449 a0     speed     :   0.1578265E-03

........................................................................
.............................. CYCLE   38 ..............................
........................................................................

 iter      E             dE          RMSdq      gap      omega  full diag
   1  -5198.6058616 -0.519861E+04  0.172E-04    4.13       0.0  T
   2  -5198.6058616 -0.466298E-08  0.109E-04    4.13      14.8  T
   3  -5198.6058616  0.781529E-08  0.540E-05    4.13      29.8  T
     SCC iter.                  ...       10 min, 34.422 sec
     gradient                   ...        4 min, 47.713 sec
 * total energy  : -5104.0557142 Eh     change    :  -0.2232911E-05 Eh
   gradient norm :     0.0026134 Eh/a0  converged?    E=T G=F D=F
   time step     :     0.2435896 fs     power     :   0.1011521E-09
   step length   :     0.0016187 a0     speed     :   0.1607440E-03

........................................................................
.............................. CYCLE   39 ..............................
........................................................................

 iter      E             dE          RMSdq      gap      omega  full diag
   1  -5198.6060378 -0.519861E+04  0.171E-04    4.13       0.0  T
   2  -5198.6060378 -0.310411E-08  0.108E-04    4.13      14.9  T
   3  -5198.6060378  0.104146E-07  0.522E-05    4.13      30.8  T
     SCC iter.                  ...       10 min, 34.990 sec
     gradient                   ...        4 min, 47.334 sec
 * total energy  : -5104.0557166 Eh     change    :  -0.2394751E-05 Eh
   gradient norm :     0.0028139 Eh/a0  converged?    E=T G=F D=F
   time step     :     0.2679486 fs     power     :   0.1018631E-09
   step length   :     0.0017913 a0     speed     :   0.1617042E-03

........................................................................
.............................. CYCLE   40 ..............................
........................................................................

 iter      E             dE          RMSdq      gap      omega  full diag
   1  -5198.6062071 -0.519861E+04  0.169E-04    4.13       0.0  T
   2  -5198.6062071 -0.209548E-08  0.106E-04    4.13      15.2  T
   3  -5198.6062071  0.121008E-07  0.495E-05    4.13      32.5  T
     SCC iter.                  ...       10 min, 35.094 sec
     gradient                   ...        4 min, 49.916 sec
 * total energy  : -5104.0557196 Eh     change    :  -0.2929622E-05 Eh
   gradient norm :     0.0028976 Eh/a0  converged?    E=T G=F D=F
   time step     :     0.2947435 fs     power     :   0.1191985E-09
   step length   :     0.0019920 a0     speed     :   0.1634745E-03

........................................................................
.............................. CYCLE   41 ..............................
........................................................................

 iter      E             dE          RMSdq      gap      omega  full diag
   1  -5198.6063524 -0.519861E+04  0.172E-04    4.13       0.0  T
   2  -5198.6063524 -0.229466E-08  0.106E-04    4.13      15.2  T
   3  -5198.6063524  0.106111E-07  0.484E-05    4.13      33.3  T
     SCC iter.                  ...       10 min, 36.806 sec
     gradient                   ...        4 min, 49.085 sec
 * total energy  : -5104.0557233 Eh     change    :  -0.3772144E-05 Eh
   gradient norm :     0.0027978 Eh/a0  converged?    E=T G=F D=F
   time step     :     0.3242178 fs     power     :   0.1423721E-09
   step length   :     0.0022555 a0     speed     :   0.1682744E-03

........................................................................
.............................. CYCLE   42 ..............................
........................................................................

 iter      E             dE          RMSdq      gap      omega  full diag
   1  -5198.6064520 -0.519861E+04  0.187E-04    4.13       0.0  T
   2  -5198.6064520 -0.421278E-08  0.113E-04    4.13      14.3  T
   3  -5198.6064520  0.720956E-08  0.526E-05    4.13      30.6  T
     SCC iter.                  ...       10 min, 34.262 sec
     gradient                   ...        4 min, 47.636 sec
 * total energy  : -5104.0557280 Eh     change    :  -0.4645736E-05 Eh
   gradient norm :     0.0025611 Eh/a0  converged?    E=T G=F D=F
   time step     :     0.3566396 fs     power     :   0.1582042E-09
   step length   :     0.0026062 a0     speed     :   0.1767631E-03
 * RMSD in coord.:     0.0003849 a0     energy gain  -0.5270475E-04 Eh

........................................................................
.............................. CYCLE   43 ..............................
........................................................................

 iter      E             dE          RMSdq      gap      omega  full diag
   1  -5198.6064760 -0.519861E+04  0.129E-04    4.13       0.0  T
   2  -5198.6064760 -0.274122E-08  0.771E-05    4.13      20.9  T
   3  -5198.6064760  0.239925E-08  0.364E-05    4.13      44.2  T
     SCC iter.                  ...       10 min, 35.998 sec
     gradient                   ...        4 min, 48.270 sec
 * total energy  : -5104.0557313 Eh     change    :  -0.3310219E-05 Eh
   gradient norm :     0.0024162 Eh/a0  converged?    E=T G=F D=F
   time step     :     0.2500000 fs     power     :   0.1656687E-09
   step length   :     0.0018738 a0     speed     :   0.1813042E-03

........................................................................
.............................. CYCLE   44 ..............................
........................................................................

 iter      E             dE          RMSdq      gap      omega  full diag
   1  -5198.6064517 -0.519861E+04  0.127E-04    4.13       0.0  T
   2  -5198.6064517 -0.241653E-08  0.759E-05    4.13      21.2  T
   3  -5198.6064517  0.239106E-08  0.369E-05    4.13      43.7  T
     SCC iter.                  ...       10 min, 35.735 sec
     gradient                   ...        4 min, 47.379 sec
 * total energy  : -5104.0557347 Eh     change    :  -0.3380915E-05 Eh
   gradient norm :     0.0023217 Eh/a0  converged?    E=T G=F D=F
   time step     :     0.2500000 fs     power     :   0.1694739E-09
   step length   :     0.0019280 a0     speed     :   0.1865472E-03

........................................................................
.............................. CYCLE   45 ..............................
........................................................................

 iter      E             dE          RMSdq      gap      omega  full diag
   1  -5198.6063804 -0.519861E+04  0.124E-04    4.13       0.0  T
   2  -5198.6063804 -0.188993E-08  0.748E-05    4.13      21.5  T
   3  -5198.6063804  0.242198E-08  0.350E-05    4.13      45.9  T
     SCC iter.                  ...       10 min, 37.291 sec
     gradient                   ...        4 min, 45.132 sec
 * total energy  : -5104.0557381 Eh     change    :  -0.3422720E-05 Eh
   gradient norm :     0.0022792 Eh/a0  converged?    E=T G=F D=F
   time step     :     0.2500000 fs     power     :   0.1732195E-09
   step length   :     0.0019832 a0     speed     :   0.1918884E-03

........................................................................
.............................. CYCLE   46 ..............................
........................................................................

 iter      E             dE          RMSdq      gap      omega  full diag
   1  -5198.6062668 -0.519861E+04  0.120E-04    4.13       0.0  T
   2  -5198.6062668 -0.158616E-08  0.728E-05    4.13      22.1  T
   3  -5198.6062668  0.288946E-08  0.310E-05    4.13      51.8  T
     SCC iter.                  ...       10 min, 35.212 sec
     gradient                   ...        4 min, 46.681 sec
 * total energy  : -5104.0557416 Eh     change    :  -0.3535663E-05 Eh
   gradient norm :     0.0022475 Eh/a0  converged?    E=T G=F D=F
   time step     :     0.2500000 fs     power     :   0.1789234E-09
   step length   :     0.0020375 a0     speed     :   0.1971393E-03

........................................................................
.............................. CYCLE   47 ..............................
........................................................................

 iter      E             dE          RMSdq      gap      omega  full diag
   1  -5198.6061178 -0.519861E+04  0.115E-04    4.13       0.0  T
   2  -5198.6061178 -0.986802E-09  0.710E-05    4.13      22.6  T
   3  -5198.6061178  0.296586E-08  0.266E-05    4.13      60.4  T
     SCC iter.                  ...       10 min, 35.835 sec
     gradient                   ...        4 min, 47.472 sec
 * total energy  : -5104.0557453 Eh     change    :  -0.3666487E-05 Eh
   gradient norm :     0.0021816 Eh/a0  converged?    E=T G=F D=F
   time step     :     0.2500000 fs     power     :   0.1856281E-09
   step length   :     0.0020930 a0     speed     :   0.2025127E-03

........................................................................
.............................. CYCLE   48 ..............................
........................................................................

 iter      E             dE          RMSdq      gap      omega  full diag
   1  -5198.6059224 -0.519861E+04  0.123E-04    4.13       0.0  T
   2  -5198.6059224 -0.102136E-08  0.775E-05    4.13      20.8  T
   3  -5198.6059224  0.365162E-08  0.271E-05    4.13      59.3  T
     SCC iter.                  ...       10 min, 36.627 sec
     gradient                   ...        4 min, 48.221 sec
 * total energy  : -5104.0557494 Eh     change    :  -0.4097730E-05 Eh
   gradient norm :     0.0020551 Eh/a0  converged?    E=T G=F D=F
   time step     :     0.2750000 fs     power     :   0.1902008E-09
   step length   :     0.0023798 a0     speed     :   0.2093278E-03

........................................................................
.............................. CYCLE   49 ..............................
........................................................................

 iter      E             dE          RMSdq      gap      omega  full diag
   1  -5198.6056836 -0.519861E+04  0.136E-04    4.13       0.0  T
   2  -5198.6056836 -0.156797E-08  0.860E-05    4.13      18.7  T
   3  -5198.6056836  0.430464E-08  0.308E-05    4.13      52.2  T
     SCC iter.                  ...       10 min, 33.786 sec
     gradient                   ...        4 min, 49.278 sec
 * total energy  : -5104.0557539 Eh     change    :  -0.4536930E-05 Eh
   gradient norm :     0.0018956 Eh/a0  converged?    E=T G=F D=F
   time step     :     0.3025000 fs     power     :   0.1892245E-09
   step length   :     0.0027219 a0     speed     :   0.2176481E-03

........................................................................
.............................. CYCLE   50 ..............................
........................................................................

 iter      E             dE          RMSdq      gap      omega  full diag
   1  -5198.6054114 -0.519861E+04  0.152E-04    4.13       0.0  T
   2  -5198.6054114 -0.263390E-08  0.954E-05    4.13      16.9  T
   3  -5198.6054114  0.499949E-08  0.369E-05    4.13      43.6  T
     SCC iter.                  ...       10 min, 35.227 sec
     gradient                   ...        4 min, 46.842 sec
 * total energy  : -5104.0557589 Eh     change    :  -0.4915548E-05 Eh
   gradient norm :     0.0017933 Eh/a0  converged?    E=T G=F D=F
   time step     :     0.3327500 fs     power     :   0.1827763E-09
   step length   :     0.0031221 a0     speed     :   0.2269547E-03

........................................................................
.............................. CYCLE   51 ..............................
........................................................................

 iter      E             dE          RMSdq      gap      omega  full diag
   1  -5198.6051254 -0.519861E+04  0.166E-04    4.13       0.0  T
   2  -5198.6051254 -0.286764E-08  0.103E-04    4.13      15.6  T
   3  -5198.6051254  0.604541E-08  0.416E-05    4.13      38.6  T
     SCC iter.                  ...       10 min, 36.631 sec
     gradient                   ...        4 min, 47.901 sec
 * total energy  : -5104.0557640 Eh     change    :  -0.5164063E-05 Eh
   gradient norm :     0.0018194 Eh/a0  converged?    E=F G=F D=F
   time step     :     0.3660250 fs     power     :   0.1772467E-09
   step length   :     0.0035727 a0     speed     :   0.2361007E-03

........................................................................
.............................. CYCLE   52 ..............................
........................................................................

 iter      E             dE          RMSdq      gap      omega  full diag
   1  -5198.6048549 -0.519860E+04  0.179E-04    4.13       0.0  T
   2  -5198.6048549 -0.197451E-08  0.109E-04    4.13      14.8  T
   3  -5198.6048549  0.587625E-08  0.404E-05    4.13      39.8  T
     SCC iter.                  ...       10 min, 34.650 sec
     gradient                   ...        4 min, 46.218 sec
 * total energy  : -5104.0557698 Eh     change    :  -0.5760215E-05 Eh
   gradient norm :     0.0018934 Eh/a0  converged?    E=F G=F D=F
   time step     :     0.4026275 fs     power     :   0.1805881E-09
   step length   :     0.0040673 a0     speed     :   0.2443516E-03

........................................................................
.............................. CYCLE   53 ..............................
........................................................................

 iter      E             dE          RMSdq      gap      omega  full diag
   1  -5198.6046337 -0.519860E+04  0.193E-04    4.13       0.0  T
   2  -5198.6046337 -0.123873E-08  0.115E-04    4.13      14.0  T
   3  -5198.6046337  0.316322E-08  0.319E-05    4.13      50.4  T
     SCC iter.                  ...       10 min, 35.404 sec
     gradient                   ...        4 min, 47.923 sec
 * total energy  : -5104.0557764 Eh     change    :  -0.6638614E-05 Eh
   gradient norm :     0.0018815 Eh/a0  converged?    E=F G=F D=F
   time step     :     0.4428903 fs     power     :   0.1920811E-09
   step length   :     0.0046310 a0     speed     :   0.2529287E-03

........................................................................
.............................. CYCLE   54 ..............................
........................................................................

 iter      E             dE          RMSdq      gap      omega  full diag
   1  -5198.6044991 -0.519860E+04  0.212E-04    4.13       0.0  T
   2  -5198.6044991 -0.223736E-08  0.126E-04    4.13      12.8  T
   3  -5198.6044991  0.382988E-08  0.368E-05    4.13      43.7  T
     SCC iter.                  ...       10 min, 36.991 sec
     gradient                   ...        4 min, 47.719 sec
 * total energy  : -5104.0557841 Eh     change    :  -0.7710624E-05 Eh
   gradient norm :     0.0017878 Eh/a0  converged?    E=F G=F D=F
   time step     :     0.4871793 fs     power     :   0.2027375E-09
   step length   :     0.0053104 a0     speed     :   0.2636681E-03

........................................................................
.............................. CYCLE   55 ..............................
........................................................................

 iter      E             dE          RMSdq      gap      omega  full diag
   1  -5198.6044907 -0.519860E+04  0.237E-04    4.13       0.0  T
   2  -5198.6044907 -0.367436E-08  0.141E-04    4.13      11.4  T
   3  -5198.6044907  0.821092E-08  0.503E-05    4.13      32.0  T
     SCC iter.                  ...       10 min, 35.940 sec
     gradient                   ...        4 min, 50.977 sec
 * total energy  : -5104.0557929 Eh     change    :  -0.8796912E-05 Eh
   gradient norm :     0.0017521 Eh/a0  converged?    E=F G=F D=F
   time step     :     0.5358972 fs     power     :   0.2092057E-09
   step length   :     0.0061344 a0     speed     :   0.2768908E-03

........................................................................
.............................. CYCLE   56 ..............................
........................................................................

 iter      E             dE          RMSdq      gap      omega  full diag
   1  -5198.6046401 -0.519860E+04  0.264E-04    4.13       0.0  T
   2  -5198.6046401 -0.303771E-08  0.157E-04    4.13      10.2  T
   3  -5198.6046401  0.115342E-07  0.545E-05    4.13      29.5  T
     SCC iter.                  ...       10 min, 36.530 sec
     gradient                   ...        4 min, 46.929 sec
 * total energy  : -5104.0558030 Eh     change    :  -0.1009042E-04 Eh
   gradient norm :     0.0017447 Eh/a0  converged?    E=F G=F D=F
   time step     :     0.5894869 fs     power     :   0.2184833E-09
   step length   :     0.0071018 a0     speed     :   0.2914149E-03

........................................................................
.............................. CYCLE   57 ..............................
........................................................................

 iter      E             dE          RMSdq      gap      omega  full diag
   1  -5198.6049636 -0.519860E+04  0.292E-04    4.13       0.0  T
   2  -5198.6049636 -0.254659E-08  0.174E-04    4.13       9.2  T
   3  -5198.6049636  0.122718E-07  0.549E-05    4.13      29.3  T
     SCC iter.                  ...       10 min, 33.684 sec
     gradient                   ...        4 min, 47.683 sec
 * total energy  : -5104.0558147 Eh     change    :  -0.1166712E-04 Eh
   gradient norm :     0.0016569 Eh/a0  converged?    E=F G=F D=F
   time step     :     0.6484356 fs     power     :   0.2281101E-09
   step length   :     0.0082423 a0     speed     :   0.3074672E-03

........................................................................
.............................. CYCLE   58 ..............................
........................................................................

 iter      E             dE          RMSdq      gap      omega  full diag
   1  -5198.6054637 -0.519861E+04  0.308E-04    4.13       0.0  T
   2  -5198.6054637 -0.537511E-08  0.185E-04    4.13       8.7  T
   3  -5198.6054637  0.157452E-07  0.645E-05    4.13      25.0  T
     SCC iter.                  ...       10 min, 35.273 sec
     gradient                   ...        4 min, 46.464 sec
 * total energy  : -5104.0558279 Eh     change    :  -0.1321039E-04 Eh
   gradient norm :     0.0017022 Eh/a0  converged?    E=F G=F D=F
   time step     :     0.7132792 fs     power     :   0.2347453E-09
   step length   :     0.0096062 a0     speed     :   0.3257655E-03

........................................................................
.............................. CYCLE   59 ..............................
........................................................................

 iter      E             dE          RMSdq      gap      omega  full diag
   1  -5198.6061059 -0.519861E+04  0.319E-04    4.13       0.0  T
   2  -5198.6061060 -0.385444E-08  0.190E-04    4.13       8.5  T
   3  -5198.6061059  0.131395E-07  0.586E-05    4.13      27.5  T
     SCC iter.                  ...       10 min, 38.326 sec
     gradient                   ...        4 min, 45.596 sec
 * total energy  : -5104.0558434 Eh     change    :  -0.1553949E-04 Eh
   gradient norm :     0.0017433 Eh/a0  converged?    E=F G=F D=F
   time step     :     0.7846071 fs     power     :   0.2548121E-09
   step length   :     0.0111765 a0     speed     :   0.3445617E-03

........................................................................
.............................. CYCLE   60 ..............................
........................................................................

 iter      E             dE          RMSdq      gap      omega  full diag
   1  -5198.6067932 -0.519861E+04  0.374E-04    4.13       0.0  T
   2  -5198.6067932 -0.473847E-08  0.222E-04    4.13       7.3  T
   3  -5198.6067932  0.152104E-07  0.646E-05    4.13      24.9  T
     SCC iter.                  ...       10 min, 35.317 sec
     gradient                   ...        4 min, 48.519 sec
 * total energy  : -5104.0558620 Eh     change    :  -0.1856014E-04 Eh
   gradient norm :     0.0016288 Eh/a0  converged?    E=F G=F D=F
   time step     :     0.8630678 fs     power     :   0.2742749E-09
   step length   :     0.0130707 a0     speed     :   0.3663258E-03

........................................................................
.............................. CYCLE   61 ..............................
........................................................................

 iter      E             dE          RMSdq      gap      omega  full diag
   1  -5198.6073612 -0.519861E+04  0.423E-04    4.13       0.0  T
   2  -5198.6073612 -0.828459E-08  0.256E-04    4.13       6.3  T
   3  -5198.6073611  0.379632E-07  0.894E-05    4.13      18.0  T
     SCC iter.                  ...       10 min, 36.724 sec
     gradient                   ...        4 min, 47.416 sec
 * total energy  : -5104.0558833 Eh     change    :  -0.2131548E-04 Eh
   gradient norm :     0.0016316 Eh/a0  converged?    E=F G=F D=F
   time step     :     0.9493746 fs     power     :   0.2873350E-09
   step length   :     0.0153941 a0     speed     :   0.3922218E-03

........................................................................
.............................. CYCLE   62 ..............................
........................................................................

 iter      E             dE          RMSdq      gap      omega  full diag
   1  -5198.6076725 -0.519861E+04  0.482E-04    4.13       0.0  T
   2  -5198.6076725 -0.772616E-08  0.284E-04    4.13       5.7  T
   3  -5198.6076725  0.195987E-07  0.742E-05    4.13      21.7  T
     SCC iter.                  ...       10 min, 35.242 sec
     gradient                   ...        4 min, 45.938 sec
 * total energy  : -5104.0559081 Eh     change    :  -0.2475152E-04 Eh
   gradient norm :     0.0016492 Eh/a0  converged?    E=F G=F D=F
   time step     :     1.0443120 fs     power     :   0.3022348E-09
   step length   :     0.0181219 a0     speed     :   0.4197489E-03

........................................................................
.............................. CYCLE   63 ..............................
........................................................................

 iter      E             dE          RMSdq      gap      omega  full diag
   1  -5198.6078156 -0.519861E+04  0.538E-04    4.13       0.0  T
   2  -5198.6078157 -0.943237E-08  0.321E-04    4.13       5.0  T
   3  -5198.6078156  0.307691E-07  0.847E-05    4.13      19.0  T
     SCC iter.                  ...       10 min, 36.517 sec
     gradient                   ...        4 min, 46.568 sec
 * total energy  : -5104.0559373 Eh     change    :  -0.2922415E-04 Eh
   gradient norm :     0.0015823 Eh/a0  converged?    E=F G=F D=F
   time step     :     1.1487432 fs     power     :   0.3269280E-09
   step length   :     0.0213296 a0     speed     :   0.4491327E-03

........................................................................
.............................. CYCLE   64 ..............................
........................................................................

 iter      E             dE          RMSdq      gap      omega  full diag
   1  -5198.6081704 -0.519861E+04  0.630E-04    4.13       0.0  T
   2  -5198.6081704 -0.112677E-07  0.374E-04    4.13       4.3  T
   3  -5198.6081704  0.294376E-07  0.872E-05    4.13      18.4  T
     SCC iter.                  ...       10 min, 34.878 sec
     gradient                   ...        4 min, 47.411 sec
 * total energy  : -5104.0559707 Eh     change    :  -0.3340035E-04 Eh
   gradient norm :     0.0016138 Eh/a0  converged?    E=F G=F D=F
   time step     :     1.2500000 fs     power     :   0.3384685E-09
   step length   :     0.0249446 a0     speed     :   0.4827040E-03

........................................................................
.............................. CYCLE   65 ..............................
........................................................................

 iter      E             dE          RMSdq      gap      omega  full diag
   1  -5198.6086492 -0.519861E+04  0.655E-04    4.13       0.0  T
   2  -5198.6086492 -0.153941E-07  0.387E-04    4.13       4.2  T
   3  -5198.6086492  0.221116E-07  0.909E-05    4.13      17.7  T
     SCC iter.                  ...       10 min, 35.993 sec
     gradient                   ...        4 min, 46.158 sec
 * total energy  : -5104.0560053 Eh     change    :  -0.3464571E-04 Eh
   gradient norm :     0.0017129 Eh/a0  converged?    E=F G=F D=F
   time step     :     1.2500000 fs     power     :   0.3502579E-09
   step length   :     0.0265203 a0     speed     :   0.5131973E-03

........................................................................
.............................. CYCLE   66 ..............................
........................................................................

 iter      E             dE          RMSdq      gap      omega  full diag
   1  -5198.6089135 -0.519861E+04  0.673E-04    4.13       0.0  T
   2  -5198.6089135 -0.124091E-07  0.398E-04    4.13       4.0  T
   3  -5198.6089135  0.377986E-07  0.994E-05    4.13      16.2  T
     SCC iter.                  ...       10 min, 36.075 sec
     gradient                   ...        4 min, 46.346 sec
 * total energy  : -5104.0560423 Eh     change    :  -0.3696049E-04 Eh
   gradient norm :     0.0014634 Eh/a0  converged?    E=F G=F D=F
   time step     :     1.2500000 fs     power     :   0.3769016E-09
   step length   :     0.0279266 a0     speed     :   0.5404091E-03

........................................................................
.............................. CYCLE   67 ..............................
........................................................................

 iter      E             dE          RMSdq      gap      omega  full diag
   1  -5198.6092029 -0.519861E+04  0.693E-04    4.13       0.0  T
   2  -5198.6092030 -0.917953E-08  0.409E-04    4.13       3.9  T
   3  -5198.6092029  0.349692E-07  0.845E-05    4.13      19.0  T
     SCC iter.                  ...       10 min, 34.129 sec
     gradient                   ...        4 min, 48.009 sec
 * total energy  : -5104.0560803 Eh     change    :  -0.3805254E-04 Eh
   gradient norm :     0.0014871 Eh/a0  converged?    E=F G=F D=F
   time step     :     1.2500000 fs     power     :   0.3941199E-09
   step length   :     0.0295686 a0     speed     :   0.5721838E-03
 * RMSD in coord.:     0.0039717 a0     energy gain  -0.3523544E-03 Eh

........................................................................
.............................. CYCLE   68 ..............................
........................................................................

 iter      E             dE          RMSdq      gap      omega  full diag
   1  -5198.6092926 -0.519861E+04  0.135E-04    4.13       0.0  T
   2  -5198.6092926 -0.357431E-09  0.795E-05    4.13      20.2  T
   3  -5198.6092926  0.212822E-08  0.205E-05    4.13      78.5  T
     SCC iter.                  ...       10 min, 34.848 sec
     gradient                   ...        4 min, 47.484 sec
 * total energy  : -5104.0560881 Eh     change    :  -0.7730051E-05 Eh
   gradient norm :     0.0014589 Eh/a0  converged?    E=F G=F D=F
   time step     :     0.2500000 fs     power     :   0.4052401E-09
   step length   :     0.0059064 a0     speed     :   0.5714803E-03

........................................................................
.............................. CYCLE   69 ..............................
........................................................................

 iter      E             dE          RMSdq      gap      omega  full diag
   1  -5198.6094077 -0.519861E+04  0.138E-04    4.13       0.0  T
   2  -5198.6094077 -0.504770E-09  0.814E-05    4.13      19.8  T
   3  -5198.6094077  0.102955E-08  0.164E-05    4.13      98.1  T
     SCC iter.                  ...       10 min, 35.631 sec
     gradient                   ...        4 min, 48.504 sec
 * total energy  : -5104.0560959 Eh     change    :  -0.7782242E-05 Eh
   gradient norm :     0.0013967 Eh/a0  converged?    E=F G=F D=F
   time step     :     0.2500000 fs     power     :   0.4107719E-09
   step length   :     0.0059232 a0     speed     :   0.5730980E-03

........................................................................
.............................. CYCLE   70 ..............................
........................................................................

 iter      E             dE          RMSdq      gap      omega  full diag
   1  -5198.6095202 -0.519861E+04  0.142E-04    4.13       0.0  T
   2  -5198.6095202 -0.668479E-09  0.848E-05    4.13      19.0  T
   3  -5198.6095202  0.190175E-08  0.200E-05    4.13      80.5  T
     SCC iter.                  ...       10 min, 33.997 sec
     gradient                   ...        4 min, 46.810 sec
 * total energy  : -5104.0561037 Eh     change    :  -0.7828082E-05 Eh
   gradient norm :     0.0013677 Eh/a0  converged?    E=F G=F D=F
   time step     :     0.2500000 fs     power     :   0.4111475E-09
   step length   :     0.0059663 a0     speed     :   0.5772678E-03

........................................................................
.............................. CYCLE   71 ..............................
........................................................................

 iter      E             dE          RMSdq      gap      omega  full diag
   1  -5198.6096016 -0.519861E+04  0.144E-04    4.13       0.0  T
   2  -5198.6096016 -0.564796E-09  0.858E-05    4.13      18.7  T
[...]
  3609   6 C     3614   6 C                                       1.3885401
  3613   6 C     3614   6 C                                       1.3836092
  3608   6 C     3615   6 C                                       1.5361428
  3615   6 C     3616   6 C                                       1.5400135
  3617   6 C     3618   6 C                                       1.3916635
  3618   6 C     3619   6 C                                       1.3816681
  3619   6 C     3620   6 C                                       1.3849127
  3620   6 C     3621   6 C                                       1.3835100
  3617   6 C     3622   6 C                                       1.3874355
  3621   6 C     3622   6 C                                       1.3855100
  3616   6 C     3623   6 C                                       1.5378323
  3623   6 C     3624   6 C                                       1.5375413
  3625   6 C     3626   6 C                                       1.3890493
  3626   6 C     3627   6 C                                       1.3843324
  3627   6 C     3628   6 C                                       1.3839998
  3628   6 C     3629   6 C                                       1.3840581
  3625   6 C     3630   6 C                                       1.3913634
  3629   6 C     3630   6 C                                       1.3832479
  3624   6 C     3631   6 C                                       1.5403519
  3631   6 C     3632   6 C                                       1.5318232
  3633   6 C     3634   6 C                                       1.3899363
  3634   6 C     3635   6 C                                       1.3842351
  3635   6 C     3636   6 C                                       1.3837295
  3636   6 C     3637   6 C                                       1.3842948
  3633   6 C     3638   6 C                                       1.3909468
  3637   6 C     3638   6 C                                       1.3839905
  3632   6 C     3639   6 C                                       1.5406923 (max)
  3639   6 C     3640   6 C                                       1.5349000
  3641   6 C     3642   6 C                                       1.3899073
  3642   6 C     3643   6 C                                       1.3828414
  3643   6 C     3644   6 C                                       1.3842459
  3644   6 C     3645   6 C                                       1.3833042
  3641   6 C     3646   6 C                                       1.3889951
  3645   6 C     3646   6 C                                       1.3839351
  3640   6 C     3647   6 C                                       1.5377223
  3649   6 C     3650   6 C                                       1.3904866
  3650   6 C     3651   6 C                                       1.3833221
  3651   6 C     3652   6 C                                       1.3849142
  3652   6 C     3653   6 C                                       1.3830990
  3649   6 C     3654   6 C                                       1.3894550
  3653   6 C     3654   6 C                                       1.3834664
  3648   6 C     3655   6 C                                       1.5396580
  3657   6 C     3658   6 C                                       1.3894435
  3658   6 C     3659   6 C                                       1.3841115
  3659   6 C     3660   6 C                                       1.3839565
  3660   6 C     3661   6 C                                       1.3848461
  3657   6 C     3662   6 C                                       1.3906926
  3661   6 C     3662   6 C                                       1.3824905
  3656   6 C     3663   6 C                                       1.5358823
  3665   6 C     3666   6 C                                       1.3889306
  3666   6 C     3667   6 C                                       1.3838608
  3667   6 C     3668   6 C                                       1.3831695
  3668   6 C     3669   6 C                                       1.3836890
  3665   6 C     3670   6 C                                       1.3898980
  3669   6 C     3670   6 C                                       1.3828665
  3664   6 C     3671   6 C                                       1.5368966
  3671   6 C     3672   6 C                                       1.5357827
  3673   6 C     3674   6 C                                       1.3889782
  3674   6 C     3675   6 C                                       1.3842100
  3675   6 C     3676   6 C                                       1.3835197
  3676   6 C     3677   6 C                                       1.3846509
  3673   6 C     3678   6 C                                       1.3904054
  3677   6 C     3678   6 C                                       1.3828027
  3681   6 C     3682   6 C                                       1.3905051
  3682   6 C     3683   6 C                                       1.3842714
  3683   6 C     3684   6 C                                       1.3822845
  3684   6 C     3685   6 C                                       1.3840508
  3681   6 C     3686   6 C                                       1.3914455
  3685   6 C     3686   6 C                                       1.3826230
  3680   6 C     3687   6 C                                       1.5300342
  3687   6 C     3688   6 C                                       1.5354757
  3549   6 C     3689   1 H                                       1.0961144
  3551   6 C     3690   1 H                                       1.0920901
  3551   6 C     3691   1 H                                       1.0917299
  3552   6 C     3692   1 H                                       1.0948181
  3559   6 C     3693   1 H                                       1.0919471
  3559   6 C     3694   1 H                                       1.0913147
  3560   6 C     3695   1 H                                       1.0963069
  3567   6 C     3696   1 H                                       1.0914920
  3567   6 C     3697   1 H                                       1.0917663
  3568   6 C     3698   1 H                                       1.0953743
  3575   6 C     3699   1 H                                       1.0922276
  3576   6 C     3700   1 H                                       1.0946904
  3583   6 C     3701   1 H                                       1.0937027
  3583   6 C     3702   1 H                                       1.0932804
  3584   6 C     3703   1 H                                       1.0941738
  3591   6 C     3704   1 H                                       1.0910949
  3591   6 C     3705   1 H                                       1.0904035
  3592   6 C     3706   1 H                                       1.0955762
  3599   6 C     3707   1 H                                       1.0905304
  3599   6 C     3708   1 H                                       1.0926541
  3600   6 C     3709   1 H                                       1.0940503
  3608   6 C     3710   1 H                                       1.0927198
  3615   6 C     3711   1 H                                       1.0927783
  3615   6 C     3712   1 H                                       1.0919375
  3616   6 C     3713   1 H                                       1.0932725
  3623   6 C     3714   1 H                                       1.0932124
  3623   6 C     3715   1 H                                       1.0929551
  3624   6 C     3716   1 H                                       1.0957182
  3631   6 C     3717   1 H                                       1.0931978
  3631   6 C     3718   1 H                                       1.0913369
  3632   6 C     3719   1 H                                       1.0961846
  3639   6 C     3720   1 H                                       1.0909816
  3639   6 C     3721   1 H                                       1.0906570
  3640   6 C     3722   1 H                                       1.0960486
  3647   6 C     3723   1 H                                       1.0925854
  3647   6 C     3724   1 H                                       1.0906666
  3648   6 C     3725   1 H                                       1.0955969
  3655   6 C     3726   1 H                                       1.0921086
  3655   6 C     3727   1 H                                       1.0924858
  3656   6 C     3728   1 H                                       1.0953944
  3663   6 C     3729   1 H                                       1.0918750
  3663   6 C     3730   1 H                                       1.0935496
  3664   6 C     3731   1 H                                       1.0954692
  3671   6 C     3732   1 H                                       1.0894432
  3671   6 C     3733   1 H                                       1.0886498
  3672   6 C     3734   1 H                                       1.0932741
  3679   6 C     3735   1 H                                       1.0928172
  3679   6 C     3736   1 H                                       1.0923303
  3543   6 C     3737   1 H                                       1.0814484
  3548   6 C     3738   1 H                                       1.0807948
  3547   6 C     3739   1 H                                       1.0801197
  3546   6 C     3740   1 H                                       1.0801990
  3545   6 C     3741   1 H                                       1.0801946
  3554   6 C     3742   1 H                                       1.0812166
  3555   6 C     3743   1 H                                       1.0802774
  3556   6 C     3744   1 H                                       1.0798662
  3557   6 C     3745   1 H                                       1.0802929
  3558   6 C     3746   1 H                                       1.0813799
  3562   6 C     3747   1 H                                       1.0809552
  3563   6 C     3748   1 H                                       1.0798559
  3564   6 C     3749   1 H                                       1.0805697
  3565   6 C     3750   1 H                                       1.0806455
  3566   6 C     3751   1 H                                       1.0797194
  3570   6 C     3752   1 H                                       1.0806057
  3571   6 C     3753   1 H                                       1.0801123
  3572   6 C     3754   1 H                                       1.0799472
  3573   6 C     3755   1 H                                       1.0809428
  3574   6 C     3756   1 H                                       1.0807125
  3575   6 C     3757   1 H                                       1.0904282
  3578   6 C     3758   1 H                                       1.0816529
  3579   6 C     3759   1 H                                       1.0796616
  3580   6 C     3760   1 H                                       1.0800641
  3581   6 C     3761   1 H                                       1.0804564
  3582   6 C     3762   1 H                                       1.0800470
  3586   6 C     3763   1 H                                       1.0815563
  3587   6 C     3764   1 H                                       1.0812559
  3588   6 C     3765   1 H                                       1.0805514
  3589   6 C     3766   1 H                                       1.0800473
  3590   6 C     3767   1 H                                       1.0810184
  3594   6 C     3768   1 H                                       1.0789294
  3595   6 C     3769   1 H                                       1.0812126
  3596   6 C     3770   1 H                                       1.0801890
  3597   6 C     3771   1 H                                       1.0804421
  3598   6 C     3772   1 H                                       1.0816052
  3602   6 C     3773   1 H                                       1.0803088
  3603   6 C     3774   1 H                                       1.0810168
  3604   6 C     3775   1 H                                       1.0801401
  3605   6 C     3776   1 H                                       1.0806766
  3606   6 C     3777   1 H                                       1.0801119
  3607   6 C     3778   1 H                                       1.0909067
  3607   6 C     3779   1 H                                       1.0927725
  3610   6 C     3780   1 H                                       1.0803411
  3611   6 C     3781   1 H                                       1.0796909
  3612   6 C     3782   1 H                                       1.0777990
  3613   6 C     3783   1 H                                       1.0806539
  3614   6 C     3784   1 H                                       1.0808398
  3618   6 C     3785   1 H                                       1.0808846
  3619   6 C     3786   1 H                                       1.0795793
  3620   6 C     3787   1 H                                       1.0801409
  3621   6 C     3788   1 H                                       1.0804360
  3622   6 C     3789   1 H                                       1.0813417
  3626   6 C     3790   1 H                                       1.0801737
  3627   6 C     3791   1 H                                       1.0805600
  3628   6 C     3792   1 H                                       1.0798516
  3629   6 C     3793   1 H                                       1.0802989
  3630   6 C     3794   1 H                                       1.0817964
  3634   6 C     3795   1 H                                       1.0814036
  3635   6 C     3796   1 H                                       1.0798694
  3636   6 C     3797   1 H                                       1.0804800
  3637   6 C     3798   1 H                                       1.0810092
  3638   6 C     3799   1 H                                       1.0807165
  3642   6 C     3800   1 H                                       1.0804113
  3643   6 C     3801   1 H                                       1.0804636
  3644   6 C     3802   1 H                                       1.0799546
  3645   6 C     3803   1 H                                       1.0809954
  3646   6 C     3804   1 H                                       1.0813281
  3650   6 C     3805   1 H                                       1.0806105
  3651   6 C     3806   1 H                                       1.0810652
  3652   6 C     3807   1 H                                       1.0800648
  3653   6 C     3808   1 H                                       1.0802886
  3654   6 C     3809   1 H                                       1.0807783
  3658   6 C     3810   1 H                                       1.0813732
  3659   6 C     3811   1 H                                       1.0805454
  3660   6 C     3812   1 H                                       1.0801774
  3661   6 C     3813   1 H                                       1.0801173
  3662   6 C     3814   1 H                                       1.0794057
  3666   6 C     3815   1 H                                       1.0811078
  3667   6 C     3816   1 H                                       1.0803320
  3668   6 C     3817   1 H                                       1.0794803
  3669   6 C     3818   1 H                                       1.0804259
  3670   6 C     3819   1 H                                       1.0801936
  3674   6 C     3820   1 H                                       1.0811824
  3675   6 C     3821   1 H                                       1.0812771
  3676   6 C     3822   1 H                                       1.0807337
  3677   6 C     3823   1 H                                       1.0804958
  3678   6 C     3824   1 H                                       1.0800999
  3686   6 C     3825   1 H                                       1.0812116
  3685   6 C     3826   1 H                                       1.0805316
  3684   6 C     3827   1 H                                       1.0796826
  3683   6 C     3828   1 H                                       1.0800097
  3682   6 C     3829   1 H                                       1.0796803
  3550   6 C     3830   1 H                                       1.0874913
  3550   6 C     3831   1 H                                       1.0878797
  3550   6 C     3832   1 H                                       1.0878420
  3680   6 C     3833   1 H                                       1.0979792
  3687   6 C     3834   1 H                                       1.0911002
  3687   6 C     3835   1 H                                       1.0882136
  3688   6 C     3836   6 C                                       1.5385259
  3837   6 C     3838   6 C                                       1.3901127
  3838   6 C     3839   6 C                                       1.3829433
  3839   6 C     3840   6 C                                       1.3849287
  3840   6 C     3841   6 C                                       1.3837022
  3837   6 C     3842   6 C                                       1.3886167
  3841   6 C     3842   6 C                                       1.3836561
  3838   6 C     3843   1 H                                       1.0803407
  3839   6 C     3844   1 H                                       1.0808387
  3840   6 C     3845   1 H                                       1.0797526
  3841   6 C     3846   1 H                                       1.0805585
  3842   6 C     3847   1 H                                       1.0802217
  3836   6 C     3848   6 C                                       1.5337003
  3836   6 C     3849   1 H                                       1.0941788
  3836   6 C     3850   1 H                                       1.0915244
  3851   6 C     3852   6 C                                       1.3879256
  3852   6 C     3853   6 C                                       1.3834084
  3853   6 C     3854   6 C                                       1.3838710
  3854   6 C     3855   6 C                                       1.3849855
  3851   6 C     3856   6 C                                       1.3898952
  3855   6 C     3856   6 C                                       1.3818723
  3852   6 C     3857   1 H                                       1.0810310
  3853   6 C     3858   1 H                                       1.0816149
  3854   6 C     3859   1 H                                       1.0813552
  3855   6 C     3860   1 H                                       1.0815459
  3856   6 C     3861   1 H                                       1.0809114
  3688   6 C     3862   1 H                                       1.0957827
  3848   6 C     3863   1 H                                       1.0920866
  3848   6 C     3864   1 H                                       1.0917807

 * 2 distinct bonds (by element types)

   Z      Z             #   av. dist./Å        max./Å        min./Å
   1 H    6 C        1944     1.0850929     1.0987028     1.0772602
   6 C    6 C        1848     1.4188236     1.5406923     1.3799511


optimized geometry written to: xtbopt.xyz


           -------------------------------------------------
          | TOTAL ENERGY            -5104.062733212984 Eh   |
          | GRADIENT NORM               0.000778767666 Eh/α |
          | HOMO-LUMO GAP               4.127863840657 eV   |
           -------------------------------------------------

------------------------------------------------------------------------
 * finished run on 2024/10/09 at 00:02:46.622     
------------------------------------------------------------------------
 total:
 * wall-time:     4 d,  2 h, 40 min, 38.409 sec
 *  cpu-time:    26 d, 13 h, 21 min,  6.844 sec
 * ratio c/w:     6.459 speedup
 SCF:
 * wall-time:     0 d,  0 h, 47 min, 43.605 sec
 *  cpu-time:     0 d,  5 h, 45 min, 44.844 sec
 * ratio c/w:     7.244 speedup
 ANC optimizer:
 * wall-time:     4 d,  1 h, 51 min, 43.856 sec
 *  cpu-time:    26 d,  7 h, 33 min, 49.228 sec
 * ratio c/w:     6.454 speedup

