3864
 energy: -5104.062733212984 gnorm: 0.000778767666 xtb: 6.6.1 (8d0f1dd)
C           42.20047641976265       49.38179681690721       67.23655944359388
C           41.15588926964962       49.92793509042709       67.97222709803508
C           41.46013013833856       50.86723268778510       68.95076254800887
C           42.76751783271087       51.26184879790043       69.17181419482866
C           43.79591438413177       50.72210332221323       68.41856602673592
C           43.50931632091345       49.77480437618797       67.45235909001455
C           39.73072876213425       49.49526269216756       67.72104217601662
C           39.29748902265832       48.49648409150564       68.79710532962228
C           38.77647496774885       50.70080053611789       67.66169701373946
C           37.54879124410220       50.47699656259049       66.76334705553285
C           36.51877076631408       51.55351547150750       67.00232430066728
C           36.81809540572772       52.89420604047194       66.78233084365188
C           35.85718019325613       53.87238133435557       66.96177532720618
C           34.57921535081807       53.52753863661060       67.36820884315900
C           34.27172158375270       52.19752447241773       67.59598441630679
C           35.23465508067019       51.22050371941621       67.41311265277848
C           37.94992576131430       50.47485167199847       65.28341948908877
C           36.75558862145718       50.39575613037649       64.32736557474220
C           35.89481575730988       49.17851659566804       64.55906208436349
C           34.51079159339774       49.30994359575977       64.53647510489343
C           33.68947980460753       48.21184506214611       64.71588616920344
C           34.24048010002861       46.96041481516129       64.93321199629879
C           35.61653148978515       46.81681190736013       64.95937221958025
C           36.43659689181785       47.91506189116444       64.76279774843950
C           37.24090354402805       50.43571266634589       62.86263054215617
C           36.83383155304865       51.71007543582764       62.09833601158547
C           35.32609799381065       51.71944880406253       61.93120870538522
C           34.74089877666048       50.75094033763115       61.11889120760338
C           33.37457056698634       50.70499498319574       60.92076923881157
C           32.55323685981901       51.62727277876374       61.54621160620610
C           33.11605060954108       52.58401551277527       62.37093960618028
C           34.48792967295206       52.63078070193122       62.56127174465881
C           37.36664748511124       53.00686362146584       62.72050316046236
C           38.89791891711422       53.10332212682233       62.83236902960709
C           39.25044995471448       54.20052212959798       63.80973291528035
C           38.85443273246374       55.51394871039538       63.58344036690681
C           39.15113387248893       56.51247939154548       64.49240222983573
C           39.85184849010555       56.21707715044317       65.64953704864860
C           40.25683659083933       54.91592964251800       65.88629088618494
C           39.95705587110419       53.92009980327393       64.97258740599059
C           39.60352678953398       53.32936397753845       61.48960215614420
C           41.09819919721529       52.97067798963407       61.57782400829235
C           41.23296109378558       51.47375835350388       61.73155048382288
C           41.44953458372724       50.91482988990600       62.98691648111230
C           41.51198500541139       49.54217128804863       63.16076685760785
C           41.38991446841486       48.69838255642576       62.07046494425537
C           41.18225168579056       49.23978763960309       60.81414954790212
C           41.08757965248392       50.61026461571306       60.65136596154161
C           41.84948636237355       53.51995542504977       60.35795899673645
C           43.33140600614691       53.08600656815190       60.33934871981441
C           44.24689358634517       54.20347974582450       60.77724439406908
C           44.96571052363978       54.10581655048409       61.96200124082234
C           45.83344766986510       55.11115402800088       62.35366551176436
C           45.99600182765179       56.23465030965851       61.56248648054931
C           45.27155739896602       56.35366249325829       60.38797480565796
C           44.40244958364548       55.34920194530993       60.00223092121585
C           43.73591832075021       52.57722106015980       58.95016405065893
C           45.06286079955613       51.79888641013423       58.94257113328044
C           45.48247284368945       51.67184346582800       57.50090087897490
C           44.78827123074678       50.84963603179270       56.62224093123777
C           45.12552737519059       50.79796066775363       55.28206775582439
C           46.15586030039348       51.58260319258644       54.79438711420629
C           46.85073632088498       52.40913777550001       55.66084490376787
C           46.51932736583494       52.44745563036970       57.00231834412784
C           44.91959541543996       50.43443453819688       59.64312746829681
C           45.62105858419274       50.35569257652094       61.01115180942517
C           47.08742362698926       50.03987865800050       60.86920118129255
C           48.04586032815611       50.96904559061133       61.24967462215828
C           49.39477787928417       50.67025142991407       61.17327549415052
C           49.80840262075368       49.43227781951228       60.71315903904289
C           48.86157484495657       48.49999818435735       60.32296465996002
C           47.51516928056504       48.80264121010715       60.39902714847153
C           44.90913328497108       49.30964289579406       61.88178502722352
C           45.64844383192453       48.97610707817599       63.18157322003643
C           45.94761461441180       50.18103496979074       64.03429394458392
C           44.95258184940116       51.08962961606781       64.37604992037573
C           45.22062533786588       52.15102204251669       65.22144183652979
C           46.48904871235828       52.31152527817348       65.75297435120152
C           47.48624015674152       51.41017752557211       65.42292170548109
C           47.21928431672338       50.35931208227629       64.56318802616489
C           44.83629531287500       47.96529757498682       64.01203058971019
C           45.74297586772016       47.08723392261399       64.88689382956849
C           44.96440219487418       46.49075598811046       66.03208455862004
C           43.84845206631489       45.69417110369973       65.80305943349592
C           43.13017455584271       45.15696610153883       66.85525628041522
C           43.51226533505682       45.41869141968404       68.15986961338947
C           44.61897210978515       46.21338500870726       68.40255632876858
C           45.33947906191222       46.74120959400713       67.34570982605737
C           46.40608748980009       45.98776078456227       64.04384249035932
C           47.61685518130160       45.36646590903151       64.74782430193316
C           48.68963224970582       46.39684532398441       65.00433347676407
C           49.13866873099899       46.64622217258000       66.29557990507840
C           50.14425977611744       47.56748537436936       66.53718173645943
C           50.71866665685700       48.26203537690886       65.48601540017219
C           50.27395021488660       48.03012867132974       64.19504504742446
C           49.27202589008696       47.10577447427396       63.95835643140445
C           48.19168374316261       44.21098793903367       63.91501788315164
C           49.21168645938381       43.39446919490560       64.72237719218543
C           48.48213838661157       42.50775119475785       65.70260523845934
C           48.60349852689857       42.71411860178473       67.07039598033005
C           47.91696090973949       41.92196103030423       67.97480034353669
C           47.09728067878785       40.90342769229099       67.52166503804936
C           46.96743430903030       40.68502747451620       66.16056775739260
C           47.65281848519673       41.48184115103263       65.26215243022831
C           50.12419329894409       42.55649744958187       63.81751365409328
C           51.05455817274950       43.39673963915443       62.91674609456823
C           50.64930275890224       43.26873272706608       61.46779867756465
C           50.24008400400986       44.36965121095893       60.72662234347304
C           49.84133690667161       44.22757960318007       59.40831106804847
C           49.86470229888478       42.98069915850098       58.80671249191564
C           50.30466145787115       41.88146020324258       59.52411810390473
C           50.68569058985724       42.02558267847652       60.84421629473494
C           52.52334851189934       42.96422518993830       63.04469629845637
C           53.18538266796615       43.32459703198879       64.38400691778122
C           54.41963245536245       42.47420085527828       64.55679181055683
C           54.50256988176771       41.55808080006005       65.59661906752510
C           55.64023142356876       40.79051263386699       65.77545984945961
C           56.70529105847341       40.91361871058099       64.90078666085516
C           56.61648375620236       41.78800577990308       63.82995212741006
C           55.48431244903386       42.56545849264963       63.66744064218244
C           53.51982357338719       44.82269445172938       64.46528240650073
C           54.36655724295306       45.17937306014203       65.69725607995419
C           53.78978402528571       44.58232432728827       66.95773482520690
C           54.58191968260717       43.79703030604683       67.78509987927139
C           54.06850945413576       43.24196217080207       68.94435491647549
C           52.75144235652572       43.47344088086372       69.30009677535585
C           51.95769888243670       44.26893474445389       68.49140872898758
C           52.47045456349397       44.81588672946127       67.32939273246886
C           54.48821696391251       46.69932472234758       65.89886414645729
C           55.16595645332229       47.47740957559125       64.75833262479324
C           54.94206899430682       48.95110199527434       65.00499552647666
C           55.64463580345140       49.62097430302664       66.00094566447636
C           55.44623561750474       50.97169950886975       66.22016412983827
C           54.52878162732107       51.67183693352511       65.45485147546154
C           53.81112070175472       51.01465534909659       64.47124649923151
C           54.02323591854332       49.66501122946759       64.24697822341261
C           56.67395379059722       47.19363546834790       64.60819580243516
C           57.06156602594501       46.16254935929128       63.53283874888555
C           58.55005859676016       45.91256276879960       63.58776210336837
C           59.46111230166827       46.94534052071998       63.38387634688151
C           60.82200950714016       46.70269676433687       63.40730045482075
C           61.29886743581481       45.42099368834255       63.62640561770488
C           60.40345485201235       44.38891581766941       63.84069218464420
C           59.04131986148336       44.63631740559791       63.82628672965464
C           56.66195659733456       46.62503342200254       62.12655572040334
C           56.79624105053063       45.52759763598078       61.04842294980534
H           39.70441976600131       48.97700594720166       66.75785780743281
H           38.42840322378475       50.93509843564887       68.67009007272355
H           39.32421779728509       51.57122787771358       67.29397728932122
H           37.09911214736713       49.50940791546703       67.00906128972906
H           38.48737296445578       51.39916524839782       65.07519354288587
H           38.62991068944265       49.64547182621134       65.08321595843253
H           36.11979683742160       51.26734224690743       64.50692629468080
H           38.32546439641113       50.31691665505716       62.82247964976216
H           36.81624132669083       49.58269506135534       62.32960920984577
H           37.26722177931958       51.61633930329543       61.09315026839139
H           36.96543859713269       53.11429391171799       63.73030175047013
H           39.26410207149380       52.15861740962877       63.23859346861144
H           39.14167439651569       52.71240526310982       60.71594995118635
H           39.50927512985884       54.37380603130766       61.18863007591343
H           41.51292328476799       53.45069307623294       62.47186756694163
H           41.35089588253030       53.18334940531615       59.44668833543954
H           41.78061319947720       54.60967128134067       60.37037613857909
H           43.44370124554327       52.25759262026784       61.04452493066811
H           42.95732273186770       51.91648514559918       58.56179056986271
H           43.81956522673298       53.42330587690152       58.26546990748182
H           45.81661875795315       52.39491585169570       59.46732107093555
H           45.53678204331992       51.32483411222001       61.51035748396013
H           43.90602864609249       49.67159076210126       62.10874406258468
H           44.79454247662716       48.38592621381137       61.30962689244794
H           46.60549143800966       48.51967490672141       62.91144419021967
H           44.13455438805865       48.50949083631093       64.64662617309166
H           44.24625293142353       47.33108915798118       63.34988416862104
H           46.52837536145508       47.72829440772573       65.30337073995513
H           45.67628028123342       45.20147023147007       63.83739697491131
H           46.72391860290408       46.40200703568578       63.08532611758917
H           47.27818813703848       44.96337565888162       65.70990152726894
H           47.37825212101973       43.55760693141588       63.59186622401774
H           48.66289212462510       44.61118763597420       63.01729991482550
H           49.84446507763237       44.09013169003329       65.28564039501251
H           50.71963346801552       41.89549705038393       64.45174496027188
H           49.49868247786981       41.92317006999065       63.18843265584825
H           50.98301699859662       44.44923986772139       63.20714697733664
H           52.58150331269802       41.88130104295242       62.91148149595075
H           53.08736204728471       43.42786719062535       62.23199270858097
H           52.49444090382901       43.08136351304517       65.19724862127916
H           54.06291534617754       45.11132873918709       63.56378813691781
H           52.59062436230789       45.39615431247603       64.48677843810357
H           55.36971514974729       44.76329170484460       65.56223689844661
H           53.48291041044744       47.10911176563589       66.03162178090268
H           55.03690615358310       46.87973577195174       66.82707410193802
H           54.64779122095975       47.22144414795324       63.83192124121287
H           57.17573705769522       48.13330090406586       64.36633095568430
H           57.07430372694252       46.84732700455037       65.56425683990001
H           41.99111709496641       48.63121294375476       66.48588152020368
H           44.30783591300442       49.34330859605057       66.86794796958614
H           44.81652820442778       51.03474508422041       68.58219701750131
H           42.98358415614083       51.99500155144031       69.93584442095269
H           40.66774933983979       51.29722861618725       69.54534449313435
H           37.80744655043921       53.18614375321732       66.46156470606506
H           36.10941168625802       54.90766386521791       66.77989773870605
H           33.82792298995462       54.29124897025173       67.50663922276524
H           33.27747152627654       51.91860921571642       67.91369851049618
H           34.98325804781808       50.18252781631058       67.58150889516196
H           34.07387426960553       50.28538272754176       64.37474539550269
H           32.61636713904998       48.33492282690863       64.69250334498844
H           33.60182863121072       46.10206184746773       65.08033166205483
H           36.06004628301462       45.84681311085014       65.13127087165506
H           37.50756035819591       47.77354386774308       64.77136346644635
H           35.35860198875370       50.01351749814612       60.62716496006817
H           32.95706884259541       49.94755422518990       60.27373716079485
H           31.48406557387262       51.59920423793549       61.39515909131088
H           32.48607553177710       53.30431071867897       62.87296834541635
H           34.88822343221649       53.39172142247057       63.21320600089575
H           36.99652383173377       53.84615642641917       62.12653021186726
H           38.30288539312013       55.76271062750074       62.68882564215448
H           38.83176477683200       57.52663105801094       64.29963230149056
H           40.08045892929631       56.99625986515841       66.36129630338606
H           40.80466850145595       54.67160468575825       66.78528730318779
H           40.28073972419114       52.90771198677602       65.17492218962730
H           41.58081535197746       51.56374526093656       63.84184747231853
H           41.67371782527029       49.13597055811456       64.14860654576604
H           41.47672666089662       47.62791622356342       62.18650531970637
H           41.10214848309440       48.58348098743095       59.95907620921031
H           40.90819697336687       51.01359465521168       59.66665908704591
H           44.84717975747579       53.23595941071481       62.59388372973558
H           46.38345687249114       55.01366083966911       63.27867321334047
H           46.67602811171585       57.01922502192221       61.86128648504873
H           45.38500279563231       57.23412661204491       59.77131002407879
H           43.84176966262105       55.46371001988324       59.08486052191745
H           43.96742741753646       50.24645864407498       56.97741977086812
H           44.56567707077004       50.14848650036431       54.62312257277328
H           46.41543041662389       51.56349988413096       53.74510749756881
H           47.64369727290305       53.03832519541427       55.28597869413923
H           47.05959363760861       53.09568849561575       57.67794928947226
H           43.85880386978086       50.21640181258074       59.78854900445370
H           45.32713967439105       49.65141603526616       59.00037009294214
H           47.73430963522651       51.93449637680847       61.62283601292459
H           50.12002096792158       51.40660735348070       61.48715667140576
H           50.86069373864803       49.19225308418139       60.65696089064350
H           49.17228621836735       47.52886705911413       59.96349165466729
H           46.79037617846410       48.05818551600154       60.10203083521253
H           43.95486983309682       50.96257340269385       63.98274764307671
H           44.43553376241341       52.84947122569714       65.47483342074409
H           46.69732672032864       53.13452621393498       66.42144505463084
H           48.47732983552318       51.51763503466390       65.83844029445525
H           48.00955835913620       49.66802190347744       64.30538200099234
H           43.53221864271262       45.48860190174377       64.79112678230868
H           42.27066040608977       44.53371177699824       66.65303040336435
H           42.94987110132508       45.00508373064990       68.98424607409493
H           44.92158376640683       46.42459646901216       69.41797809134711
H           46.20379715274145       47.36138829454477       67.54110620570766
H           48.69155942974533       46.11044549661383       67.12185432646606
H           50.48180324222871       47.74300987734101       67.54891727599981
H           51.50527017865831       48.98037594433514       65.66833715211736
H           50.70321737014753       48.57662204137404       63.36745423512245
H           48.93950299359430       46.94595223414535       62.94220718434395
H           49.24852605661531       43.50361507039420       67.42920980442689
H           48.02501336750615       42.09900761270511       69.03523886418554
H           46.56251225128049       40.28331767432644       68.22612625681363
H           46.32505834525077       39.89719779336873       65.79291475223785
H           47.52873880969742       41.30068682525231       64.20471020323345
H           50.23415879222843       45.34891965612366       61.18581146357080
H           49.50100808083514       45.08692940981154       58.84585713834790
H           49.53221563970580       42.86576786276282       57.78575091581641
H           50.34950349720562       40.90332051012875       59.06626215935766
H           51.01325767917822       41.15401327793825       61.38994542712471
H           53.67043591475178       41.44839275605737       66.27659132239799
H           55.69205251682746       40.09376737193840       66.59942194694756
H           57.60034169986685       40.32797690573459       65.04568836184873
H           57.42651806541162       41.85327695160467       63.11627242301383
H           55.42680007840485       43.25315326140404       62.83735900018934
H           55.61198774160948       43.61087734400643       67.51446174297857
H           54.69913581925150       42.62756518771302       69.57103297953479
H           52.34615758466595       43.04051841227288       70.20312653295235
H           50.93385482437468       44.46799196048605       68.77452498452513
H           51.83616020727933       45.43255900060423       66.70872419925938
H           56.36025121367000       49.08357558051217       66.60516897825865
H           56.01174784341275       51.48136692849650       66.98668698483512
H           54.38150143200195       52.72748069320721       65.62917800127479
H           53.08755692882868       51.54990319286723       63.87422951332768
H           53.46873861741490       49.16173343511894       63.46691765680779
H           58.35049532234573       43.82453108272910       64.00257944786267
H           60.76251981102306       43.38602279953358       64.02027505179191
H           62.36268776315976       45.23354652817292       63.63019165512445
H           61.51689343942284       47.51411221454021       63.24509807361406
H           59.11032026531852       47.95151887583387       63.20034505448942
H           38.28392669356553       48.14976655448114       68.60791521066167
H           39.96295199337910       47.63549892018042       68.80093700082801
H           39.33057318609730       48.95813572915169       69.78160697467438
H           56.54672221711547       45.22189385583113       63.74822718998498
H           55.62548347697875       46.96570726582392       62.14596323805241
H           57.27727061900956       47.48042413541575       61.84867182515263
C           58.05555307989294       45.74746199889403       60.20095584113049
C           55.54730349375033       45.51299314807216       60.20212745454781
C           55.13122487323587       46.66589790113128       59.54457013792660
C           53.94744863898099       46.68715624290027       58.83146740264543
C           53.15523106556781       45.55352851605097       58.76180077998286
C           53.55803124212745       44.39849514371312       59.40850995286559
C           54.74704758911798       44.38134341184529       60.11824980621130
H           55.72840051154554       47.56484609403239       59.60577659878139
H           53.63847679949648       47.59990194872226       58.34443387758583
H           52.22655198805117       45.56964077411460       58.21072115938913
H           52.94042024652749       43.51224513419829       59.37449146699358
H           55.05623607882805       43.47208854424856       60.61559817502075
C           58.28064508678679       44.63700201703175       59.16900482658598
H           57.97942418112866       46.70421058739014       59.67781825373104
H           58.91289871172975       45.79692718215252       60.87551362127344
C           58.51823917317301       43.29738559884688       59.80701762283228
C           59.66536148030398       43.06703166700429       60.55780623303192
C           59.90089065266497       41.82754696375407       61.12545104638967
C           58.98975769571504       40.79789514452776       60.95890257005880
C           57.83672047024400       41.02157008009241       60.22616844164153
C           57.60780581652114       42.26028631000965       59.65223581535983
H           60.38343808550271       43.86345643602713       60.69538107074572
H           60.80257830928108       41.66165882087586       61.69731487883222
H           59.17276247907046       39.82646930632339       61.39375659853670
H           57.11749309595722       40.22411473323793       60.10460982589918
H           56.71613395688116       42.42730622477853       59.06390238629854
H           56.89956059931723       44.55294748586437       61.53671144226816
H           57.41635491008154       44.57971877359545       58.50289931109048
H           59.15319526578805       44.89775385560566       58.56225731658081
C           30.89057056034452       50.75315353737978       51.50727691838292
C           30.46809578776397       51.98101138658693       52.00130814989715
C           30.15078980490265       52.07579175426749       53.35115444462544
C           30.26414738374041       50.97918321698236       54.18572734600231
C           30.69325259009245       49.76219740045784       53.68266141241063
C           31.00309018512747       49.65172258426180       52.33845896475484
C           30.36887543116663       53.18100793289096       51.09161844175410
C           28.90233662005576       53.56083713625451       50.87553199267950
C           31.17896595614719       54.35262669593592       51.66936183735956
C           31.57525450155154       55.42579535893289       50.64178643138229
C           32.10024317294636       56.63570191829500       51.37333738434143
C           33.27545188435133       56.57379338587820       52.11483808138271
C           33.76604683578548       57.69891494867932       52.75183117267608
C           33.08124489308962       58.89966610957548       52.67618224452935
C           31.89827759084173       58.96648868137478       51.96216920628176
C           31.41615131740222       57.84264186890321       51.31411222643020
C           32.62306502739400       54.89855482741492       49.65204226730218
C           33.16193086022471       55.98589386754198       48.71036354630460
C           32.03031259326702       56.61087191393942       47.93315386415254
C           31.17739438907076       55.83689079110162       47.15423857417622
C           30.11946469487694       56.41320035371649       46.47465136064569
C           29.90261246548071       57.77898349551509       46.55414597245908
C           30.76134128364982       58.56270706822054       47.30515751875113
C           31.81589568736269       57.98172756875322       47.98732171968138
C           34.22473417641200       55.42466375126159       47.74582305901968
C           35.68609819701502       55.64421182934991       48.18834192373006
C           36.01451988621144       57.12349368200660       48.13927408449911
C           36.16128548986168       57.73296104766704       46.89589559782071
C           36.47610882649624       59.07364119949368       46.78171577900665
C           36.65802957222046       59.84191608370315       47.91908575822711
C           36.50020395513897       59.25472632305809       49.16098410845004
C           36.17701924283313       57.91170978021122       49.27212810651947
C           36.03209910865126       55.03279773862157       49.54866737981225
C           35.96683208401559       53.49235954680116       49.60925414792120
C           35.60822545302985       53.08335971770193       51.01774550379022
C           36.37402758335855       53.51933893962163       52.09250004697939
C           35.97050543121584       53.28841296144520       53.39408991869115
C           34.80124586110980       52.59314263836013       53.65025873870365
C           34.06153103983969       52.09975815698956       52.59028639944530
C           34.45880713353419       52.34993602054762       51.28688189437479
C           37.29118026763663       52.87632571241244       49.14406241794060
C           37.20253847052942       51.35932393869894       48.92027515879070
C           36.16337486947462       51.02615255329075       47.87888343719119
C           35.02832656312144       50.30515794753806       48.22954833538947
C           34.06925270602265       49.98365996888798       47.28459642573502
C           34.23640956109050       50.36920275298518       45.96571469562630
C           35.36441438128939       51.08490432280518       45.60350498253418
C           36.31288516870973       51.41839133095531       46.55310712169437
C           38.58432406549837       50.82788939806769       48.51138152831327
C           38.57494180441061       49.33587827426176       48.15152091504946
C           38.07712828311990       48.50275726620995       49.30651011126500
C           38.74508006025151       48.49618992439455       50.52562883632580
C           38.28177777785643       47.74170387053045       51.58803392125452
C           37.13884292281584       46.97363487864519       51.44683060449478
C           36.46920978635905       46.96544275546259       50.23597171221858
C           36.93671052288467       47.72227848737862       49.17550293895945
C           39.96577156899084       48.83718884984737       47.72987225186849
C           40.58118324497108       49.59348209333370       46.54397415839293
C           39.66927683462568       49.64449385358414       45.34576629501262
C           39.09268855920101       48.49365732211879       44.82070683437563
C           38.28186579900731       48.55886120059165       43.70234032941620