3536
 energy: -3716.279043123241 gnorm: 0.000719125468 xtb: 6.6.1 (8d0f1dd)
C           55.01450308774949       35.14867136598617       64.46927709153108
C           56.40127997904113       35.78615513285268       64.55890405346533
C           57.12257386333529       35.27605967165412       65.80478856321217
C           56.25935266641899       37.31254005766285       64.55947672506272
C           57.56921443694659       38.10728053626623       64.50213956903930
C           57.29946809823444       39.58351130232862       64.79302030238125
C           58.32589670951136       37.92898263855191       63.17705402186431
C           57.60592794536176       38.46775642901482       61.92348690513438
C           57.44225158683435       37.35808152973998       60.88516029077877
C           58.37435975144305       39.66405743051955       61.34531432201812
C           57.65029324338734       40.46576288542638       60.25259132984366
C           58.64765591367371       41.40448399340722       59.57626183499530
C           56.47823543251876       41.24949217842497       60.85336292785948
C           55.65196276157604       42.10584899935832       59.88223981345772
C           54.58113200265383       42.84319637025841       60.68561757356284
C           55.03499182050627       41.23270314362666       58.78268060580052
C           54.03144829858601       41.91754773752313       57.84272198679510
C           53.48815743110757       40.87615945771036       56.86431435924840
C           54.69267936805447       43.09226082865309       57.11284970547075
C           53.86341900592116       43.79461462217810       56.02782591935331
C           54.75131182883383       44.83369937426936       55.34267703569849
C           52.60346355537697       44.45553704215576       56.60035252295192
C           51.53106013150389       44.79887234128855       55.55437255005936
C           50.58320115005689       45.85431367837285       56.12118730796924
C           50.75219838376774       43.54304386392116       55.14326247467272
C           49.91720638812434       43.70070325344608       53.86614494162822
C           48.86005397343108       42.59861850224363       53.79555083597116
C           50.80347172999022       43.67101486688879       52.61320061250701
C           50.24304516365027       44.48691668506481       51.43874572916945
C           50.86865544374322       44.02019456639245       50.12572097823846
C           50.50358900864939       45.97876916795274       51.67953718697677
C           49.91454176478349       46.94871404679350       50.64687954338709
C           50.46889174668856       48.34577156407968       50.91837997091349
C           48.38180994399855       46.94182960851965       50.68288687644549
C           47.68493519055465       47.68269089392520       49.53174211356291
C           46.19263767057498       47.79620885353554       49.84132096913113
C           47.91617196838869       46.96446010031040       48.19759566737472
C           47.51405154255344       47.74947115257238       46.94144712595163
C           47.64871148974066       46.82704199711383       45.72913791636064
C           48.35668389249044       49.02778197804001       46.76570085066980
C           47.51309485396045       50.29154074062374       46.55834857958246
C           46.93968224867081       50.31093585877281       45.14058715232796
C           48.31599545446734       51.57831930707807       46.79293132813369
C           48.79066317299131       51.84941567903807       48.22814906157591
C           47.62963091530325       51.91501038206960       49.21896374174123
C           49.60606235065639       53.16027963634232       48.25958705069220
C           51.10947690425262       52.99705954196263       48.53543557906652
C           51.75651218968775       52.05107282577843       47.52532820391718
C           51.35110880844371       52.56545582819410       49.98631463393539
C           52.83574530846700       52.45574128137053       50.38142741536075
C           53.16573169814380       51.01058216266377       50.75157682757742
C           53.21995482185568       53.38059116599838       51.54312285531842
C           53.14383711800633       54.88415908561239       51.25399254769670
C           54.02027339023645       55.26106037129527       50.05993015932484
C           53.61679752913438       55.69626103404023       52.47065833497375
C           52.73152976236587       55.65147899100129       53.72042283588662
C           51.40597334225679       56.36584591170968       53.46300433715204
C           53.42445712343095       56.32447972180560       54.91688644868331
C           54.65816296648493       55.60887739886939       55.47538473702019
C           54.28943664810838       54.23409877000262       56.03015060117281
C           55.32948609961496       56.41647036653405       56.59611694654274
C           55.83079873443820       57.82854845332092       56.25242528470635
C           56.70277632869697       57.83211141815666       55.00204338876947
C           56.60172502326959       58.35055227780637       57.47423305784645
C           57.17799228601734       59.77321188240226       57.40487917672462
C           57.99450376998856       60.01929950607441       58.67504265031158
C           56.05591868062620       60.80512181566886       57.25089189558424
C           56.47214047774543       62.28270116213504       57.25024459896785
C           55.21918856257798       63.13741154411329       57.43982205662614
C           57.19968166047781       62.67132831841273       55.95832734054053
C           57.96118398189206       64.00356873823021       56.04496105369987
C           58.21866379857464       64.53758581171054       54.63683010292318
C           59.28886319316025       63.85314320716904       56.81000507477949
C           59.58439610073221       64.90947709768484       57.88948552014752
C           58.63890008556172       64.76030146642596       59.07857505250315
C           59.57304785677834       66.33224673546164       57.32031092548871
C           60.03779098872106       67.44441107903721       58.27592676378598
C           59.71633691372711       68.79762838918788       57.64257457829110
C           61.53401745780024       67.31071280398560       58.58146273060690
C           62.14228182969920       68.34786613812250       59.53862163142075
C           63.65274327860978       68.12192176551258       59.60251667496176
C           61.50973038103509       68.24003021399906       60.93162876666577
C           62.12943804893266       69.11778982101093       62.03033321939529
C           61.43985728633113       68.80765845779221       63.35877969737382
C           62.00649296543520       70.60329310767364       61.66882626123341
C           62.42927534309035       71.60792330432416       62.75073820977651
C           62.09706749933456       73.01976466182818       62.26599678647818
C           63.91632018592117       71.47721481639446       63.09702648544164
C           64.33703244253914       72.30775976510087       64.30855989062444
C           65.79056806218549       72.05112534733543       64.69003911274302
H           54.49906136670636       35.46870616887686       63.56653575907157
H           55.09091452581350       34.06353312518061       64.45223039443079
H           54.41044035459856       35.43471036115597       65.32826548340958
H           66.45264308483878       72.32152453126621       63.87003068448642
H           66.06866484031345       72.64089503517467       65.56067606589301
H           65.94630148359755       70.99994594981334       64.92330053304021
H           64.14139577875481       70.43128533455680       63.31283205118438
H           64.51309181657609       71.77292986152669       62.23154133152523
H           62.60352321728439       70.79973735649259       60.77614703121519
H           60.96088637257764       70.80253585755072       61.41551417128768
H           63.18612902408214       68.85499007783582       62.13102995407227
H           61.98134035638180       69.23999996701144       64.19589496131884
H           60.42761556860879       69.20547348745403       63.36187715237020
H           61.38366941055398       67.73300786477387       63.51858651885737
H           60.44890730702100       68.49104396027451       60.86036767482999
H           61.57804755414001       67.19605402905970       61.25232672967505
H           61.72061644720787       66.32187717831405       59.00573312924332
H           62.07475933161759       67.36596787095498       57.63303844103447
H           61.84393376476469       71.42180207952158       63.65684806969841
H           62.68907894088319       73.27183422153409       61.38797748335130
H           61.04302985835392       73.08925500618420       62.00331227972644
H           62.29672010464762       73.75899527131958       63.03684099158864
H           61.96494014372839       69.34848841608797       59.13567999770104
H           64.07346487915730       68.05683843352932       58.60083281678325
H           64.15426538134379       68.93434961134567       60.12228059800213
H           63.86908821769992       67.19117885519081       60.12263083637847
H           59.47193698710530       67.36548543340668       59.20791621387080
H           60.27719429479951       68.92588595402056       56.71936281809785
H           58.65564612263124       68.86481995502450       57.40948832918200
H           59.96256952398858       69.61675144930020       58.31379193463914
H           60.21301934452508       66.35632609218904       56.43391182525490
H           58.55834876234479       66.57003694108535       56.99642592348842
H           60.59637298902315       64.69724651962517       58.24885210120099
H           58.96556409691011       65.37473118485877       59.91264043174090
H           57.62428915134356       65.04954547298554       58.81556380241631
H           58.62176321242791       63.72705945968005       59.41994270318013
H           59.31525317884434       62.87627081342359       57.29749652488078
H           60.10956460672405       63.86172772257430       56.08810477289233
H           57.32648007668625       64.72680664509328       56.56155110661796
H           58.74686712458883       65.48692150510846       54.67080836793667
H           58.82188370488719       63.82838885977776       54.07271555196684
H           57.28111082146025       64.68792350212765       54.10482604641022
H           57.90823497614101       61.88707716521609       55.68382149728404
H           56.45946444856639       62.73518110948618       55.15619241848960
H           57.13312174798132       62.46695548570381       58.09941142425617
H           54.50591686183836       62.94442972583857       56.64242584210031
H           54.74149425456991       62.90953000165912       58.39028730131941
H           55.45761093704110       64.19791297075498       57.42981849127936
H           55.51872715639158       60.60520986755832       56.32114967673412
H           55.35465108142338       60.65438326234116       58.07657832789616
H           57.85767708707315       59.83819210886335       56.54985330748428
H           57.33914552892002       60.10067363785403       59.53983829878055
H           58.68351501756566       59.19507158752950       58.85003750998750
H           58.58150547819162       60.93141325656690       58.60012461573356
H           55.94101020372969       58.29656771011514       58.34475264515181
H           57.43195708167595       57.66278310764679       57.65610716682076
H           54.96569507605150       58.47523115398678       56.07994937147449
H           56.14091386228881       57.49331335451178       54.13681460795460
H           57.05964758200314       58.83573750794229       54.79075468861856
H           57.56252179896276       57.17950465665077       55.13586179184109
H           54.62940467989763       56.49614743956853       57.43293831610782
H           56.18582556810684       55.83265210772355       56.94739138676376
H           55.38995959959202       55.46413343412742       54.67725041272342
H           53.94012382354726       53.57491706114475       55.24045868240039
H           55.15396048573964       53.76744991846114       56.49754177760259
H           53.50482061077163       54.32464708488944       56.77852231548706
H           53.70537470987820       57.33399796244501       54.61326153723090
H           52.69439966169719       56.41473649650233       55.72666187926689
H           52.51515573787075       54.61195493445422       53.97870540903492
H           51.58922452420998       57.41301506271557       53.22609386951974
H           50.86870398971931       55.91063422940456       52.63433610935556
H           50.76687099671913       56.32058412325120       54.34223834428222
H           54.61847748814876       55.34792043215831       52.72802788899094
H           53.70855625641268       56.74281547640003       52.16821152502270
H           52.11150169483851       55.15714530560449       51.01485710879491
H           55.03585867669042       54.90259473337540       50.21459813022813
H           53.64059429584494       54.83634329426724       49.13500672758096
H           54.05367833228210       56.34205936121578       49.93947246516873
H           52.57859719002766       53.14464190626637       52.39382259456737
H           54.24687212533205       53.14775908441276       51.83559270121254
H           53.45757785671280       52.72365570084158       49.52487196333414
H           54.22038264765291       50.89837713045856       50.99209786150561
H           52.58677202354838       50.69687072693715       51.61706801856079
H           52.93627083687108       50.34533143262203       49.92226249220927
H           50.85025778023039       53.28158301901970       50.64105593264261
H           50.86900449904826       51.59977853720448       50.14838953279375
H           51.56102786700055       53.98759432460850       48.40344892046846
H           51.51207377210182       52.35972017049549       46.51128807580061
H           52.83881382693174       52.05764491713607       47.62380333088823
H           51.41354349325422       51.02880531383203       47.66433314307450
H           49.48920942919707       53.67600686883071       47.30389133033700
H           49.19480465370688       53.82376321649075       49.02439022096160
H           49.43786861813103       51.02680878939805       48.54201653044198
H           46.91445494974160       52.68034272713779       48.92790139668095
H           47.10566806342780       50.96405936403134       49.27867228092576
H           48.00267617902383       52.15189074813438       50.21388652259985
H           49.19051788531529       51.55813791967014       46.13832655348115
H           47.69363463999522       52.42266221947131       46.48415620922172
H           46.67400267143068       50.27230216140102       47.26141001131621
H           46.31705829881331       49.43790068875042       44.96157899266373
H           46.32809444671268       51.19651558645489       44.97665861618704
H           47.74430387739108       50.31667721002320       44.40746942164019
H           48.98710790906191       49.16170649573831       47.64309160494233
H           49.02658790864873       48.90975993357264       45.91203217679346
H           46.45935834297129       48.02988371757336       47.02958572536471
H           48.66936959582168       46.45871678698409       45.64852199145341
H           46.98380302529162       45.96975356364376       45.82225285686684
H           47.40130078858862       47.35136578676333       44.80988654019988
H           48.97350523719044       46.71300276215696       48.09744397371741
H           47.36026691694500       46.02240999320014       48.21514610004608
H           48.08774597567062       48.69656869225648       49.47099640332784
H           45.66711664745768       48.33124375679301       49.05412568085559
H           45.74519636050557       46.80806801267749       49.93763941122788
H           46.03747057655377       48.33430926222541       50.77379151931547
H           48.02510137709419       45.90972288236718       50.67485421112622
H           48.06107797890626       47.38871345057753       51.62824250571551
H           50.25413548211220       46.63793621219716       49.65578256571331
H           50.10506568113508       49.06325254306785       50.18717895735583
H           50.17443748693883       48.68353183513913       51.90867236756324
H           51.55552185993068       48.33784638666848       50.86944150477214
H           50.12002911220930       46.25474669094150       52.66423820522280
H           51.58721592085993       46.12645073738012       51.70303728760274
H           49.16422330043616       44.30643439396304       51.38533112593927
H           50.71696206454327       42.95061853651376       49.99126312684954
H           50.41849589699923       44.52386372048708       49.27454086360267
H           51.93741509596593       44.22158059186670       50.12030275450231
H           51.79673710116586       44.05429097336511       52.85484293583036
H           50.92693561874432       42.62926766301786       52.30514624516501
H           49.39147302292693       44.65847697464559       53.90594841201351
H           49.32875342241053       41.61655577937650       53.83825867935440
H           48.16196410066094       42.67940084639783       54.62643085271117
H           48.29373209213486       42.66524013179853       52.86890479610613
H           51.44536216430558       42.71252444477635       54.99172749303000
H           50.09167564945001       43.26645339769149       55.96816165056886
H           52.01832215243616       45.22178917037411       54.67104737254364
H           51.12335054610163       46.77323723852922       56.33519267857321
H           49.78668596189154       46.08934693470813       55.41961505585327
H           50.12843288344225       45.50005232142217       57.04476070878556
H           52.14598876726206       43.79845850306108       57.34228329661804
H           52.90327575188888       45.37073814703142       57.11763444912410
H           53.57150351514493       43.05694731438649       55.27657512275859
H           54.21793895322648       45.34169154633787       54.54501230955599
H           55.08664730948614       45.58014118971163       56.06042239970065
H           55.63083377531008       44.36074006098148       54.91021060404145
H           54.98564711958940       43.84275820668769       57.85009001800099
H           55.60872183401898       42.71787102385106       56.64493100458130
H           53.19165857723722       42.28287126430779       58.44085693230382
H           53.15110426005278       39.99098233716214       57.39970121030539
H           52.64268610688816       41.26634859755072       56.30504723145010
H           54.25844839779849       40.57297125269746       56.15828227200767
H           55.83830962096287       40.82091177859694       58.16710730560117
H           54.52804973682496       40.39274354326258       59.26440571765471
H           56.30857398355477       42.85144411645334       59.42659964520688
H           54.06289837655810       43.57718626634932       60.07495942536904
H           53.85080113523691       42.14047800131461       61.08202289319682
H           55.03323832718231       43.36935613337346       61.52384507162964
H           55.79594739391337       40.54577180475587       61.33640464967425
H           56.87747323199179       41.90478944855934       61.63148079849710
H           57.27302155512671       39.76893100538534       59.49890718629643
H           58.99089034652105       42.16237634463199       60.27758044274074
H           59.51557181351418       40.84918884108910       59.22351963973856
H           58.19587378577309       41.90215926680052       58.72279577126491
H           58.62059018637198       40.34975973829560       62.15922906126381
H           59.31815507533992       39.28971713497419       60.93767492856966
H           56.60474208842868       38.80047898780508       62.20567739305355
H           58.41422556739780       37.00250652516203       60.54687436101655
H           56.89820256497443       36.51748496640281       61.31140303328480
H           56.88659253632519       37.70877299021147       60.01853238883216
H           59.29263881519142       38.42670024189339       63.27880364457208
H           58.53810973603511       36.86681209410859       63.04569829026575
H           58.22907921250221       37.73574771786019       65.29395998266797
H           56.88966646067224       39.70819774998740       65.79336799743069
H           58.22494284180534       40.15242511927377       64.73446637482336
H           56.59418044919584       40.00372491252929       64.08053088898781
H           55.63456412143768       37.59924699915424       63.71136548546689
H           55.72106794102833       37.59677859808411       65.46803748176765
H           56.97318374005090       35.47748012256898       63.67756585303696
H           58.15242197880147       35.62197814816894       65.83429307388650
H           56.61507399056176       35.61909412192587       66.70455249344781
H           57.13524930479526       34.18812155614584       65.81441805252774
H           64.21181236116827       73.37090881687448       64.09678521894094
H           63.69254946066236       72.06011159119386       65.15608085457596
C           54.91278200882324       39.23325745885472       49.94520045964296
C           53.61622104961069       39.94705912573123       50.31932601661483
C           52.55036160527462       39.67526259544012       49.25721015774602
C           53.81561203040309       41.46033184429223       50.46411529038868
C           54.81809552155251       41.90959330452559       51.53218613939571
C           54.45467273943574       41.35008728980491       52.90752848502301
C           54.86423973600272       43.44104382598957       51.63801288838246
C           55.19426065522645       44.22791180234722       50.36207328423514
C           56.54066192991653       43.80435400417902       49.78205948528068
C           55.18808519560538       45.72411105397664       50.71082276902365
C           55.20682041301415       46.70861810975946       49.53095028873779
C           55.48674780134876       48.11028092845534       50.06893459402457
C           53.87920885668581       46.65363543608613       48.76383639240276
C           53.67464841018252       47.69410564505888       47.65215310309734
C           52.25276625327676       47.53459811216226       47.10939174914804
C           54.71608391748769       47.57092176048286       46.52508262792335
C           55.27908399880397       48.91108131318727       46.03501563702258
C           54.20020118949522       49.77256544698031       45.37947717850779
C           56.42261411943204       48.70889903207825       45.02985853952217
C           57.72526284229460       48.11051053413412       45.57211532295180
C           58.28529797331570       48.95725687761581       46.71404416754581
C           58.78488656228742       48.02808548349309       44.46040808133129
C           58.46844950383889       47.09453057060441       43.28747069876723
C           58.39625599375958       45.63906200157100       43.74768070935891
C           59.53040978858930       47.19514324632895       42.18185685987375
C           59.77428425917432       48.58373034216724       41.57649534794229
C           58.47592184994485       49.24468604110528       41.12156019999622
C           60.74770481563877       48.45887906105840       40.39187816161627
C           61.59460111573917       49.71622250410287       40.15397650503626
C           62.26053894200152       49.63652154660434       38.78038904528148
C           62.64599371649415       49.88977521179137       41.26771016707180
C           62.56993388626095       51.23032455710649       42.00726880552166
C           63.07722957124829       52.36215016952420       41.11503806055656
C           63.39259933947567       51.18979430134323       43.30255559912766
C           62.81711661944500       50.33546113620797       44.44271333506953
C           61.51803546534304       50.93441637197159       44.97378430507879
C           63.86267515005241       50.23143257911457       45.56259534490944
C           63.60373498529694       49.14556749313900       46.61724244411445
C           64.40840201673822       49.46437474473525       47.87688639228828
C           63.97100625732693       47.75755997322464       46.07680504469534
C           63.44099477052745       46.59185482414636       46.92232330387669
C           64.24244249909972       45.32369638908700       46.63054860873220
C           61.94671901781983       46.34342417091018       46.67728310914147
C           61.22708616325359       45.70722303170452       47.87609310966648
C           59.96259591073971       44.98707809778657       47.41250544091764
C           60.87443892204694       46.77795829110947       48.91619358944246
C           60.52537625585728       46.22794359846829       50.31084339033890
C           59.17970283458575       46.77629512468950       50.78455519792600
C           61.60221931047853       46.57824126877301       51.34376443286397
C           62.97495640273775       45.93917680673568       51.09697855947765
C           62.92825367746484       44.43520624342642       51.34540032335843
C           64.00092841866123       46.62044800896442       52.01035872646178
C           65.47661464615153       46.24075671116564       51.81847341078741
C           66.28072898429203       46.86840732618604       52.95507539664765
C           65.98451571526164       46.70672135747235       50.45028243967512
C           67.43644618980137       46.36098906509446       50.08379936178987
C           67.75508606117998       47.04744473243867       48.75505688797879
C           67.63807223667841       44.84303288668016       49.98973552886896
C           69.08429938762961       44.37546157212057       49.73591561642709
C           69.09879471323072       43.28934284596155       48.65774611177515
C           69.76236892404405       43.82525393241670       50.99918679077955
C           70.05172961130189       44.84639645417388       52.10824214720596
C           71.09547496735152       45.86084461609747       51.64697551521751
C           70.52497094497716       44.10045032886605       53.36577407395620
C           70.63572416573804       44.94021594075625       54.64827121831535
C           71.43950979072528       44.16022306729172       55.68910869163884
C           69.25576439687015       45.31204392086138       55.20313369006190
C           69.25655130764808       46.48882806899919       56.19017724814968
C           67.86824635012539       46.61850885038027       56.81713801936561
C           69.68324279732506       47.81126463286377       55.51879450219082
C           70.91125371692364       48.46108856623405       56.17098803211811
C           70.54802753807355       49.04783666640578       57.53472086008473
C           71.50918080282914       49.57650826708219       55.30066166411115
C           72.23382195793279       49.13683834551874       54.02316291215715
C           73.36345878786747       48.14952763131227       54.32230195860391
C           72.84588777026116       50.34473423520767       53.29671050356163
C           71.88168262610195       51.42364356369782       52.78453880090871
C           70.93256882598020       50.86399227526461       51.72917052159004
C           72.72459781988829       52.57983037022164       52.22523775144335
C           71.96484897995533       53.84814198885569       51.81293336532704
C           72.91816701212791       54.76889402889871       51.05024943096197
C           71.38445514870438       54.56866520978524       53.03501440756907
C           70.30447171913164       55.61409556675773       52.72047316117386
C           70.13490787361496       56.54594708000520       53.91894796783338
C           68.98578671790331       54.91848260466264       52.36646267765761
C           67.84259229468857       55.82894551902854       51.90113824869201
C           66.63343702908919       54.96473487980718       51.54223919239081
C           68.22600481353722       56.76672982011879       50.74850161996463
C           68.71396665743958       56.08049207377488       49.47539162305844
C           69.13693292910774       57.09939896493484       48.42371057786446
H           55.64248491939723       39.30456955358571       50.74733230769521
H           54.72517610638101       38.17840020461094       49.75270948766408
H           55.34283352213846       39.67260589841788       49.04653160350159
H           69.95194211489253       57.71632263835365       48.79888207058791
H           69.47800365009741       56.60008146977917       47.51860467431214
H           68.30700952455666       57.75322613560183       48.16247646389719
H           67.34963729230131       57.37172354967097       50.50083586935099
H           68.99820539107000       57.45867465845195       51.09385158810136
H           69.17430552833373       54.17866275132234       51.58628308751763
H           68.64166977448855       54.37058978517933       53.24847138616511
H           70.63744446369871       56.21040708151269       51.86691742042150
H           69.82467038270801       55.98196526884914       54.79504378798358
H           71.07482821455302       57.04538214352240       54.14959308210107
H           69.38858770524470       57.31029851487192       53.71991750497558
H           70.95339094504837       53.83564334452527       53.71791655440465
H           72.21114122566145       55.05482274353011       53.56066016729649
H           73.46778179531843       52.86349883115798       52.97589819964790
H           73.27162511850011       52.20650440046626       51.35456220993133
H           67.54864714648456       56.46887153325372       52.74017434544091
H           66.27388495051208       54.43735160873628       52.42341281595592
H           65.82000359868326       55.57401582863046       51.15657724676691