3795
 energy: -5103.659967494785 gnorm: 0.000895142897 xtb: 6.6.1 (8d0f1dd)
C          125.18570389413213      123.49302903314815      121.28091742220576
C          126.09966197923643      122.33217645356189      121.57309150701930
C          125.08559554486089      124.47020122719796      122.44614904408503
C          124.07165408134983      125.56964780348964      122.15163999306377
H          124.78672951992685      123.92730238215206      123.34422750753785
H          126.06578395884078      124.91041237699790      122.64029278694191
C          123.94367023330547      126.55728242563293      123.31571034961358
H          124.37838021241501      126.11540366788662      121.25689681612334
H          123.09741883510874      125.11609798800670      121.95869203234496
C          123.01529946913014      127.68120263271823      122.90282759653499
H          123.54863747434267      126.04973817217721      124.19492457291587
H          124.92273262485888      126.97930606168565      123.54644016956064
N          121.73300779430019      127.47715092656878      123.20281223069928
O          126.16321274475182      121.48033741307401      120.56905310480234
O          126.71101978117605      122.18186030185529      122.61069246959374
H          126.62492714272133      120.62594218305041      120.81952668633980
H          124.19851178555463      123.08338540104940      121.04758844479262
H          125.55616827766902      123.99716801677414      120.38610202156285
C          120.65646112189384      128.37798865981514      122.84621470010907
H          121.48353850887717      126.67843486006457      123.77827569898723
C          119.40243053948534      127.57522520747348      122.51728800807500
H          120.45443509266069      129.06209539871736      123.67933751369998
H          120.99125970612099      128.97096844862929      121.99174074624001
C          118.16525810114744      128.44404917951204      122.30186090209845
H          119.58853571976725      126.97331574334797      121.62707232507742
H          119.22012684209898      126.89812183092971      123.35292541990707
C          116.91115756420483      127.58053292359017      122.16550489516588
H          118.04634877339433      129.11853923825996      123.15218545358994
H          118.29222875860168      129.05728314631386      121.40901068647059
C          115.66044182300928      128.41333175205969      121.88606264917917
H          117.05254817884219      126.85714824846032      121.36181884885214
H          116.76961191159360      127.03142963288481      123.09696660280052
C          114.37044907967946      127.63386926642002      122.11177612271203
H          115.64273077594366      129.27384490175504      122.55679266669395
H          115.68763898592169      128.78993035245128      120.86218169047896
N          114.23289598078235      126.51559030080627      121.19755624067925
H          114.33075489670692      127.24492550080721      123.13456216962553
H          113.50858106887796      128.30066992656478      121.98383939577884
C          113.34754742174738      125.53269602061644      121.39130362436374
H          114.88975155916944      126.45423082152462      120.43074860447778
O          123.42178128545456      128.66858960569266      122.28821965966583
C          113.27943835996766      124.51929616155834      120.26609191611473
C          112.48177152181640      125.04542911350556      119.06415998404199
H          114.29105569082522      124.28260952073339      119.93521977962310
H          112.80316601963142      123.61322206217829      120.64415894452038
C          111.01820900345191      125.34284782344832      119.38635572951688
H          112.95533585275544      125.94341126698201      118.66635619842097
H          112.51189137769737      124.27696839839875      118.29228588582826
C          110.11984814080451      125.32184184289561      118.14049231839455
H          110.64110970986742      124.57869294817135      120.06859364727666
H          110.92133655862213      126.30308399757709      119.89738287991931
C          110.45783829375176      126.41019644978628      117.14361286491550
H          110.23705496304808      124.36022198456388      117.63946411616531
H          109.08165802922103      125.44184709206647      118.45337371161708
N          109.72187745685839      127.51741732870789      117.26807370749215
C          109.93507197325626      128.72250834987528      116.50087569219588
H          108.98498358014228      127.53983591082300      117.96492586442146
O          112.63321916405494      125.45833894429003      122.39041301243893
C          110.40663352786072      129.87732828278621      117.39168769544702
H          110.67976456466839      128.49781135010051      115.73614718474037
H          109.00110918325798      129.00183245573712      116.00311324632780
C          111.65812876023935      129.53814603212740      118.20402017874289
H          110.60190514164037      130.74164524191852      116.75564869032851
H          109.60326926531204      130.14258156213751      118.08325582123820
C          112.84828207055526      129.15911964985287      117.32735484251951
H          111.91739056265583      130.40470347407134      118.81591755077682
H          111.43075586959647      128.71289373203308      118.88271373830754
C          114.11117691986647      128.89535088194046      118.14342713582636
H          112.61024272538350      128.25569022092071      116.76563283680962
H          113.03983443042351      129.96334080565978      116.61421468285202
C          115.22483578713840      128.41031023714987      117.21550187916402
N          116.45382502486471      128.09443425902933      117.90699165960559
H          114.88101899679208      127.52390188055891      116.67615791653974
H          115.45786951686340      129.19907381701876      116.49619834802958
C          117.57261545003372      128.81670940240221      117.76485884215091
H          116.46625187309898      127.26016037342909      118.48901699936131
O          111.32316903839511      126.26622248340388      116.28196701805091
C          118.75978937698849      128.30395147021582      118.55924452350929
C          119.91949616681430      127.96160881558829      117.62180223318855
H          119.08088658067631      129.09427022421264      119.24016496084069
H          118.46587650869527      127.43181020459700      119.14203383195732
C          119.53559899428377      126.88604007852776      116.61127135157585
H          120.22254181418484      128.86645710499698      117.08937551824414
H          120.77555192158083      127.63134797912811      118.21264942870998
C          120.65307529605894      126.65255627989775      115.60236865958717
H          119.30936290248675      125.94947683604775      117.12420156493928
H          118.63531493434556      127.20434871286270      116.08172305893174
C          120.32435383929419      125.57419898799687      114.58724987841074
H          120.90337135957303      127.57998763951230      115.08614689905878
H          121.55369069808604      126.32581578300389      116.12989992828328
N          120.98082232901342      125.71114390578056      113.42885248152560
C          121.04881799269744      124.67145610185077      112.42507521094848
H          121.62188614722645      126.49186538109967      113.33830907245024
H          114.42672695333461      129.80659312849656      118.65512457005387
H          113.90386463637667      128.13718398542110      118.90114223974309
O          117.64615344497872      129.80095051284218      117.03291532899495
O          119.54170780556994      124.65802140149482      114.81866846610613
C          122.45442888040147      124.05833032880200      112.37575251305627
H          120.32171190349170      123.91114997122156      112.71539684975923
H          120.76351510296539      125.08142969075489      111.45374288269834
C          122.44813214466595      122.58959494919810      111.95137547933265
H          123.10144557658685      124.63449390947457      111.71319263651505
H          122.87794600873062      124.13316912911495      113.38003066743623
C          123.77926015757662      121.92349505567491      112.29350375190820
H          121.64689557936691      122.06541569344002      112.47674335970477
H          122.25393751909635      122.51441684096594      110.88275598335278
C          123.79404397201179      120.42599177100966      111.98211824534479
H          124.58798190604558      122.42270061909888      111.75891114219876
H          123.96006050332500      122.04943929554223      113.36357455939608
C          124.85184143479468      119.72368253241596      112.82653432864086
H          122.82096880174920      119.99351509833656      112.21681488078561
H          124.00256652579026      120.25513798000672      110.92504102878432
N          125.02968770003055      118.33935890767700      112.44174253554468
H          125.82003020839575      120.21682123547409      112.70836953474175
H          124.57084580283586      119.77993762259099      113.88612427663115
C          126.22180801966573      117.74722804237818      112.46566970103662
H          124.19579701342657      117.79531821165394      112.21686588216275
C          126.27048603785974      116.31689689971195      111.97637605895488
C          127.01748955268124      116.30732755987070      110.63879762776563
H          126.83634369558854      115.73258958276514      112.70677765146786
H          125.26958052634066      115.90116438583011      111.87451307819258
C          127.50280353272817      114.91903594395032      110.24443174173301
H          126.37774200285934      116.72651161880262      109.85864370028563
H          127.88864098029900      116.95775320870568      110.74374400907797
C          128.37948458277376      114.93738748410424      108.98586299159419
H          128.09616615363026      114.52164641420407      111.07023010480924
H          126.65510050847155      114.24700125098155      110.08696333894153
C          127.53815855928589      115.21751844777391      107.75771000560459
H          129.17097198278191      115.68063223224226      109.08068989729122
H          128.84067281664531      113.95513243043500      108.87102045949008
N          127.61273254257452      116.45648375659964      107.29080451453466
C          126.88091326331011      116.97489140937336      106.15514884630683
H          128.34156413978411      117.07079965198996      107.64712939602268
O          127.24424158903251      118.33393209016634      112.83023929873194
C          127.82314727443080      117.68613263655722      105.18207470438917
H          126.36521011589758      116.14036200112076      105.67346593285082
H          126.13514487646033      117.68328366325443      106.53025169137382
C          127.07580939978403      118.59750785765991      104.20749368439290
H          128.53653682240036      118.27424619558037      105.76142895391789
H          128.39071814412588      116.93939190733209      104.62619890058123
C          126.56432946397959      119.87946195798642      104.87419428198888
H          127.74193400995338      118.85863571648476      103.38370511084248
H          126.24489091163558      118.03829422897164      103.78041704874261
C          125.25686593392935      120.40077267132915      104.27170152838806
H          126.42558544520286      119.70979031543250      105.94062325875063
H          127.32288272967109      120.65847568514590      104.77925648872915
C          124.05523247584901      119.49839569746590      104.52751110588100
H          125.04692350664546      121.38820211154962      104.68511933284209
H          125.37248883347009      120.50989555665460      103.19239648809206
N          123.70664500071594      119.43456682109982      105.93366537097980
H          123.18272709640527      119.87433740337939      103.98192568415425
H          124.25560206593293      118.48465669484462      104.16284181167453
O          126.80628491696497      114.34335679186513      107.27893446502102
C          122.57696997018812      118.86904993767615      106.34515737861356
H          124.39846186109857      119.72919399343442      106.62040562936890
C          122.36268747413244      118.87885385653695      107.84622450727150
C          123.23218803242020      117.83589973765991      108.55997303067250
H          122.61682844831935      119.86787204063171      108.22585530053770
H          121.31189843619835      118.66883771099990      108.04947415995133
C          122.87977426724062      116.41731342883143      108.12369585994536
H          124.28611744673739      118.04124343216260      108.36656922021214
H          123.07237833249800      117.91411459702699      109.63599918383925
C          123.48140678518389      115.35892710150391      109.05327817962296
H          121.79471702406209      116.29819683516172      108.13470275990177
H          123.22798925723669      116.24156819978222      107.10271871901564
C          123.15080932181820      113.98918149225152      108.49477791208740
H          124.56139071828967      115.48218345412943      109.11300378860190
H          123.05309008398847      115.47041982379064      110.04984325224780
N          124.10467104644653      113.47593428683074      107.71879333137551
O          121.75250070283758      118.39087367505073      105.55761058718724
C          124.02195452611205      112.20924251987896      107.03044610598451
H          125.01825111546714      113.91480523051305      107.67570574757157
C          124.74290471723131      112.32756055607284      105.68960836608090
H          124.49178704688630      111.43343146854225      107.64642208441332
H          122.96532738859783      111.95962174884554      106.90813808701277
C          125.01872738516002      110.98149527209897      105.02678936151811
H          124.15864725651683      112.96287772649721      105.02398898771672
H          125.69176915312657      112.82937210801563      105.87891443423145
C          123.77264710471808      110.29835994167658      104.46255330173469
H          125.74932584977584      111.11453494034141      104.22703239575024
H          125.47329885983132      110.31435419846717      105.76286588216946
C          123.09382167288632      111.03559966972016      103.30811342384992
H          124.05305034523965      109.30036601059054      104.11922621469202
H          123.03815616497162      110.17648652485626      105.25879190057478
C          124.00473899510106      111.21554319666487      102.09997085844849
H          122.21472086520929      110.46025056240163      103.01072173338164
H          122.73915335532067      112.01182627808724      103.63957717442176
N          123.25284815564063      111.75940359598665      100.98849116795321
H          124.83732658408512      111.88629456906156      102.34041340256572
H          124.43506549199024      110.25713287463044      101.78946205850006
C          123.71168630158201      111.78121275036327       99.73315368150412
H          122.39824339393334      112.26298845243032      101.20609365008252
O          122.05976620079244      113.44934417458732      108.66916427152188
C          122.71370712112487      112.32548744988036       98.73175164345318
C          121.71112080081355      111.22157626257564       98.37192939464302
H          122.19074305774271      113.17336269783495       99.17293039026288
H          123.24430323545283      112.64773530938986       97.83558657755985
C          120.52714751266241      111.72568575189037       97.54609036668202
H          122.23790097074405      110.45666728751624       97.79962540018114
H          121.33717692780887      110.75509441935594       99.28555198552628
C          119.50524299067538      112.52656386995078       98.36106719368593
H          120.89314313176043      112.34201588118425       96.72346823612602
H          120.01530903927912      110.86171133773421       97.11645310309311
C          118.84269085939304      111.64195450648313       99.39973841200857
H          119.97015022967022      113.37840781600570       98.85160886851929
H          118.72895820610361      112.89638691342665       97.68979891448595
N          119.33007812182717      111.76157773947463      100.63185163245080
C          118.84061701691813      111.03867955468006      101.78645697645831
H          119.98151218350068      112.51581366797076      100.82845463063876
O          124.82789948157563      111.36410028917928       99.42632961127789
C          118.63684886453879      112.00319390737758      102.95027657387034
H          117.91400101568784      110.53332595403694      101.50662558606068
H          119.57000723294807      110.27049099195854      102.07421573137260
C          118.34281310574009      111.30220661315364      104.27465073859388
H          119.55901461302146      112.57693417340430      103.05400978308850
H          117.83467360965459      112.69990779894592      102.69834386448287
C          116.92504562849481      110.73944703032546      104.35797613113367
H          119.06881087452801      110.49996352529546      104.41075118432316
H          118.47708121361283      112.01913829550973      105.08813855908902
C          116.61599939910980      110.14958664373709      105.73419605293489
H          116.21691804433185      111.54661324629831      104.15460179963721
H          116.78543382936510      109.97149673323828      103.59617965467180
C          117.34111046458327      108.82648877756962      105.96462019242533
H          116.91880564100651      110.85402910097478      106.51137632768499
H          115.54093481453546      109.98503041876216      105.83089937640692
N          117.29985633211943      108.43013854945335      107.35613645231361
H          116.88516283309427      108.02862787837080      105.37390161896174
H          118.38783363775259      108.90865058107183      105.65440458254778
C          116.94249747619841      107.21727149236773      107.76198151311232
H          117.53987750757634      109.15225155498386      108.04012938161283
O          117.96217113402280      110.83145463986222       99.10088596341818
C          117.07440960036287      106.95664870596173      109.24790645119462
C          115.98844784082557      107.66512440892654      110.06045857587245
H          117.00218544103075      105.87824838167460      109.40444208847863
H          118.05854484085093      107.29040527012580      109.58064477095482
C          115.99452930642877      107.17736163285529      111.50766009718461
H          116.15821872465838      108.74236612965242      110.03005226182367
H          115.00900293677793      107.46089158756401      109.62475567445303
C          114.86120415567162      107.80732269494862      112.31364040685376
H          115.88118116459590      106.09173516010527      111.51744701883604
H          116.94302968795901      107.42867263977085      111.97894125567208
C          115.18057910228266      109.23138305696739      112.71615564492529
H          113.94217059675607      107.76307906787517      111.73191880583653
H          114.71368684348188      107.25243298480822      113.24365343966556
N          114.27079866800747      110.14018555527907      112.34370367555749
O          116.54638703628177      106.34253699018596      106.98656706720764
C          114.23537006560866      111.48883827009095      112.86934737993202
H          113.45427641676356      109.82148630872895      111.84545801081271
C          113.60898030187148      112.48304028091449      111.90230361823059
H          113.65637550038529      111.48111678660808      113.80111711504681
H          115.26275859808634      111.76655903325505      113.10799035957031
C          114.51209029352329      112.90430003844462      110.74522548347466
H          112.69241220941093      112.04712967398795      111.50544605616143
H          113.33478137069218      113.37231230538630      112.47236626677200
C          113.85773197076479      114.04480001992019      109.96678806809575
H          115.47251021143285      113.23680771567554      111.13868315710654
H          114.70173416900650      112.05388402444278      110.08842508470890
C          114.68654394231781      114.50366893889617      108.76992709843644
H          112.87259797281575      113.72520315731252      109.62203785901698
H          113.70693735522401      114.88892746676466      110.64130841547434
C          113.96804837348279      115.62585794933545      108.02775276618458
H          115.66025463696023      114.85968844736293      109.10832896042542
H          114.85813962018113      113.66754213303085      108.09109422707576
N          114.74214702981581      116.09448818693372      106.89651524755104
H          113.00404467943322      115.27901710829126      107.64763858338162
H          113.78037724342168      116.45764561163084      108.71324494333595
C          114.19401129259346      116.40881311010695      105.72558977585486
H          115.75367452603429      116.07796067212080      106.98242880495904
O          116.18757269927362      109.52721725379827      113.35529733435948
C          115.17112565235297      116.75421044798338      104.61703418191516
C          115.00491380867251      115.73814163774107      103.48577519965238
H          114.94275981075239      117.75640111771479      104.24703212735524
H          116.19135211722744      116.72955407721678      104.99398548729140
C          115.91821440536141      116.02863504773308      102.29943129430818
H          115.22578749220392      114.73972746675884      103.87124208254453
H          113.96366156420241      115.73875629383124      103.15421523376074
C          115.65121225990680      115.04603695224343      101.15711614366414
H          115.75689553632911      117.04639846582627      101.93820422621606
H          116.95940347263792      115.93967460531579      102.61270656937644
C          116.69211261868016      115.19398678837265      100.06531107355892
H          115.70685987128181      114.02287740064631      101.53297402823215
H          114.65823094846989      115.22438474247296      100.74266792671821
N          116.48442474208518      116.22624183764076       99.23847382811735
C          117.32160897698188      116.48879372374959       98.09012063512874
H          115.65795091348456      116.80092526423793       99.35959683440774
O          112.97886118806892      116.40707366348641      105.52811625976084
C          116.52307823321601      116.48300634844158       96.78532807227582
H          117.81844048151301      117.45789896133141       98.20935807565679
H          118.08225854948287      115.70367635379255       98.07703458727899
C          115.66600229393046      117.73792586183274       96.63292942574307
H          117.22105075335013      116.41605710965609       95.94885110614581
H          115.88530044143155      115.59555673059207       96.76503470604375
C          114.86309563706058      117.73318436168945       95.33384725312176
H          114.98725983057557      117.80935302393409       97.48272562734697
H          116.31894591792877      118.61411644875899       96.64126248233177
C          114.14359251392202      119.05860217744042       95.07631651194581
H          115.54230548290593      117.54577522700131       94.49893568105449
H          114.13557696925022      116.92186071436619       95.35247763758220
C          113.02425588081083      119.35749994746750       96.07074455090797
H          114.86898649694268      119.87264451028302       95.12622200439121
H          113.71816961362633      119.04906758186918       94.07117615359641
N          111.82304873864237      118.59049542952997       95.80908432693231
H          113.36037774295626      119.15042437645661       97.09265407172931
H          112.73878426699139      120.41239428594197       96.01365012051012
C          110.60250043368829      119.13209626472327       95.87440385447526
H          111.93131422326653      117.63141604808833       95.49215954708529
O          117.66152375486064      114.44662262435853       99.98287240882492
C          109.45345175132978      118.16802818527108       95.63040030675603
C          108.34749364005407      118.43004763306735       96.65383291580828
H          109.07280086180423      118.33523212478755       94.62026967767308
H          109.81490974627064      117.14191291062058       95.69303208095428
C          107.21375244052868      117.41108711048120       96.58423260361499
H          108.78755000120471      118.40641534722607       97.65323105863544
H          107.96033624781700      119.43865568295831       96.49092702722839
C          106.09491230949507      117.74865017612930       97.57161991652480
H          106.80484832940034      117.38572386769455       95.57278812939727
H          107.61128858294104      116.42194461311334       96.81818780076102
C          106.57416943663478      117.70739973974399       99.01308783914435
H          105.69376450680146      118.73883656184530       97.34955317484514
H          105.28570632454708      117.02172603737884       97.46753373602004
N          105.79043398723785      118.35834798310397       99.88696258555979
O          110.40954983821130      120.31581336036265       96.14851736421728
C          106.16773888272580      118.60673217248802      101.26406603016612
H          105.01637606263934      118.90103643220465       99.53484973750379
C          106.61734711535279      120.05636493475184      101.47135510156058
H          105.31346951499488      118.38380887751491      101.90754950038718
H          106.98484182497489      117.92639927364257      101.50938831851785
C          107.75940222502057      120.43868610906947      100.53012504745679
H          105.77292198581630      120.72855488667660      101.30431168270989
H          106.93916790646507      120.16811992835433      102.50732511076532
C          108.20749257175171      121.88810912048386      100.71144075457339
H          108.60011970379784      119.76449535722105      100.69633764414581
H          107.43817356743875      120.30633969299902       99.49369558261597
C          109.12264178173260      122.37552195164427       99.58816740474366
H          107.32310140723189      122.52927319173854      100.73481332143008
H          108.72238622320664      122.00114661917392      101.66740992412835
C          110.50660964193085      121.73023143268541       99.59501958252469
H          108.65597314512944      122.17459028858526       98.62009026944109
H          109.25771715953854      123.45527304608073       99.66892977666485
N          111.29719190422300      122.25473267095477       98.48820082504081
H          111.03088422457861      121.98002588578564      100.52246294771774
H          110.39862919657372      120.63332046702654       99.54387660577989
H          112.23424383943443      121.87048214854039       98.54011257781700
H          110.89662751200900      121.92945762150821       97.61187594677348
O          107.57329877574273      117.08907124936793       99.36090675715096
C          126.34441280454720       99.67283738309955      103.85903655874401
C          127.30453227190111       99.98351759196021      104.97962143397797
C          125.14760443865795      100.62628591526851      103.87451527125921
C          125.57445887346155      102.07354313864093      103.63616643959223
H          124.44665881691172      100.32781355419979      103.09321681129489
H          124.63944345417391      100.55021422302740      104.83714024906315
C          124.38855527372215      103.02491727981290      103.78207604353817
H          126.35059983164564      102.35031680921776      104.35403967683857
H          125.99500228114684      102.16401786843916      102.63206227905387
C          123.36120557730494      102.79131958260872      102.69259658079422
H          123.91774555849926      102.88601646894155      104.75349968387130
H          124.72535117625263      104.06190916326493      103.71133738523608
N          122.09959981075028      102.73265737305293      103.12530716743017
O          126.75136368818669      100.07671040268980      106.15468935831750
O          128.50563288546499      100.13261817409716      104.79893718426217
H          127.39458192615130      100.37138591018315      106.89088932634243
H          125.99604222839294       98.64736023019016      103.99473594510395
H          126.87965126019216       99.73889383714510      102.91001607251059
C          120.96068527008264      102.46985091293682      102.27009735777595
H          121.92419577332102      102.72478848980572      104.12431904990815
C          119.96237761593676      101.56664147583828      102.98311183818385
H          120.46628432022500      103.41207416472457      102.00144564703997
H          121.33136071461753      102.00374191450713      101.35342577525883
C          120.50225880783329      100.15333626376425      103.19914379179991
H          119.74273428551649      102.01340153277616      103.95515835221883
H          119.03914636599350      101.54434699541855      102.40509070112944
C          119.78247170419790       99.42152866069407      104.33016190141946
H          120.41790776335499       99.57973213677845      102.27407263887058
H          121.56123588857969      100.21980538319966      103.45838185514664
C          118.29734693388694       99.19902126617947      104.05526786689539
H          120.26134783992494       98.45318261296879      104.49256811402113
H          119.89712700482423      100.00148318026994      105.24906251327577
C          117.58955146769112       98.55460759394208      105.24577660110167
H          117.80734147436272      100.15089537385558      103.84627804648356
H          118.17322676784745       98.56002716753829      103.17995843455617
N          117.55846650954581       99.46490312040835      106.36941056632895
H          116.56531256653699       98.29575762367946      104.95862659827290
H          118.10897345477657       97.64946201766885      105.56932522748700