3258
 energy: -3427.467517539017 gnorm: 0.000845334915 xtb: 6.6.1 (8d0f1dd)
C          109.57307837424163      106.07733706499042      103.92432690315344
C          111.04067635157105      105.69588287619507      103.78290493811183
C          111.93773253733933      106.89544263008960      104.06240638835263
C          113.42851698632974      106.63304748006105      103.85941759896093
C          114.17731130517964      107.95862977790658      103.76118910535230
C          115.68192736083347      107.81904580104468      103.56464936695886
C          116.37592740161882      109.17725272023017      103.44101425775220
C          115.94248190475268      109.93683951965872      102.18888006915608
C          116.79342958235461      111.16531502923274      101.87900759288186
C          116.58154052829848      112.34367991671832      102.82766987070376
C          117.34514942755520      113.56154093501820      102.31472043578523
C          117.18729413765863      114.81126996386584      103.17411820481971
C          118.03162817907143      115.98391792854036      102.67080899303078
C          117.65874651186850      116.42314257851531      101.25740757703755
C          118.43013140672264      117.66261942115877      100.80996511706570
C          118.16863691677382      118.02385766784278       99.34586867402125
C          116.71310174763816      118.40338038123478       99.09004141917711
C          116.43525178862043      118.83490570008037       97.65203319084944
C          114.94356974206258      119.09687612283979       97.46089080142015
C          114.57932412671001      119.58378017663317       96.06121092489293
C          113.06808740154148      119.75123180940253       95.88994349007295
C          112.49999493782283      120.96102856259860       96.63000976252948
C          110.97321914646318      120.96177188182425       96.62941054044005
C          110.39478905438745      122.16410020855729       97.37290853211897
C          108.87075150153291      122.10393342632416       97.49910388821831
C          108.39712964379153      121.16880656453141       98.61080227285554
C          106.87659272204297      121.02894263644755       98.61824599933432
C          106.37688510144675      120.12547807181842       99.74558764833098
C          104.96022131185282      119.60348420023332       99.50607432298857
C          103.85508259713654      120.65529774681855       99.61724731920204
C          103.48098452853175      120.98691567554066      101.05960814156798
C          102.37845873201472      122.04058446319024      101.13137383189743
C          101.93364346038406      122.31544705447885      102.56510265969625
C          100.91324735720403      123.44774156978198      102.64545873878117
C          100.55688611769106      123.83558610745557      104.08158134906216
C           99.78706520316906      122.74414733674601      104.82203544976500
C           99.17816575158008      123.21982191934246      106.14125946039242
C          100.18706198947558      123.67732315121441      107.19504392934064
C          101.13650556171355      122.57282417964311      107.65366917085458
C          101.95953791230242      123.01107072802338      108.86263063417674
C          102.95517311661229      121.94111209825680      109.30494996802953
C          103.95816778045031      122.44292837027018      110.34302581069124
C          103.33961964955373      122.68809843991859      111.71686150271407
C          104.34489130245362      123.31610636410181      112.67898150771880
C          103.86961478321351      123.33633720460210      114.13010227087936
C          102.61694456190426      124.17655550756581      114.36277608055542
C          102.29483365544354      124.29321311176035      115.85093064048203
C          101.02020414022665      125.09396463163463      116.10181668100410
C          100.60059152863658      125.11997433870339      117.57192179446297
C          101.61309674017654      125.82810520820900      118.47128674532391
C          101.05521857973038      126.17537322728327      119.85178129768575
C          100.68057410493374      124.95245501339639      120.68681265887203
C          100.28754515814749      125.34901655249912      122.10854766593626
C           99.95983487885735      124.15628389542989      123.00806196703775
C           98.63534337210210      123.47842558286924      122.66219953017014
C           98.32004971391007      122.34425407919711      123.63566520774455
C           96.94270576972934      121.71395894957747      123.42371766063135
C           96.81389554458782      120.96906989958362      122.09737982411768
C           95.45758321927765      120.27874159312658      121.96417272727983
C           95.29644601243615      119.51190148645982      120.65037723522538
C           95.21306706843559      120.42753480017835      119.43092946864749
C           95.08482969919916      119.64968069492390      118.12373628428756
C           95.04146185811905      120.58196269092873      116.91452140345071
C           95.00311070253164      119.81698633418195      115.59501923610304
C           95.03880322373790      120.74744975087444      114.38466302824787
C           95.02145688701712      119.96364219373699      113.07576664744126
C           95.14102355651109      120.85097418386454      111.83946597200585
C           95.03835621840382      120.02780509404643      110.55677161559126
C           95.40447336832410      120.82647981435078      109.30953881051063
C           95.26435515413432      119.98798900599394      108.04113742581823
C           95.83650211296550      120.68983540237696      106.81334103145217
C           95.61260835426445      119.88599957963542      105.53480523210222
C           96.34752149384626      120.49014455960936      104.34078125460425
C           96.00058588541322      119.77626398525828      103.03684000023382
C           96.70868396307178      120.36325269499304      101.81430840151560
C           98.22820891000399      120.18430713925110      101.79920904111673
C           98.65895715810687      118.72093161626121      101.77756427198004
C          100.15876732014675      118.55847423189293      101.55055554934509
C          100.57499890579163      117.09023628073790      101.55014419769202
C          102.06890188300173      116.91115405660582      101.29983614978784
C          102.48410537046401      115.44269136937531      101.32203147271203
C          103.98386322778573      115.27535940936511      101.09952851849197
C          104.42278413222714      113.81455929926882      101.14912917257611
C          105.92280875102684      113.66226469651568      100.91336916819202
C          106.36320330940781      112.20170169556789      100.92189300358577
C          107.84419503389449      112.04189684636825      100.59067447202986
C          108.27951814880983      110.57920606607759      100.59465598999704
C          109.74757632150704      110.41472190937441      100.21188384547018
C          110.21940611843542      108.96586283795902      100.30582413215735
C          111.69315319841731      108.81411491474557       99.93679147565248
C          112.18527121029290      107.37550467518146      100.07191407530659
C          113.64491212234374      107.22719291383760       99.64819669529334
C          114.16900712042701      105.80941944575305       99.87143454875110
C          115.45980859639172      105.50196961958409       99.11357741723833
C          116.66331790296209      106.34080598508501       99.53902277820897
C          117.89794956325255      105.96607477664296       98.72132056183509
C          119.14056396849952      106.78536892566525       99.06719869270438
C          120.33937298152570      106.31235894201703       98.24719961797425
C          121.64386156611509      107.06241371430085       98.52014005749920
C          121.64115788859000      108.51785503235644       98.04524503024187
C          123.06914215495246      109.03183272142275       97.85670222148335
C          123.17088030913550      110.53073931896637       97.56927754485380
C          122.42178852661323      110.97432838648265       96.31288655755975
C          122.74126925651535      112.42541629307763       95.94667691102092
C          121.78810472869205      113.01849494991738       94.90379191481469
C          120.42711312241092      113.37827052933244       95.49630571981116
C          119.47376178145767      114.01483131435108       94.48701812819478
C          118.11290959580552      114.29711767934299       95.12179128501330
C          117.11280807479002      114.92119949394632       94.15228315624681
C          115.74317410074462      115.12192472636923       94.79982471660715
C          114.73925160352205      115.75435849325925       93.83908016120733
C          113.35762666250426      115.92783773489562       94.46648736279504
C          112.38653462299582      116.61994333405619       93.51293008934681
C          111.00581334622512      116.83051584039076       94.12937568015323
C          110.06792575611566      117.57739525205075       93.18323897966246
C          108.71210129438501      117.87137651816757       93.82109297661489
C          107.77481815481696      118.60262953764490       92.86264310409076
C          106.39568261723618      118.88858965060339       93.45964779133595
C          106.41752220821000      119.94306140628105       94.56478953828494
C          105.01140256860745      120.29496498622892       95.03610712122094
H          106.99807987649385      119.57640170324412       95.41333606318935
H          106.90853352219392      120.84446789488734       94.18893949378895
H          105.73598841384765      119.23764084788453       92.66062611012326
H          105.97175209612632      117.96064118372267       93.85170872170481
H          108.23460177599577      119.54529880759735       92.55456824070230
H          107.64836193109372      117.99213309692182       91.96447211857244
H          108.24664322562111      116.93165760260499       94.12768588381945
H          108.86878897587032      118.47869246356656       94.71468932014344
H          110.53495146314823      118.52015398332303       92.88635695589342
H          109.92190664564809      116.98530630421061       92.27601068762321
H          110.56853392382726      115.86284594672111       94.38559890100875
H          111.10974146142128      117.40060548811979       95.05487768299969
H          112.80098607885027      117.59011343722628       93.22724047191915
H          112.28884396681892      116.02479979913802       92.60119920435643
H          112.96018046959703      114.94841073058092       94.74371261923893
H          113.44858821546001      116.52041617517946       95.37945909446807
H          115.11369909041294      116.73078372526439       93.52015810283764
H          114.65325381442554      115.13091835460683       92.94531798226755
H          115.35985750366497      114.15600852378263       95.13812068030353
H          115.84951273652082      115.75936618980850       95.68108345704850
H          117.49504839245274      115.88401023424959       93.80372043606810
H          117.00621391424885      114.27471971597775       93.27737944584983
H          117.69964943263891      113.35845693153497       95.49861668948704
H          118.24684388565825      114.96488422815386       95.97682854071921
H          119.90339997333585      114.94617323397902       94.10956364447158
H          119.34323652448484      113.34328254433120       93.63460998795746
H          119.95527812818580      112.47989050921878       95.89492910150439
H          120.57641689613237      114.07116965521726       96.32781534557532
H          122.23868091932930      113.92240504587978       94.48563456132986
H          121.65739973336521      112.30753035088308       94.08435781836430
H          122.70183228342418      113.04254216036175       96.84797859784128
H          123.76502599659250      112.47338106310467       95.56717782162877
H          122.69120639057550      110.32475412655114       95.47640288388774
H          121.35042543623317      110.86846250966407       96.48202068598282
H          122.78700465934980      111.08567316890077       98.42781585046542
H          124.22812390626251      110.78802777555323       97.45911772039270
H          123.64000184293580      108.81887418445135       98.76466837747769
H          123.53838373232117      108.47835042960384       97.03860492298072
H          121.10562983025687      108.58188403041676       97.09632467318815
H          121.12019679922231      109.14847237400001       98.76731136471267
H          121.87187440909919      107.02558302906270       99.58728459189449
H          122.44584407676444      106.53245093423085       97.99821165471462
H          120.50296364059361      105.25115328844795       98.45618062834711
H          120.09817882801713      106.39949244796479       97.18424304127565
H          118.95084336780971      107.84147138525415       98.86717177368210
H          119.36101359152815      106.67917739427369      100.13204872328062
H          118.11799099946325      104.90596623671105       98.87598043796368
H          117.67356360057936      106.09759026703588       97.65889033294484
H          116.44469055353831      107.40092574459189       99.39821579029909
H          116.86600504536257      106.17885624945615      100.60056540223046
H          115.70432085836276      104.44713708877909       99.25900094804059
H          115.28613039380483      105.64563310583284       98.04321015016239
H          114.33207684484215      105.64345131055981      100.93872689046390
H          113.40672763983186      105.09703463929040       99.54273434155844
H          113.73127645129065      107.47878562239730       98.59017986690640
H          114.25365259419173      107.93773635806708      100.21044185109311
H          112.07246783175431      107.05144314921775      101.10771146008223
H          111.56307938791787      106.72333217230869       99.45239786565114
H          111.84052015795784      109.14886676045502       98.90584686154790
H          112.29755858169440      109.46176703541539      100.57851880843134
H          110.06354139468564      108.59989709932653      101.32467014625492
H          109.61608722963658      108.34461865292417       99.64096569709329
H          109.89620619082980      110.77800497786653       99.19184142420882
H          110.35623038655983      111.03381818824029      100.87364078277939
H          108.11385754650945      110.15731167219204      101.58915236716246
H          107.65537691816286      110.01934898969526       99.89280040857034
H          108.04078889731063      112.47255349117883       99.60559733040691
H          108.44060610215818      112.59964223637340      101.31808492217682
H          106.16390712159497      111.77156070296661      101.90668469058251
H          105.76965781920491      111.64380647077184      100.19331333244973
H          106.17964670135905      114.11056151237014       99.95002631058740
H          106.47034524252901      114.21247922456139      101.68254691164752
H          104.16280148562856      113.38878980845075      102.12178655949165
H          103.88029634954860      113.24769461283354      100.38813564004228
H          104.25538834812379      115.70415749092456      100.13188901034383
H          104.52201879971086      115.84026539280330      101.86527654710413
H          102.21042329389181      115.00385548737944      102.28477347401621
H          101.93732811206516      114.89759974552463      100.54767013967995
H          102.32851883040371      117.34674721292637      100.33184884622281
H          102.62988530506665      117.45322481450643      102.06554998656807
H          100.31391878780937      116.64406303899199      102.51342508406589
H          100.01280182796762      116.55855641250216      100.77835984832460
H          100.43513368605011      119.01487824015641      100.59630009302438
H          100.70148670374604      119.09036735001334      102.33615732152545
H           98.39362402028202      118.24318428465260      102.72237315535294
H           98.11724734326415      118.20588471144826      100.98014083581637
H           98.61880723564964      120.67966382843214      100.90539888989218
H           98.67332317965824      120.68056282845421      102.66268884107089
H           96.29651839159888      119.89250212300274      100.91739839382450
H           96.48081643695549      121.43138202799314      101.75637374942671
H           96.23748296518686      118.71530785774564      103.12686614719574
H           94.92152141238662      119.85188081263682      102.87522167815953
H           96.08711323775567      121.54843914942258      104.25193148621372
H           97.42155720104205      120.42787876253028      104.52348459445935
H           95.95694389383819      118.86057961871599      105.68650789548646
H           94.54163714810221      119.84166784112287      105.32109247208747
H           95.37901334073067      121.67681834341079      106.70667055378897
H           96.90913994217925      120.84202003878352      106.95936059149162
H           95.78665002542043      119.03899001361516      108.17890384565257
H           94.20955556923384      119.75854856498563      107.87226156241155
H           94.76608417270194      121.71062979522645      109.23710528818515
H           96.43620235395488      121.17404543935905      109.40025146715577
H           95.71001433047658      119.16861841404123      110.63128890659925
H           94.02272491350941      119.63866585629637      110.45520082941729
H           94.35503239410710      121.60998174905843      111.85215865024948
H           96.10083844509249      121.37317996906496      111.86052047060987
H           95.85103939519055      119.25145399667583      113.07867442484337
H           94.09327575766359      119.39113795546223      113.01759492812067
H           94.18009632157697      121.42243593151481      114.41782642977776
H           95.94091795180506      121.36313861641875      114.43045464881592
H           95.85860489046176      119.13815635844564      115.54844567192758
H           94.09783071609201      119.20608135857641      115.55568871988535
H           94.16274720194970      121.22778142589458      116.98605481415971
H           95.92311235635160      121.22760214723586      116.92682805824114
H           95.93653902455247      118.97182868283964      118.02581360271358
H           94.17926008070955      119.03821782281049      118.14591211741269
H           94.35473862594486      121.09509666894532      119.54131330815083
H           96.10886454296005      121.04807449252871      119.37713854836745
H           96.13672364119483      118.82355678128540      120.53098591923802
H           94.38571123546703      118.90943392964824      120.70236234304069
H           95.33456092516296      119.58133162304375      122.79742608342112
H           94.66348206428759      121.02561082078918      122.04360964198240
H           96.94234182710795      121.67542275798954      121.27741505253447
H           97.60771564430193      120.22181697042647      122.02756863136115
H           96.75013547196859      121.01307081242065      124.24088069001841
H           96.17804844979020      122.49330084016475      123.47560983532298
H           99.08691713511567      121.57243652445818      123.54387045728176
H           98.36888665429865      122.73553231114737      124.65565551597230
H           97.83221958377676      124.21892691157831      122.69750932644794
H           98.68523661115731      123.08532261978890      121.64679319539309
H          100.76831377003836      123.42414324120131      122.94350438779956
H           99.91320018329378      124.50293255912590      124.04401904943201
H          101.11641896981808      125.90532494134695      122.55512257919635
H           99.42608983652308      126.02072123075156      122.07291078199256
H           99.85350655448930      124.42627227336641      120.21010262311574
H          101.53236682869016      124.27007667742373      120.72980277991770
H          101.80898713952351      126.75310098553985      120.39423825040591
H          100.17557410284593      126.81431664649966      119.73649923265455
H          102.49785232990604      125.20178726827973      118.59543318127866
H          101.92741373813547      126.75554741480715      117.98480271873662
H           99.63984383872985      125.63658652503307      117.64859577070759
H          100.45514988185310      124.09497823877679      117.91656300159300
H          101.16123415958329      126.11871801033605      115.74753441863361
H          100.20805928479558      124.65496680235313      115.51575781905714
H          102.17603763167072      123.29207668285585      116.27124790077708
H          103.13370245975348      124.77071464762292      116.36120073743854
H          102.76605403047873      125.17570559991742      113.94470749137442
H          101.76724845209937      123.72406313473914      113.84747087686880
H          103.67449612896799      122.31161659651355      114.45757992447362
H          104.67465573648499      123.73393772363281      114.75255991213061
H          105.27945920715693      122.75076016593005      112.63062664603369
H          104.56041535320821      124.33840786331970      112.35605734365093
H          102.47479695355271      123.34479330502842      111.61729969379425
H          102.99214501931800      121.73613497365291      112.12719164353587
H          104.75955826487770      121.70607664362039      110.44975657382415
H          104.41305894104848      123.36882504485101      109.98041873405846
H          102.41329661803339      121.08234813016415      109.70920608124922
H          103.50487113806267      121.60020427966707      108.42584848481626
H          102.50342684515539      123.92442935322485      108.60719936141673
H          101.28201289627711      123.25298348859084      109.68412745735174
H          100.55856092728089      121.68263875105590      107.91076724040825
H          101.81240496559715      122.30646715577512      106.83873164176720
H          100.76705049464947      124.51929222537528      106.81177584033328
H           99.62712946032656      124.03942475730128      108.06232193213755
H           98.49343815717747      124.04688359484139      105.93307540709003
H           98.58329883527287      122.40403215416416      106.56043873042992
H           98.96925459483421      122.40389256534742      104.18127826140083
H          100.43823032567805      121.89005045201073      105.00955714357281
H          101.47583014858228      124.07353883313242      104.62085376004093
H           99.94279041593771      124.74030102736032      104.05653065115025
H          101.32511123889975      124.32590983670906      102.13997576350611
H          100.00473827133790      123.15910211637967      102.11046696303919
H          101.50595857278009      121.40322682131097      102.98360004200372
H          102.80531527769401      122.58344612628825      103.16480243393049
H          102.73988035175876      122.96824602885192      100.67955944583964
H          101.51792484569401      121.70530721861127      100.54642668867395
H          103.14106309537195      120.07623609376110      101.55829106713773
H          104.35839617422360      121.35391908809241      101.59557103193576
H          104.15972632353150      121.56637819385197       99.09899503366435
H          102.96271408489054      120.27921539935238       99.10874644892370
H          104.93233575449190      119.17453803122419       98.50140833652134
H          104.75024280875355      118.79941594151047      100.21658187362929
H          107.04310611891010      119.26177835110857       99.81818029205787
H          106.42905449781479      120.65681313894146      100.69698919038601
H          106.42650082087530      122.02067411403807       98.70375597369467
H          106.56356415472456      120.60716740425005       97.66048055442647
H          108.84294806717078      120.18127377940559       98.47637268714143
H          108.73617202501833      121.55372947762883       99.57664150184476
H          108.48720371620006      123.10721460657567       97.69919137130583
H          108.44578266844651      121.77696854105552       96.54667823170101
H          110.83527775246704      122.22179797127995       98.37137073343418
H          110.67751458477581      123.07478563635902       96.83860625031528
H          110.60834966760051      120.96387418103397       95.59895931039549
H          110.62192324488173      120.04128861817915       97.10008242654145
H          112.84803976654145      120.95577154247677       97.66457506785117
H          112.86824300113162      121.87915031342403       96.16506790651134
H          112.83152711347688      119.84613701315902       94.82743983015649
H          112.57560755138603      118.84727181025747       96.25649157519473
H          115.08026603282833      120.53315360530550       95.85641661042276
H          114.94022913028628      118.85601963087775       95.33005870113330
H          114.39543312785172      118.17341862707347       97.66423217734626
H          114.62633106361569      119.83447148249472       98.19968379068371
H          117.00339456508986      119.73897041119685       97.41909663949589
H          116.76378770220170      118.05268912890338       96.96276051314760
H          116.07194509180908      117.55080204599982       99.31971833315470
H          116.43764488686176      119.21908153623113       99.76358911551335
H          118.81157669465915      118.86233719762984       99.06444690623069
H          118.43884639705500      117.17526097516698       98.71206809418895
H          118.16296674040268      118.51165326943193      101.44467041302354
H          119.49963866806206      117.47827134864679      100.94240717704358
H          117.87016296332311      115.61833928963574      100.55172897157655
H          116.58661151658418      116.62455215378863      101.23048972364457
H          117.89863507107462      116.82982645630219      103.34976934713018
H          119.08938122153020      115.71012736642865      102.69692716541914
H          116.13661297773172      115.10814775478917      103.18904587207189
H          117.48092092699596      114.58512022709243      104.20251462365259
H          118.40608159142096      113.30690275389561      102.24668335580760
H          116.98901523739995      113.78220906969767      101.30675105407884
H          115.51718149464267      112.58193021879009      102.88288770275170
H          116.91766611239426      112.08553014697935      103.83251080609074
H          117.84968596227148      110.88718988152415      101.88099162150594
H          116.54624228493974      111.49802735976043      100.86711059468801
H          116.00714365175024      109.25391338130134      101.33668916882635
H          114.90156688398079      110.25129601245087      102.28606206339509
H          116.16358723302871      109.77553920674305      104.33002921937917
H          117.45621751148992      109.01432208822843      103.39643273683890
H          116.10809837435964      107.27222352465461      104.40968922511057
H          115.87831845790453      107.23738837913234      102.65993993775160
H          113.75650053312847      108.51827872471065      102.92476141916084
H          113.99672146022685      108.53601764089399      104.67046857435437
H          113.82389121237352      106.03126868368459      104.68153527732755
H          113.57665586789142      106.06419422306065      102.93870734138147
H          111.63572342384913      107.70950844945045      103.39951720574754
H          111.77141715189725      107.23515463871982      105.08781253311848
H          111.27716538916680      104.88596845112134      104.47429844831861
H          111.22424152649596      105.32669180998441      102.77052650409456
H          109.30774529359748      106.83995875276008      103.19415702462850
H          108.93261370656381      105.21392322486216      103.77098757483201
H          109.37531748814175      106.47749069148951      104.91661639367265
H          104.41033044494471      120.66103125202028       94.20617294808072
H          104.51901831383066      119.41984531153284       95.45455208198301
H          105.04265673169768      121.06721837283071       95.80137745823916
C          110.84091944781730      105.27887690642758      125.11806643517305
C          111.16890407269693      105.43575724171058      123.63956709052285
C          111.93294907893032      106.72178478105360      123.33407854680183
C          112.20907877239493      106.85847613718589      121.83979252099790
C          112.88102455853812      108.17574248323378      121.46245695688808
C          113.05442516464954      108.30599820768020      119.95012277175030
C          113.57991965520878      109.68058027839213      119.54287282633361
C          113.45379435417472      109.96273231296550      118.04595677220092
C          114.35698555009365      109.09053494299970      117.17822213178061
C          114.26776372925215      109.47087699738078      115.70165117158095
C          115.15265571680438      108.58590909655462      114.82876215478059
C          115.16183074475393      109.02113831357363      113.36567718282383
C          115.98060469754945      108.06740637857114      112.50039575027317
C          116.19397129477014      108.58403097880213      111.08071851402953
C          116.99497922014061      107.59371666746912      110.24023653121036
C          117.39171926694598      108.15367659292492      108.87763009464939
C          118.15271511940020      107.12932386266634      108.03840290992481
C          118.65412530697236      107.70358503795217      106.71303431903617
C          119.91122469178778      108.56143972554298      106.85641603359487
C          121.19607978913430      107.74628923805166      106.98381664036323
C          122.40174281089605      108.65096301324564      107.23016838728920