      -----------------------------------------------------------      
     |                   =====================                   |     
     |                           x T B                           |     
     |                   =====================                   |     
     |                         S. Grimme                         |     
     |          Mulliken Center for Theoretical Chemistry        |     
     |                    University of Bonn                     |     
      -----------------------------------------------------------      

   * xtb version 6.6.1 (8d0f1dd) compiled by 'stahn@M-Bot' on 2023-08-01

   xtb is free software: you can redistribute it and/or modify it under
   the terms of the GNU Lesser General Public License as published by
   the Free Software Foundation, either version 3 of the License, or
   (at your option) any later version.
   
   xtb is distributed in the hope that it will be useful,
   but WITHOUT ANY WARRANTY; without even the implied warranty of
   MERCHANTABILITY or FITNESS FOR A PARTICULAR PURPOSE.  See the
   GNU Lesser General Public License for more details.
   
   Cite this work as:
   * C. Bannwarth, E. Caldeweyher, S. Ehlert, A. Hansen, P. Pracht,
     J. Seibert, S. Spicher, S. Grimme, WIREs Comput. Mol. Sci., 2020, 11,
     e01493. DOI: 10.1002/wcms.1493
   
   for GFN2-xTB:
   * C. Bannwarth, S. Ehlert and S. Grimme., J. Chem. Theory Comput., 2019,
     15, 1652-1671. DOI: 10.1021/acs.jctc.8b01176
   for GFN1-xTB:
   * S. Grimme, C. Bannwarth, P. Shushkov, J. Chem. Theory Comput., 2017,
     13, 1989-2009. DOI: 10.1021/acs.jctc.7b00118
   for GFN0-xTB:
   * P. Pracht, E. Caldeweyher, S. Ehlert, S. Grimme, ChemRxiv, 2019, preprint.
     DOI: 10.26434/chemrxiv.8326202.v1
   for GFN-FF:
   * S. Spicher and S. Grimme, Angew. Chem. Int. Ed., 2020, 59, 15665-15673.
     DOI: 10.1002/anie.202004239
   
   for ALPB and GBSA implicit solvation:
   * S. Ehlert, M. Stahn, S. Spicher, S. Grimme, J. Chem. Theory Comput.,
     2021, 17, 4250-4261. DOI: 10.1021/acs.jctc.1c00471
   
   for DFT-D4:
   * E. Caldeweyher, C. Bannwarth and S. Grimme, J. Chem. Phys., 2017,
     147, 034112. DOI: 10.1063/1.4993215
   * E. Caldeweyher, S. Ehlert, A. Hansen, H. Neugebauer, S. Spicher,
     C. Bannwarth and S. Grimme, J. Chem. Phys., 2019, 150, 154122.
     DOI: 10.1063/1.5090222
   * E. Caldeweyher, J.-M. Mewes, S. Ehlert and S. Grimme, Phys. Chem. Chem. Phys.
     2020, 22, 8499-8512. DOI: 10.1039/D0CP00502A
   
   for sTDA-xTB:
   * S. Grimme and C. Bannwarth, J. Chem. Phys., 2016, 145, 054103.
     DOI: 10.1063/1.4959605
   
   in the mass-spec context:
   * V. Asgeirsson, C. Bauer and S. Grimme, Chem. Sci., 2017, 8, 4879.
     DOI: 10.1039/c7sc00601b
   * J. Koopman and S. Grimme, ACS Omega 2019, 4, 12, 15120-15133.
     DOI: 10.1021/acsomega.9b02011
   
   for metadynamics refer to:
   * S. Grimme, J. Chem. Theory Comput., 2019, 155, 2847-2862
     DOI: 10.1021/acs.jctc.9b00143
   
   for SPH calculations refer to:
   * S. Spicher and S. Grimme, J. Chem. Theory Comput., 2021, 17, 1701-1714
     DOI: 10.1021/acs.jctc.0c01306
   
   with help from (in alphabetical order)
   P. Atkinson, C. Bannwarth, F. Bohle, G. Brandenburg, E. Caldeweyher
   M. Checinski, S. Dohm, S. Ehlert, S. Ehrlich, I. Gerasimov, C. Hölzer
   A. Katbashev, J. Koopman, C. Lavigne, S. Lehtola, F. März, M. Müller,
   F. Musil, H. Neugebauer, J. Pisarek, C. Plett, P. Pracht, F. Pultar,
   J. Seibert, P. Shushkov, S. Spicher, M. Stahn, M. Steiner, T. Strunk,
   J. Stückrath, T. Rose, and J. Unsleber
   
 * started run on 2024/10/04 at 01:35:40.142     

           -------------------------------------------------
          |                Calculation Setup                |
           -------------------------------------------------

          program call               : /home/abt-grimme/AK-bin/xtb input.xyz --input input.inp --opt
          hostname                   : boar096.thch.uni-bonn.de
          coordinate file            : input.xyz
          omp threads                :                     8

   ID    Z sym.   atoms
    1    6 C      1-120, 363-482, 725-844, 1087-1206, 1449-1568, 1811-1930,
                  2173-2292, 2535-2654, 2897-3016
    2    1 H      121-362, 483-724, 845-1086, 1207-1448, 1569-1810,
                  1931-2172, 2293-2534, 2655-2896, 3017-3258

molecular fragmentation (1/2 indicates fragments):
111111111111111111111111111111111111111111111111111111111111111111111111
111111111111111111111111111111111111111111111111111111111111111111111111
111111111111111111111111111111111111111111111111111111111111111111111111
111111111111111111111111111111111111111111111111111111111111111111111111
111111111111111111111111111111111111111111111111111111111111111111111111
112222222222222222222222222222222222222222222222222222222222222222222222
222222222222222222222222222222222222222222222222222222222222222222222222
222222222222222222222222222222222222222222222222222222222222222222222222
222222222222222222222222222222222222222222222222222222222222222222222222
222222222222222222222222222222222222222222222222222222222222222222222222
222222222222222222222222222222222222222222222222222222222222222222222222
222222222222222222222222222222222222222222222222222222222222222222222222
222222222222222222222222222222222222222222222222222222222222222222222222
222222222222222222222222222222222222222222222222222222222222222222222222
222222222222222222222222222222222222222222222222222222222222222222222222
222222222222222222222222222222222222222222222222222222222222222222222222
222222222222222222222222222222222222222222222222222222222222222222222222
222222222222222222222222222222222222222222222222222222222222222222222222
222222222222222222222222222222222222222222222222222222222222222222222222
222222222222222222222222222222222222222222222222222222222222222222222222
222222222222222222222222222222222222222222222222222222222222222222222222
222222222222222222222222222222222222222222222222222222222222222222222222
222222222222222222222222222222222222222222222222222222222222222222222222
222222222222222222222222222222222222222222222222222222222222222222222222
222222222222222222222222222222222222222222222222222222222222222222222222
222222222222222222222222222222222222222222222222222222222222222222222222
222222222222222222222222222222222222222222222222222222222222222222222222
222222222222222222222222222222222222222222222222222222222222222222222222
222222222222222222222222222222222222222222222222222222222222222222222222
222222222222222222222222222222222222222222222222222222222222222222222222
222222222222222222222222222222222222222222222222222222222222222222222222
222222222222222222222222222222222222222222222222222222222222222222222222
222222222222222222222222222222222222222222222222222222222222222222222222
222222222222222222222222222222222222222222222222222222222222222222222222
222222222222222222222222222222222222222222222222222222222222222222222222
222222222222222222222222222222222222222222222222222222222222222222222222
222222222222222222222222222222222222222222222222222222222222222222222222
222222222222222222222222222222222222222222222222222222222222222222222222
222222222222222222222222222222222222222222222222222222222222222222222222
222222222222222222222222222222222222222222222222222222222222222222222222
222222222222222222222222222222222222222222222222222222222222222222222222
222222222222222222222222222222222222222222222222222222222222222222222222
222222222222222222222222222222222222222222222222222222222222222222222222
222222222222222222222222222222222222222222222222222222222222222222222222
222222222222222222222222222222222222222222222222222222222222222222222222
222222222222222222
# atoms in fragment 1/2:   362  2896
 fragment masses (1/2) :     1685.21    13481.68
CMA distance (Bohr)    :  20.762
constraining FC (au)   :  0.0500

           -------------------------------------------------
          |                 G F N 2 - x T B                 |
           -------------------------------------------------

        Reference                      10.1021/acs.jctc.8b01176
      * Hamiltonian:
        H0-scaling (s, p, d)           1.850000    2.230000    2.230000
        zeta-weighting                 0.500000
      * Dispersion:
        s8                             2.700000
        a1                             0.520000
        a2                             5.000000
        s9                             5.000000
      * Repulsion:
        kExp                           1.500000    1.000000
        rExp                           1.000000
      * Coulomb:
        alpha                          2.000000
        third order                    shell-resolved
        anisotropic                    true
        a3                             3.000000
        a5                             4.000000
        cn-shift                       1.200000
        cn-exp                         4.000000
        max-rad                        5.000000


          ...................................................
          :                      SETUP                      :
          :.................................................:
          :  # basis functions                6498          :
          :  # atomic orbitals                6498          :
          :  # shells                         4338          :
          :  # electrons                      6498          :
          :  max. iterations                   250          :
          :  Hamiltonian                  GFN2-xTB          :
          :  restarted?                      false          :
          :  GBSA solvation                  false          :
          :  PC potential                    false          :
          :  electronic temp.          300.0000000     K    :
          :  accuracy                    1.0000000          :
          :  -> integral cutoff          0.2500000E+02      :
          :  -> integral neglect         0.1000000E-07      :
          :  -> SCF convergence          0.1000000E-05 Eh   :
          :  -> wf. convergence          0.1000000E-03 e    :
          :  Broyden damping             0.4000000          :
          ...................................................

 iter      E             dE          RMSdq      gap      omega  full diag
   1  -3473.3677449 -0.347337E+04  0.244E+00   11.44       0.0  T
   2  -3478.4809634 -0.511322E+01  0.135E+00   11.57       1.0  T
   3  -3478.6831430 -0.202180E+00  0.599E-01   11.52       1.0  T
   4  -3478.7037116 -0.205686E-01  0.754E-02   11.56       1.0  T
   5  -3478.7045754 -0.863865E-03  0.388E-02   11.56       1.0  T
   6  -3478.7047780 -0.202595E-03  0.632E-03   11.56       1.0  T
   7  -3478.7047945 -0.165001E-04  0.125E-03   11.56       1.4  T
   8  -3478.7047956 -0.107257E-05  0.385E-04   11.56       4.5  T
   9  -3478.7047956 -0.640675E-07  0.141E-04   11.56      12.4  T
  10  -3478.7047957 -0.370119E-08  0.422E-05   11.56      41.5  T

   *** convergence criteria satisfied after 10 iterations ***

         #    Occupation            Energy/Eh            Energy/eV
      -------------------------------------------------------------
         1        2.0000           -0.6246277             -16.9970
       ...           ...                  ...                  ...
      3243        2.0000           -0.4018048             -10.9337
      3244        2.0000           -0.4016321             -10.9290
      3245        2.0000           -0.4016010             -10.9281
      3246        2.0000           -0.4012620             -10.9189
      3247        2.0000           -0.4011585             -10.9161
      3248        2.0000           -0.4009936             -10.9116
      3249        2.0000           -0.4004263             -10.8962 (HOMO)
      3250                          0.0243925               0.6638 (LUMO)
      3251                          0.0247712               0.6741
      3252                          0.0248595               0.6765
      3253                          0.0257482               0.7006
      3254                          0.0271398               0.7385
       ...                                ...                  ...
      6498                          0.3843180              10.4578
      -------------------------------------------------------------
                  HL-Gap            0.4248189 Eh           11.5599 eV
             Fermi-level           -0.1880169 Eh           -5.1162 eV

 SCC (total)                   0 d,  0 h, 14 min, 26.085 sec
 SCC setup                      ...        0 min,  0.434 sec (  0.050%)
 Dispersion                     ...        0 min,  3.581 sec (  0.413%)
 classical contributions        ...        0 min,  0.156 sec (  0.018%)
 integral evaluation            ...        0 min,  5.908 sec (  0.682%)
 iterations                     ...       10 min, 12.885 sec ( 70.765%)
 molecular gradient             ...        3 min, 54.603 sec ( 27.088%)
 printout                       ...        0 min,  8.519 sec (  0.984%)

         :::::::::::::::::::::::::::::::::::::::::::::::::::::
         ::                     SUMMARY                     ::
         :::::::::::::::::::::::::::::::::::::::::::::::::::::
         :: total energy           -3427.461543957098 Eh    ::
         :: gradient norm              0.018012631883 Eh/a0 ::
         :: HOMO-LUMO gap             11.559910124985 eV    ::
         ::.................................................::
         :: SCC energy             -3478.704795652730 Eh    ::
         :: -> isotropic ES            0.421723952946 Eh    ::
         :: -> anisotropic ES          1.115407456955 Eh    ::
         :: -> anisotropic XC          1.945474241326 Eh    ::
         :: -> dispersion             -4.024366070757 Eh    ::
         :: repulsion energy          50.607484990236 Eh    ::
         :: add. restraining           0.000000000000 Eh    ::
         :: total charge              -0.000000000016 e     ::
         :::::::::::::::::::::::::::::::::::::::::::::::::::::

      ----------------------------------------------------------- 
     |              Fast Inertial Relaxation Engine              |
      ----------------------------------------------------------- 

          ...................................................
          :                      SETUP                      :
          :.................................................:
          :   energy convergence        0.5000000E-05 Eh    :
          :   grad. convergence         0.1000000E-02 Eh/a0 :
          :   optimization log               true           :
          :   writing optlog all                1     steps :
          :   Hessian reset                    20     steps :
          :   time step scaling                 5     steps :
          :   maximium step len.        1.0000000     a0    :
          :   initial time step         0.2500000     fs    :
          :   maximum time step         1.2500000     fs    :
          :   power reset thr           0.0000000     au    :
          :   alpha parameter           0.1000000           :
          :   BFGS update                   false           :
          :   preconditioning               false           :
          ...................................................

........................................................................
.............................. CYCLE    1 ..............................
........................................................................

 iter      E             dE          RMSdq      gap      omega  full diag
   1  -3478.7083630 -0.347871E+04  0.260E-04   11.56       0.0  T
   2  -3478.7083631 -0.276700E-07  0.148E-04   11.56      11.8  T
   3  -3478.7083631 -0.568889E-09  0.484E-05   11.56      36.2  T
     SCC iter.                  ...        2 min, 58.275 sec
     gradient                   ...        3 min, 51.968 sec
 * total energy  : -3427.4615804 Eh     change    :  -0.3648364E-04 Eh
   gradient norm :     0.0165600 Eh/a0  converged?    E=F G=F D=F
   time step     :     0.2500000 fs     power     :   0.1855086E-08
   step length   :     0.0021110 a0     speed     :   0.2042547E-03

........................................................................
.............................. CYCLE    2 ..............................
........................................................................

 iter      E             dE          RMSdq      gap      omega  full diag
   1  -3478.7135550 -0.347871E+04  0.376E-04   11.56       0.0  T
   2  -3478.7135551 -0.579112E-07  0.214E-04   11.56       8.2  T
   3  -3478.7135551 -0.118916E-08  0.700E-05   11.56      25.0  T
     SCC iter.                  ...        3 min,  5.403 sec
     gradient                   ...        3 min, 53.951 sec
 * total energy  : -3427.4616283 Eh     change    :  -0.4781586E-04 Eh
   gradient norm :     0.0144719 Eh/a0  converged?    E=F G=F D=F
   time step     :     0.2500000 fs     power     :   0.2363507E-08
   step length   :     0.0030813 a0     speed     :   0.2981283E-03

........................................................................
.............................. CYCLE    3 ..............................
........................................................................

 iter      E             dE          RMSdq      gap      omega  full diag
   1  -3478.7201438 -0.347872E+04  0.478E-04   11.56       0.0  T
   2  -3478.7201439 -0.933464E-07  0.272E-04   11.56       6.4  T
   3  -3478.7201439 -0.189220E-08  0.887E-05   11.56      19.8  T
     SCC iter.                  ...        3 min,  1.902 sec
     gradient                   ...        3 min, 54.694 sec
 * total energy  : -3427.4616799 Eh     change    :  -0.5161994E-04 Eh
   gradient norm :     0.0118651 Eh/a0  converged?    E=F G=F D=F
   time step     :     0.2500000 fs     power     :   0.2460053E-08
   step length   :     0.0039281 a0     speed     :   0.3800694E-03

........................................................................
.............................. CYCLE    4 ..............................
........................................................................

 iter      E             dE          RMSdq      gap      omega  full diag
   1  -3478.7278350 -0.347873E+04  0.561E-04   11.56       0.0  T
   2  -3478.7278351 -0.126656E-06  0.320E-04   11.56       5.5  T
   3  -3478.7278351 -0.256705E-08  0.103E-04   11.56      17.0  T
     SCC iter.                  ...        3 min,  0.309 sec
     gradient                   ...        3 min, 54.229 sec
 * total energy  : -3427.4617274 Eh     change    :  -0.4751307E-04 Eh
   gradient norm :     0.0089280 Eh/a0  converged?    E=F G=F D=F
   time step     :     0.2500000 fs     power     :   0.2142141E-08
   step length   :     0.0046188 a0     speed     :   0.4468923E-03

........................................................................
.............................. CYCLE    5 ..............................
........................................................................

 iter      E             dE          RMSdq      gap      omega  full diag
   1  -3478.7362657 -0.347874E+04  0.620E-04   11.56       0.0  T
   2  -3478.7362658 -0.151254E-06  0.353E-04   11.56       5.0  T
   3  -3478.7362658 -0.323826E-08  0.112E-04   11.56      15.6  T
     SCC iter.                  ...        3 min,  1.261 sec
     gradient                   ...        3 min, 53.814 sec
 * total energy  : -3427.4617640 Eh     change    :  -0.3656549E-04 Eh
   gradient norm :     0.0060105 Eh/a0  converged?    E=F G=F D=F
   time step     :     0.2500000 fs     power     :   0.1483994E-08
   step length   :     0.0051250 a0     speed     :   0.4958684E-03

........................................................................
.............................. CYCLE    6 ..............................
........................................................................

 iter      E             dE          RMSdq      gap      omega  full diag
   1  -3478.7458749 -0.347875E+04  0.718E-04   11.56       0.0  T
   2  -3478.7458751 -0.194217E-06  0.410E-04   11.56       4.3  T
   3  -3478.7458751 -0.427553E-08  0.126E-04   11.56      13.9  T
     SCC iter.                  ...        3 min,  4.657 sec
     gradient                   ...        3 min, 54.238 sec
 * total energy  : -3427.4617864 Eh     change    :  -0.2248711E-04 Eh
   gradient norm :     0.0039496 Eh/a0  converged?    E=F G=F D=F
   time step     :     0.2750000 fs     power     :   0.5438142E-09
   step length   :     0.0059867 a0     speed     :   0.5265825E-03

........................................................................
.............................. CYCLE    7 ..............................
........................................................................

 iter      E             dE          RMSdq      gap      omega  full diag
   1  -3478.7556321 -0.347876E+04  0.765E-04   11.56       0.0  T
   2  -3478.7556323 -0.195197E-06  0.439E-04   11.56       4.0  T
   3  -3478.7556323 -0.451928E-08  0.124E-04   11.56      14.2  T
     SCC iter.                  ...        3 min,  0.883 sec
     gradient                   ...        3 min, 54.393 sec
 * total energy  : -3427.4617899 Eh     change    :  -0.3448444E-05 Eh
   gradient norm :     0.0049873 Eh/a0  converged?    E=T G=F D=F
   time step     :     0.3025000 fs     power     :  -0.3636105E-09
   step length   :     0.0064646 a0     speed     :   0.5169275E-03

........................................................................
.............................. CYCLE    8 ..............................
........................................................................
 * reset velocities

 iter      E             dE          RMSdq      gap      omega  full diag
   1  -3478.7555108 -0.347876E+04  0.133E-05   11.56       0.0  T
   2  -3478.7555108 -0.600267E-10  0.705E-06   11.56     248.6  T
   3  -3478.7555108  0.000000E+00  0.326E-06   11.56     537.8  T
     SCC iter.                  ...        2 min, 59.923 sec
     gradient                   ...        3 min, 54.834 sec
 * total energy  : -3427.4617904 Eh     change    :  -0.5315524E-06 Eh
   gradient norm :     0.0049272 Eh/a0  converged?    E=T G=F D=T
   time step     :     0.1512500 fs     power     :   0.4623988E-10
   step length   :     0.0001070 a0     speed     :   0.1710755E-04

........................................................................
.............................. CYCLE    9 ..............................
........................................................................

 iter      E             dE          RMSdq      gap      omega  full diag
   1  -3478.7552702 -0.347876E+04  0.265E-05   11.56       0.0  T
   2  -3478.7552702 -0.127329E-09  0.154E-05   11.56     113.5  T
   3  -3478.7552702  0.181899E-11  0.383E-06   11.56     457.6  T
     SCC iter.                  ...        3 min,  1.233 sec
     gradient                   ...        3 min, 55.534 sec
 * total energy  : -3427.4617915 Eh     change    :  -0.1036130E-05 Eh
   gradient norm :     0.0048150 Eh/a0  converged?    E=T G=F D=T
   time step     :     0.1512500 fs     power     :   0.8981766E-10
   step length   :     0.0002127 a0     speed     :   0.3400867E-04

........................................................................
.............................. CYCLE   10 ..............................
........................................................................

 iter      E             dE          RMSdq      gap      omega  full diag
   1  -3478.7549155 -0.347875E+04  0.389E-05   11.56       0.0  T
   2  -3478.7549155 -0.381078E-09  0.227E-05   11.56      77.3  T
   3  -3478.7549155  0.577529E-10  0.566E-06   11.56     309.4  T
     SCC iter.                  ...        2 min, 58.897 sec
     gradient                   ...        3 min, 55.864 sec
 * total energy  : -3427.4617930 Eh     change    :  -0.1495282E-05 Eh
   gradient norm :     0.0046516 Eh/a0  converged?    E=T G=F D=T
   time step     :     0.1512500 fs     power     :   0.1288557E-09
   step length   :     0.0003159 a0     speed     :   0.5052336E-04

........................................................................
.............................. CYCLE   11 ..............................
........................................................................

 iter      E             dE          RMSdq      gap      omega  full diag
   1  -3478.7544546 -0.347875E+04  0.510E-05   11.56       0.0  T
   2  -3478.7544546 -0.703494E-09  0.298E-05   11.56      58.9  T
   3  -3478.7544546  0.536602E-10  0.738E-06   11.56     237.3  T
     SCC iter.                  ...        2 min, 58.320 sec
     gradient                   ...        3 min, 56.078 sec
 * total energy  : -3427.4617948 Eh     change    :  -0.1888829E-05 Eh
   gradient norm :     0.0044418 Eh/a0  converged?    E=T G=F D=T
   time step     :     0.1512500 fs     power     :   0.1617376E-09
   step length   :     0.0004156 a0     speed     :   0.6647168E-04

........................................................................
.............................. CYCLE   12 ..............................
........................................................................

 iter      E             dE          RMSdq      gap      omega  full diag
   1  -3478.7538980 -0.347875E+04  0.625E-05   11.56       0.0  T
   2  -3478.7538980 -0.992259E-09  0.365E-05   11.56      48.0  T
   3  -3478.7538980 -0.813998E-10  0.894E-06   11.56     196.1  T
     SCC iter.                  ...        2 min, 58.972 sec
     gradient                   ...        3 min, 54.902 sec
 * total energy  : -3427.4617971 Eh     change    :  -0.2207697E-05 Eh
   gradient norm :     0.0041926 Eh/a0  converged?    E=T G=F D=T
   time step     :     0.1512500 fs     power     :   0.1872589E-09
   step length   :     0.0005108 a0     speed     :   0.8168494E-04

........................................................................
.............................. CYCLE   13 ..............................
........................................................................

 iter      E             dE          RMSdq      gap      omega  full diag
   1  -3478.7532592 -0.347875E+04  0.731E-05   11.56       0.0  T
   2  -3478.7532592 -0.125647E-08  0.427E-05   11.56      41.0  T
   3  -3478.7532592 -0.914042E-10  0.103E-05   11.56     170.1  T
     SCC iter.                  ...        2 min, 55.984 sec
     gradient                   ...        3 min, 52.750 sec
 * total energy  : -3427.4617995 Eh     change    :  -0.2422026E-05 Eh
   gradient norm :     0.0039134 Eh/a0  converged?    E=T G=F D=T
   time step     :     0.1512500 fs     power     :   0.2047254E-09
   step length   :     0.0006003 a0     speed     :   0.9600997E-04

........................................................................
.............................. CYCLE   14 ..............................
........................................................................

 iter      E             dE          RMSdq      gap      omega  full diag
   1  -3478.7524764 -0.347875E+04  0.921E-05   11.56       0.0  T
   2  -3478.7524764 -0.194495E-08  0.538E-05   11.56      32.6  T
   3  -3478.7524764 -0.768523E-10  0.127E-05   11.56     137.6  T
     SCC iter.                  ...        3 min,  1.580 sec
     gradient                   ...        3 min, 54.087 sec
 * total energy  : -3427.4618023 Eh     change    :  -0.2820891E-05 Eh
   gradient norm :     0.0035839 Eh/a0  converged?    E=T G=F D=T
   time step     :     0.1663750 fs     power     :   0.2144324E-09
   step length   :     0.0007611 a0     speed     :   0.1106478E-03

........................................................................
.............................. CYCLE   15 ..............................
........................................................................

 iter      E             dE          RMSdq      gap      omega  full diag
   1  -3478.7515483 -0.347875E+04  0.114E-04   11.56       0.0  T
   2  -3478.7515483 -0.291811E-08  0.664E-05   11.56      26.4  T
   3  -3478.7515483 -0.100954E-09  0.152E-05   11.56     115.0  T
     SCC iter.                  ...        2 min, 56.853 sec
     gradient                   ...        3 min, 54.281 sec
 * total energy  : -3427.4618055 Eh     change    :  -0.3161715E-05 Eh
   gradient norm :     0.0032180 Eh/a0  converged?    E=T G=F D=T
   time step     :     0.1830125 fs     power     :   0.2142824E-09
   step length   :     0.0009475 a0     speed     :   0.1252297E-03

........................................................................
.............................. CYCLE   16 ..............................
........................................................................

 iter      E             dE          RMSdq      gap      omega  full diag
   1  -3478.7504931 -0.347875E+04  0.137E-04   11.56       0.0  T
   2  -3478.7504931 -0.399223E-08  0.803E-05   11.56      21.8  T
   3  -3478.7504931 -0.172804E-10  0.176E-05   11.56      99.6  T
     SCC iter.                  ...        3 min,  0.522 sec
     gradient                   ...        3 min, 55.958 sec
 * total energy  : -3427.4618088 Eh     change    :  -0.3375927E-05 Eh
   gradient norm :     0.0028503 Eh/a0  converged?    E=T G=F D=F
   time step     :     0.2013138 fs     power     :   0.2032590E-09
   step length   :     0.0011589 a0     speed     :   0.1392516E-03

........................................................................
.............................. CYCLE   17 ..............................
........................................................................

 iter      E             dE          RMSdq      gap      omega  full diag
   1  -3478.7493627 -0.347875E+04  0.161E-04   11.56       0.0  T
   2  -3478.7493627 -0.497221E-08  0.948E-05   11.56      18.5  T
   3  -3478.7493627 -0.134605E-09  0.193E-05   11.56      90.6  T
     SCC iter.                  ...        2 min, 54.971 sec
     gradient                   ...        3 min, 52.876 sec
 * total energy  : -3427.4618123 Eh     change    :  -0.3420482E-05 Eh
   gradient norm :     0.0025440 Eh/a0  converged?    E=T G=F D=F
   time step     :     0.2214451 fs     power     :   0.1826775E-09
   step length   :     0.0013919 a0     speed     :   0.1520439E-03

........................................................................
.............................. CYCLE   18 ..............................
........................................................................

 iter      E             dE          RMSdq      gap      omega  full diag
   1  -3478.7482600 -0.347875E+04  0.185E-04   11.56       0.0  T
   2  -3478.7482600 -0.548152E-08  0.109E-04   11.56      16.1  T
   3  -3478.7482600 -0.145519E-09  0.198E-05   11.56      88.4  T
     SCC iter.                  ...        3 min,  1.761 sec
     gradient                   ...        3 min, 53.341 sec
 * total energy  : -3427.4618156 Eh     change    :  -0.3341649E-05 Eh
   gradient norm :     0.0023786 Eh/a0  converged?    E=T G=F D=F
   time step     :     0.2435896 fs     power     :   0.1574905E-09
   step length   :     0.0016391 a0     speed     :   0.1627663E-03

........................................................................
.............................. CYCLE   19 ..............................
........................................................................

 iter      E             dE          RMSdq      gap      omega  full diag
   1  -3478.7473475 -0.347875E+04  0.205E-04   11.56       0.0  T
   2  -3478.7473475 -0.522778E-08  0.121E-04   11.56      14.5  T
   3  -3478.7473475 -0.454747E-10  0.184E-05   11.56      95.1  T
     SCC iter.                  ...        2 min, 53.807 sec
     gradient                   ...        3 min, 54.816 sec
 * total energy  : -3427.4618188 Eh     change    :  -0.3204805E-05 Eh
   gradient norm :     0.0023858 Eh/a0  converged?    E=T G=F D=F
   time step     :     0.2679486 fs     power     :   0.1361181E-09
   step length   :     0.0018906 a0     speed     :   0.1706695E-03

........................................................................
.............................. CYCLE   20 ..............................
........................................................................

 iter      E             dE          RMSdq      gap      omega  full diag
   1  -3478.7468272 -0.347875E+04  0.222E-04   11.56       0.0  T
   2  -3478.7468273 -0.392038E-08  0.131E-04   11.56      13.3  T
   3  -3478.7468273 -0.477485E-10  0.156E-05   11.56     112.4  T
     SCC iter.                  ...        2 min, 55.020 sec
     gradient                   ...        4 min,  0.224 sec
 * total energy  : -3427.4618220 Eh     change    :  -0.3224608E-05 Eh
   gradient norm :     0.0024874 Eh/a0  converged?    E=T G=F D=F
   time step     :     0.2947435 fs     power     :   0.1266265E-09
   step length   :     0.0021440 a0     speed     :   0.1759520E-03
 * RMSD in coord.:     0.0005432 a0     energy gain  -0.2780652E-03 Eh

........................................................................
.............................. CYCLE   21 ..............................
........................................................................

 iter      E             dE          RMSdq      gap      omega  full diag
   1  -3478.7468493 -0.347875E+04  0.182E-04   11.56       0.0  T
   2  -3478.7468493 -0.153932E-08  0.107E-04   11.56      16.3  T
   3  -3478.7468493 -0.909495E-12  0.101E-05   11.56     173.7  T
     SCC iter.                  ...        2 min, 58.370 sec
     gradient                   ...        3 min, 55.715 sec
 * total energy  : -3427.4618248 Eh     change    :  -0.2729562E-05 Eh
   gradient norm :     0.0025293 Eh/a0  converged?    E=T G=F D=F
   time step     :     0.2500000 fs     power     :   0.1333431E-09
   step length   :     0.0018307 a0     speed     :   0.1771339E-03

........................................................................
.............................. CYCLE   22 ..............................
........................................................................

 iter      E             dE          RMSdq      gap      omega  full diag
   1  -3478.7473283 -0.347875E+04  0.177E-04   11.56       0.0  T
   2  -3478.7473283 -0.114915E-08  0.104E-04   11.56      16.9  T
   3  -3478.7473283 -0.836735E-10  0.968E-06   11.56     181.0  T
     SCC iter.                  ...        3 min,  2.934 sec
     gradient                   ...        3 min, 55.223 sec
 * total energy  : -3427.4618277 Eh     change    :  -0.2902452E-05 Eh
   gradient norm :     0.0024600 Eh/a0  converged?    E=T G=F D=F
   time step     :     0.2500000 fs     power     :   0.1447928E-09
   step length   :     0.0018485 a0     speed     :   0.1788495E-03

........................................................................
.............................. CYCLE   23 ..............................
........................................................................

 iter      E             dE          RMSdq      gap      omega  full diag
   1  -3478.7482242 -0.347875E+04  0.176E-04   11.56       0.0  T
   2  -3478.7482242 -0.155660E-08  0.103E-04   11.56      17.0  T
   3  -3478.7482242  0.486580E-10  0.107E-05   11.56     163.7  T
     SCC iter.                  ...        2 min, 56.246 sec
     gradient                   ...        3 min, 56.189 sec
 * total energy  : -3427.4618307 Eh     change    :  -0.3072161E-05 Eh
   gradient norm :     0.0022661 Eh/a0  converged?    E=T G=F D=F
   time step     :     0.2500000 fs     power     :   0.1528962E-09
   step length   :     0.0018795 a0     speed     :   0.1818533E-03

........................................................................
.............................. CYCLE   24 ..............................
........................................................................

 iter      E             dE          RMSdq      gap      omega  full diag
   1  -3478.7494711 -0.347875E+04  0.179E-04   11.56       0.0  T
   2  -3478.7494711 -0.239606E-08  0.104E-04   11.56      16.9  T
   3  -3478.7494711 -0.154614E-10  0.127E-05   11.56     138.3  T
     SCC iter.                  ...        3 min,  0.841 sec
     gradient                   ...        3 min, 57.151 sec
 * total energy  : -3427.4618338 Eh     change    :  -0.3084529E-05 Eh
   gradient norm :     0.0019690 Eh/a0  converged?    E=T G=F D=F
   time step     :     0.2500000 fs     power     :   0.1515534E-09
   step length   :     0.0019231 a0     speed     :   0.1860664E-03

........................................................................
.............................. CYCLE   25 ..............................
........................................................................

 iter      E             dE          RMSdq      gap      omega  full diag
   1  -3478.7509782 -0.347875E+04  0.182E-04   11.56       0.0  T
   2  -3478.7509782 -0.336968E-08  0.105E-04   11.56      16.7  T
   3  -3478.7509782 -0.231466E-09  0.150E-05   11.56     117.1  T
     SCC iter.                  ...        3 min,  3.130 sec
     gradient                   ...        3 min, 56.752 sec
 * total energy  : -3427.4618367 Eh     change    :  -0.2890676E-05 Eh
   gradient norm :     0.0016270 Eh/a0  converged?    E=T G=F D=F
   time step     :     0.2500000 fs     power     :   0.1383493E-09
   step length   :     0.0019731 a0     speed     :   0.1909126E-03

........................................................................
.............................. CYCLE   26 ..............................
........................................................................

 iter      E             dE          RMSdq      gap      omega  full diag
   1  -3478.7527958 -0.347875E+04  0.202E-04   11.56       0.0  T
   2  -3478.7527959 -0.517684E-08  0.115E-04   11.56      15.2  T
   3  -3478.7527959 -0.545697E-10  0.185E-05   11.56      94.8  T
     SCC iter.                  ...        3 min,  1.772 sec
     gradient                   ...        3 min, 56.010 sec
 * total energy  : -3427.4618394 Eh     change    :  -0.2722223E-05 Eh
   gradient norm :     0.0013286 Eh/a0  converged?    E=T G=F D=F
   time step     :     0.2750000 fs     power     :   0.1126269E-09
   step length   :     0.0022318 a0     speed     :   0.1963040E-03

........................................................................
.............................. CYCLE   27 ..............................
........................................................................

 iter      E             dE          RMSdq      gap      omega  full diag
   1  -3478.7547290 -0.347875E+04  0.215E-04   11.56       0.0  T
   2  -3478.7547290 -0.597402E-08  0.123E-04   11.56      14.3  T
   3  -3478.7547290 -0.107775E-09  0.198E-05   11.56      88.4  T
     SCC iter.                  ...        2 min, 58.381 sec
     gradient                   ...        3 min, 55.599 sec
 * total energy  : -3427.4618418 Eh     change    :  -0.2330353E-05 Eh
   gradient norm :     0.0012848 Eh/a0  converged?    E=T G=F D=F
   time step     :     0.3025000 fs     power     :   0.8208071E-10
   step length   :     0.0025026 a0     speed     :   0.2001192E-03

........................................................................
.............................. CYCLE   28 ..............................
........................................................................

 iter      E             dE          RMSdq      gap      omega  full diag
   1  -3478.7564265 -0.347876E+04  0.213E-04   11.56       0.0  T
   2  -3478.7564265 -0.462433E-08  0.122E-04   11.56      14.4  T
   3  -3478.7564265 -0.128239E-09  0.170E-05   11.56     103.0  T
     SCC iter.                  ...        3 min,  8.546 sec
     gradient                   ...        4 min,  0.807 sec
 * total energy  : -3427.4618437 Eh     change    :  -0.1974613E-05 Eh
   gradient norm :     0.0014985 Eh/a0  converged?    E=T G=F D=F
   time step     :     0.3327500 fs     power     :   0.6235751E-10
   step length   :     0.0027374 a0     speed     :   0.1989945E-03

........................................................................
.............................. CYCLE   29 ..............................
........................................................................

 iter      E             dE          RMSdq      gap      omega  full diag
   1  -3478.7575611 -0.347876E+04  0.201E-04   11.56       0.0  T
   2  -3478.7575611 -0.218870E-08  0.116E-04   11.56      15.1  T
   3  -3478.7575611 -0.112777E-09  0.115E-05   11.56     152.9  T
     SCC iter.                  ...        2 min, 59.534 sec
     gradient                   ...        3 min, 54.788 sec
 * total energy  : -3427.4618457 Eh     change    :  -0.1987521E-05 Eh
   gradient norm :     0.0017031 Eh/a0  converged?    E=T G=F D=F
   time step     :     0.3660250 fs     power     :   0.6179936E-10
   step length   :     0.0029359 a0     speed     :   0.1940210E-03

........................................................................
.............................. CYCLE   30 ..............................
........................................................................

 iter      E             dE          RMSdq      gap      omega  full diag
   1  -3478.7579160 -0.347876E+04  0.189E-04   11.56       0.0  T
   2  -3478.7579160 -0.995442E-09  0.110E-04   11.56      15.9  T
   3  -3478.7579160 -0.138698E-09  0.817E-06   11.56     214.3  T
     SCC iter.                  ...        2 min, 57.258 sec
     gradient                   ...        3 min, 53.870 sec
 * total energy  : -3427.4618482 Eh     change    :  -0.2445579E-05 Eh
   gradient norm :     0.0017109 Eh/a0  converged?    E=T G=F D=F
   time step     :     0.4026275 fs     power     :   0.7362468E-10
   step length   :     0.0031589 a0     speed     :   0.1897805E-03

........................................................................
.............................. CYCLE   31 ..............................
........................................................................

 iter      E             dE          RMSdq      gap      omega  full diag
   1  -3478.7573938 -0.347876E+04  0.189E-04   11.56       0.0  T
   2  -3478.7573938 -0.223918E-08  0.111E-04   11.56      15.7  T
   3  -3478.7573938 -0.118234E-09  0.108E-05   11.56     162.9  T
     SCC iter.                  ...        3 min,  0.115 sec
     gradient                   ...        3 min, 54.120 sec
 * total energy  : -3427.4618512 Eh     change    :  -0.3034707E-05 Eh
   gradient norm :     0.0014864 Eh/a0  converged?    E=T G=F D=F
   time step     :     0.4428903 fs     power     :   0.8236089E-10
   step length   :     0.0034612 a0     speed     :   0.1890379E-03

........................................................................
.............................. CYCLE   32 ..............................
........................................................................

 iter      E             dE          RMSdq      gap      omega  full diag
   1  -3478.7560998 -0.347876E+04  0.200E-04   11.56       0.0  T
   2  -3478.7560998 -0.578302E-08  0.119E-04   11.56      14.8  T
   3  -3478.7560998 -0.128694E-09  0.182E-05   11.56      96.2  T
     SCC iter.                  ...        2 min, 57.427 sec
     gradient                   ...        3 min, 58.000 sec
 * total energy  : -3427.4618545 Eh     change    :  -0.3286742E-05 Eh
   gradient norm :     0.0012149 Eh/a0  converged?    E=T G=F D=F
   time step     :     0.4871793 fs     power     :   0.7576030E-10
   step length   :     0.0038614 a0     speed     :   0.1917194E-03

........................................................................
.............................. CYCLE   33 ..............................
........................................................................

 iter      E             dE          RMSdq      gap      omega  full diag
   1  -3478.7545461 -0.347875E+04  0.203E-04   11.56       0.0  T
   2  -3478.7545461 -0.748787E-08  0.120E-04   11.56      14.6  T
   3  -3478.7545461 -0.235104E-09  0.216E-05   11.56      81.1  T
     SCC iter.                  ...        3 min,  3.725 sec
     gradient                   ...        3 min, 56.444 sec
 * total energy  : -3427.4618576 Eh     change    :  -0.3068765E-05 Eh
   gradient norm :     0.0012811 Eh/a0  converged?    E=T G=F D=F
   time step     :     0.5358972 fs     power     :   0.6107638E-10
   step length   :     0.0043197 a0     speed     :   0.1949791E-03

........................................................................
.............................. CYCLE   34 ..............................
........................................................................

 iter      E             dE          RMSdq      gap      omega  full diag
   1  -3478.7536356 -0.347875E+04  0.187E-04   11.56       0.0  T
   2  -3478.7536356 -0.356886E-08  0.111E-04   11.56      15.8  T
   3  -3478.7536356 -0.117325E-09  0.125E-05   11.56     139.7  T
     SCC iter.                  ...        2 min, 56.275 sec
     gradient                   ...        3 min, 56.189 sec
 * total energy  : -3427.4618607 Eh     change    :  -0.3148361E-05 Eh
   gradient norm :     0.0015024 Eh/a0  converged?    E=T G=F D=F
   time step     :     0.5894869 fs     power     :   0.6183766E-10
   step length   :     0.0047568 a0     speed     :   0.1951890E-03

........................................................................
.............................. CYCLE   35 ..............................
........................................................................

 iter      E             dE          RMSdq      gap      omega  full diag
   1  -3478.7540462 -0.347875E+04  0.197E-04   11.56       0.0  T
   2  -3478.7540462 -0.945420E-09  0.116E-04   11.56      15.2  T
   3  -3478.7540462 -0.936780E-10  0.702E-06   11.56     249.5  T
     SCC iter.                  ...        2 min, 57.546 sec
     gradient                   ...        3 min, 54.337 sec
 * total energy  : -3427.4618648 Eh     change    :  -0.4073091E-05 Eh
   gradient norm :     0.0014211 Eh/a0  converged?    E=T G=F D=F
   time step     :     0.6484356 fs     power     :   0.7668665E-10
   step length   :     0.0052595 a0     speed     :   0.1961980E-03

........................................................................
.............................. CYCLE   36 ..............................
........................................................................

 iter      E             dE          RMSdq      gap      omega  full diag
   1  -3478.7559305 -0.347876E+04  0.252E-04   11.56       0.0  T
   2  -3478.7559305 -0.658338E-08  0.146E-04   11.56      12.0  T
   3  -3478.7559305 -0.236923E-09  0.207E-05   11.56      84.7  T
     SCC iter.                  ...        3 min,  0.409 sec
     gradient                   ...        3 min, 56.329 sec
 * total energy  : -3427.4618696 Eh     change    :  -0.4844042E-05 Eh
   gradient norm :     0.0010903 Eh/a0  converged?    E=T G=F D=F
   time step     :     0.7132792 fs     power     :   0.7820510E-10
   step length   :     0.0059558 a0     speed     :   0.2019748E-03

........................................................................
.............................. CYCLE   37 ..............................
........................................................................

 iter      E             dE          RMSdq      gap      omega  full diag
   1  -3478.7584056 -0.347876E+04  0.281E-04   11.56       0.0  T
   2  -3478.7584056 -0.117407E-07  0.163E-04   11.56      10.8  T
   3  -3478.7584056 -0.316504E-09  0.290E-05   11.56      60.4  T
     SCC iter.                  ...        2 min, 56.377 sec
     gradient                   ...        3 min, 55.249 sec
 * total energy  : -3427.4618743 Eh     change    :  -0.4690794E-05 Eh
   gradient norm :     0.0011988 Eh/a0  converged?    E=T G=F D=F
   time step     :     0.7846071 fs     power     :   0.6408664E-10
   step length   :     0.0068153 a0     speed     :   0.2101091E-03

........................................................................
.............................. CYCLE   38 ..............................
........................................................................

 iter      E             dE          RMSdq      gap      omega  full diag
   1  -3478.7595605 -0.347876E+04  0.245E-04   11.56       0.0  T
   2  -3478.7595606 -0.513501E-08  0.144E-04   11.56      12.2  T
   3  -3478.7595606 -0.337877E-09  0.200E-05   11.56      87.8  T
     SCC iter.                  ...        3 min,  1.835 sec
     gradient                   ...        3 min, 53.990 sec
 * total energy  : -3427.4618794 Eh     change    :  -0.5118574E-05 Eh
   gradient norm :     0.0013179 Eh/a0  converged?    E=F G=F D=F
   time step     :     0.8630678 fs     power     :   0.7060193E-10
   step length   :     0.0076454 a0     speed     :   0.2142756E-03

........................................................................
.............................. CYCLE   39 ..............................
........................................................................

 iter      E             dE          RMSdq      gap      omega  full diag
   1  -3478.7585641 -0.347876E+04  0.268E-04   11.56       0.0  T
   2  -3478.7585641 -0.828140E-08  0.156E-04   11.56      11.2  T
   3  -3478.7585641 -0.256023E-09  0.263E-05   11.56      66.7  T
     SCC iter.                  ...        2 min, 59.374 sec
     gradient                   ...        3 min, 53.276 sec
 * total energy  : -3427.4618857 Eh     change    :  -0.6267742E-05 Eh
   gradient norm :     0.0010273 Eh/a0  converged?    E=F G=F D=F
   time step     :     0.9493746 fs     power     :   0.7643580E-10
   step length   :     0.0086739 a0     speed     :   0.2210004E-03

........................................................................
.............................. CYCLE   40 ..............................
........................................................................

 iter      E             dE          RMSdq      gap      omega  full diag
   1  -3478.7569378 -0.347876E+04  0.303E-04   11.56       0.0  T
   2  -3478.7569378 -0.105620E-07  0.176E-04   11.56      10.0  T
   3  -3478.7569378 -0.311502E-09  0.265E-05   11.56      66.2  T
     SCC iter.                  ...        3 min,  1.256 sec
     gradient                   ...        3 min, 54.454 sec
 * total energy  : -3427.4618920 Eh     change    :  -0.6349651E-05 Eh
   gradient norm :     0.0012257 Eh/a0  converged?    E=F G=F D=F
   time step     :     1.0443120 fs     power     :   0.6719972E-10
   step length   :     0.0099767 a0     speed     :   0.2310859E-03

........................................................................
.............................. CYCLE   41 ..............................
........................................................................

 iter      E             dE          RMSdq      gap      omega  full diag
   1  -3478.7577683 -0.347876E+04  0.315E-04   11.56       0.0  T
   2  -3478.7577683 -0.439377E-08  0.184E-04   11.56       9.5  T
   3  -3478.7577683 -0.400178E-09  0.133E-05   11.56     132.2  T
     SCC iter.                  ...        3 min,  1.457 sec
     gradient                   ...        3 min, 58.909 sec
 * total energy  : -3427.4618997 Eh     change    :  -0.7665959E-05 Eh
   gradient norm :     0.0010967 Eh/a0  converged?    E=F G=F D=F
   time step     :     1.1487432 fs     power     :   0.8066174E-10
   step length   :     0.0113142 a0     speed     :   0.2382411E-03

........................................................................
.............................. CYCLE   42 ..............................
........................................................................

 iter      E             dE          RMSdq      gap      omega  full diag
   1  -3478.7602671 -0.347876E+04  0.385E-04   11.56       0.0  T
   2  -3478.7602671 -0.183582E-07  0.224E-04   11.56       7.8  T
   3  -3478.7602671 -0.616637E-09  0.326E-05   11.56      53.7  T
     SCC iter.                  ...        2 min, 59.243 sec
     gradient                   ...        3 min, 54.098 sec
 * total energy  : -3427.4619081 Eh     change    :  -0.8369911E-05 Eh
   gradient norm :     0.0011501 Eh/a0  converged?    E=F G=F D=F
   time step     :     1.2500000 fs     power     :   0.7331057E-10
   step length   :     0.0129447 a0     speed     :   0.2504940E-03
 * RMSD in coord.:     0.0016551 a0     energy gain  -0.8605801E-04 Eh

........................................................................
.............................. CYCLE   43 ..............................
........................................................................

 iter      E             dE          RMSdq      gap      omega  full diag
   1  -3478.7603374 -0.347876E+04  0.593E-05   11.56       0.0  T
   2  -3478.7603374 -0.167347E-09  0.349E-05   11.56      50.2  T
   3  -3478.7603374  0.254659E-10  0.212E-06   11.56     827.8  T
     SCC iter.                  ...        2 min, 58.762 sec
     gradient                   ...        3 min, 55.760 sec
 * total energy  : -3427.4619097 Eh     change    :  -0.1594241E-05 Eh
   gradient norm :     0.0011713 Eh/a0  converged?    E=T G=F D=F
   time step     :     0.2500000 fs     power     :   0.8335506E-10
   step length   :     0.0024982 a0     speed     :   0.2417123E-03

........................................................................
.............................. CYCLE   44 ..............................
........................................................................

 iter      E             dE          RMSdq      gap      omega  full diag
   1  -3478.7600166 -0.347876E+04  0.583E-05   11.56       0.0  T
   2  -3478.7600166 -0.255568E-09  0.340E-05   11.56      51.5  T
   3  -3478.7600166 -0.413820E-10  0.427E-06   11.56     410.6  T
     SCC iter.                  ...        3 min,  1.673 sec
     gradient                   ...        3 min, 54.484 sec
 * total energy  : -3427.4619114 Eh     change    :  -0.1756277E-05 Eh
   gradient norm :     0.0010888 Eh/a0  converged?    E=T G=F D=F
   time step     :     0.2500000 fs     power     :   0.9164255E-10
   step length   :     0.0024342 a0     speed     :   0.2355176E-03

........................................................................
.............................. CYCLE   45 ..............................
........................................................................

 iter      E             dE          RMSdq      gap      omega  full diag
   1  -3478.7593912 -0.347876E+04  0.678E-05   11.56       0.0  T
   2  -3478.7593912 -0.773980E-09  0.394E-05   11.56      44.5  T
   3  -3478.7593912 -0.663931E-10  0.767E-06   11.56     228.3  T
     SCC iter.                  ...        3 min,  1.523 sec
     gradient                   ...        3 min, 55.081 sec
 * total energy  : -3427.4619133 Eh     change    :  -0.1825990E-05 Eh
   gradient norm :     0.0009550 Eh/a0  converged?    E=T G=T D=F
   time step     :     0.2500000 fs     power     :   0.9399748E-10
   step length   :     0.0024022 a0     speed     :   0.2324265E-03

   *** GEOMETRY OPTIMIZATION CONVERGED AFTER 45 CYCLES ***

------------------------------------------------------------------------
 total energy gain   :        -0.0003693 Eh       -0.2317 kcal/mol
 total RMSD          :         0.0020001 a0        0.0011 Å
 total power (kW/mol):        -0.0215466 (step)   -0.0000 (real)
------------------------------------------------------------------------

 FIRE (total)                  0 d,  5 h, 25 min, 25.856 sec
 setup                          ...        0 min,  0.116 sec (  0.001%)
 velocities                     ...        0 min,  0.003 sec (  0.000%)
 propagation                    ...        0 min,  0.005 sec (  0.000%)
 singlepoint calculation        ...      325 min, 24.961 sec ( 99.995%)
 log and printout               ...        0 min,  0.697 sec (  0.004%)
 preconditioner                 ...        0 min,  0.000 sec (  0.000%)
 model hessian                  ...        0 min,  0.000 sec (  0.000%)
 hessian update                 ...        0 min,  0.000 sec (  0.000%)

================
 final structure:
================
3258
 xtb: 6.6.1 (8d0f1dd)
C          109.57332441233616      106.07709761286733      103.92361756995783
C          111.04116308361783      105.69515905682461      103.78181628112867
C          111.93766430515763      106.89528885290716      104.06273214399825
C          113.42873372560315      106.63274943466415      103.85937358310747
C          114.17702000102385      107.95903062211625      103.76124589875593
C          115.68192691021675      107.81880151869950      103.56466207485501
C          116.37584910976102      109.17733893148683      103.44113958986226
C          115.94216339824612      109.93676586702703      102.18858101841910
C          116.79380420321966      111.16519995856197      101.87897446926591
C          116.58143601513103      112.34378686772710      102.82785992402007
C          117.34523976599256      113.56193740223669      102.31477231447327
C          117.18742232444144      114.81177448880803      103.17469976383995
C          118.03175833932333      115.98435253077409      102.67038483975537
C          117.65798054618595      116.42316469553970      101.25684814287067
C          118.42965453619132      117.66289695858521      100.80975095328034
C          118.16793065717847      118.02295507578954       99.34546232586064
C          116.71233239408600      118.40307840871203       99.09016387657755
C          116.43522414543477      118.83476713327468       97.65192171809404
C          114.94340426651451      119.09719895431218       97.46153903919401
C          114.57916448454387      119.58418858566463       96.06180514055109
C          113.06791938985873      119.75148008136267       95.89058822434524
C          112.50006955071437      120.96151880021537       96.63073587752963
C          110.97315847255810      120.96196349924784       96.62975864745181
C          110.39511499063205      122.16448215137524       97.37357819292573
C          108.87099017667040      122.10471551054606       97.49892096459563
C          108.39721775894624      121.16900824269352       98.61029578774638
C          106.87640325492453      121.02987800590094       98.61734360685571
C          106.37696786962124      120.12656515670312       99.74521055234425
C          104.95995700353578      119.60441035238752       99.50579829553776
C          103.85508385528556      120.65665347507793       99.61710246667475
C          103.48117733347075      120.98772411396492      101.05984999752644
C          102.37845304122341      122.04147294926771      101.13145929631634
C          101.93412235517816      122.31575537194560      102.56564570938248
C          100.91356557383287      123.44810341733894      102.64620751890274
C          100.55777013680864      123.83524480831470      104.08260478428745
C           99.78725781221139      122.74353415538936      104.82237877783099
C           99.17830893671886      123.21973046521985      106.14157893427686
C          100.18705112501756      123.67779656464991      107.19519259918842
C          101.13652035690997      122.57309286106515      107.65377661800902
C          101.95874399512796      123.01201991240002      108.86336137880487
C          102.95438077910472      121.94159180687475      109.30541149120361
C          103.95780636688967      122.44321244570921      110.34373175907328
C          103.33869429004605      122.68796188496192      111.71765922117686
C          104.34471601266669      123.31608720756499      112.67932931428638
C          103.86892060433182      123.33625329522980      114.13057656623572
C          102.61657099236947      124.17745353050924      114.36273530906719
C          102.29505009086880      124.29349555055522      115.85130864561911
C          101.02023837607211      125.09418886469125      116.10225527789613
C          100.60101324477189      125.11944769199185      117.57246965448959
C          101.61373736233540      125.82762255709076      118.47166445947232
C          101.05538377443725      126.17452527802249      119.85198659585795
C          100.68026979944875      124.95142989127500      120.68657485508358
C          100.28719416152610      125.34836050598484      122.10820839853247
C           99.95969290905650      124.15546838584609      123.00729893562362
C           98.63512114409991      123.47794148921325      122.66114360649736
C           98.32027690036828      122.34380545918116      123.63485819400053
C           96.94300775018064      121.71345080904781      123.42314253434495
C           96.81441134491058      120.96891805855101      122.09649462055671
C           95.45801742356386      120.27862226272946      121.96330532104321
C           95.29702666911375      119.51157140296401      120.64962072848039
C           95.21395477699299      120.42753997265456      119.43030099088783
C           95.08554087190137      119.64938754670128      118.12318590938101
C           95.04223722859101      120.58208023167060      116.91416028612859
C           95.00317050973933      119.81678654273247      115.59470148632646
C           95.03878552209929      120.74759825235233      114.38441189535475
C           95.02156994142807      119.96354637803040      113.07544569492619
C           95.14132949395038      120.85112359992654      111.83909443780507
C           95.03850032114063      120.02763277222776      110.55640514530698
C           95.40476260019044      120.82660948488683      109.30919253259827
C           95.26463916599933      119.98775827851067      108.04083362395322
C           95.83721555713505      120.68993991112977      106.81322605686537
C           95.61328000673373      119.88573461532539      105.53475860900230
C           96.34877853864077      120.49006586495616      104.34098367032378
C           96.00161789161838      119.77565408388254      103.03720810013513
C           96.70954644173989      120.36266523355167      101.81464031969382
C           98.22909218905640      120.18474869736212      101.79947431286465
C           98.65926380465650      118.72104315801984      101.77754226681752
C          100.15930953636882      118.55888369960202      101.55073914334520
C          100.57496181339131      117.09021236598650      101.55052787637770
C          102.06919165756420      116.91132530150362      101.30020058494802
C          102.48397461502923      115.44242895319088      101.32259459037968
C          103.98408529719448      115.27562492824829      101.09985368197005
C          104.42291605153611      113.81445456871435      101.14936077623912
C          105.92335777650855      113.66288227593489      100.91352323768579
C          106.36334151510378      112.20183273160983      100.92144720440933
C          107.84475520559434      112.04238749959529      100.59041376193721
C          108.27940259083091      110.57911632212392      100.59454145185778
C          109.74783645990364      110.41507078100176      100.21143647171053
C          110.21948272399874      108.96574191115586      100.30564402580858
C          111.69357506037738      108.81440577103741       99.93627709957150
C          112.18532511827526      107.37532924526346      100.07163423024454
C          113.64518554907409      107.22736327117221       99.64723101903498
C          114.16901614794722      105.80916372935586       99.87083672069778
C          115.46007746337774      105.50171779577084       99.11292358319486
C          116.66382837585714      106.34039229814148       99.53891731914501
C          117.89830113437503      105.96521317133944       98.72075507816568
C          119.14049254404672      106.78496699395129       99.06773972192902
C          120.33941914074478      106.31194332267700       98.24767178826367
C          121.64372104956318      107.06224310269897       98.52060664406915
C          121.64059394199315      108.51785712459616       98.04581545343967
C          123.06884379962725      109.03162319917772       97.85745523502163
C          123.17050738172327      110.53058287490683       97.57011272823360
C          122.42093244199900      110.97388041727213       96.31378949221849
C          122.74071922292669      112.42486057056384       95.94714225496978
C          121.78770785453779      113.01773342826564       94.90416274099448
C          120.42669892706181      113.37769690248167       95.49659466062241
C          119.47382374376018      114.01484576966621       94.48714766969420
C          118.11306462481629      114.29720243299934       95.12224246969838
C          117.11329423810959      114.92180491302580       94.15263743157175
C          115.74358264071566      115.12207164825598       94.80035422990446
C          114.74007066638225      115.75517488453532       93.83945265551678
C          113.35825618533775      115.92833882388152       94.46681682560389
C          112.38757866054081      116.62090705723428       93.51297987799006
C          111.00666552508456      116.83092087573775       94.12943403424410
C          110.06906925688942      117.57846217279373       93.18340245502317
C          108.71319888957842      117.87185012029353       93.82157636373459
C          107.77606207988514      118.60339777176061       92.86311550667101
C          106.39691515291489      118.88869659831322       93.46004764672267
C          106.41899093348526      119.94264209072232       94.56576216112789
C          105.01264851809718      120.29441267103974       95.03659449134325
H          106.99999878752348      119.57624586944104       95.41431459430423
H          106.90925851434007      120.84402713329857       94.18982704801731
H          105.73786780988588      119.23911781117110       92.66158860360483
H          105.97243130753525      117.96053405162540       93.85104124359822
H          108.23584298382060      119.54606567018391       92.55614868038754
H          107.65001040014148      117.99294584796949       91.96526263238205
H          108.24789607141575      116.93182620320258       94.12772226011430
H          108.86982680484057      118.47867859466290       94.71564673585590
H          110.53597627116481      118.52126052637288       92.88772182408884
H          109.92302387426103      116.98649011392338       92.27664165605626
H          110.56938918237515      115.86300995918540       94.38506368632021
H          111.11029890408138      117.40016162380523       95.05566039861901
H          112.80180616347867      117.59104201213525       93.22816056494004
H          112.28982687967989      116.02564905791866       92.60187889379839
H          112.96056577974163      114.94880238686473       94.74329323842143
H          113.44860030906517      116.52007392072080       95.38056521845029
H          115.11459640609480      116.73148960395244       93.52154242850294
H          114.65375992628101      115.13180061386042       92.94619111154326
H          115.36010753116288      114.15592450873359       95.13805668998290
H          115.84958158892221      115.75878971094261       95.68229747556065
H          117.49539970154513      115.88462917127544       93.80515573541619
H          117.00652085749482      114.27542633749309       93.27814321917018
H          117.69939751798731      113.35838373545639       95.49850035620318
H          118.24687127539657      114.96448048018554       95.97779053938203
H          119.90356011271925      114.94600602330753       94.11055546345652
H          119.34290058318368      113.34333603516063       93.63521569488792
H          119.95430059889874      112.47924758061322       95.89471394620206
H          120.57595824933439      114.07031112931703       96.32839241551103
H          122.23809003324472      113.92160949752943       94.48656948745814
H          121.65684428276620      112.30678258071823       94.08510870980805
H          122.70229137288536      113.04258587731694       96.84807903729812
H          123.76395915248102      112.47146886092028       95.56709475015876
H          122.69145470264641      110.32435290652087       95.47814831268920
H          121.34948854468561      110.86728613544420       96.48227322812735
H          122.78852525859146      111.08564656439847       98.42962397567688
H          124.22744687755481      110.78704013781957       97.45847330950001
H          123.63951772480085      108.81863321827001       98.76543302959668
H          123.53686559857617      108.47851695918472       97.03907174824791
H          121.10527566544798      108.58128024515999       97.09697789221281
H          121.11920403783753      109.14844560874923       98.76777981112740
H          121.87256554879050      107.02477000293152       99.58748281259132
H          122.44472662768497      106.53296903509786       97.99751782889918
H          120.50234109063430      105.25103780523170       98.45715318961665
H          120.09747365460319      106.40002086314921       97.18544593189722
H          118.95017785061791      107.84099590004801       98.86820587374659
H          119.35960514607878      106.67861193820734      100.13291371117784
H          118.11789832224387      104.90546739988525       98.87602666815545
H          117.67357339014410      106.09776327995679       97.65909852218761
H          116.44516047780859      107.40051407346826       99.39856214590120
H          116.86646362574047      106.17833826356130      100.60051369932283
H          115.70394376921729      104.44723184226457       99.25893218639921
H          115.28610519902996      105.64616354556310       98.04335321235148
H          114.33138694590264      105.64358774074037      100.93827328466186
H          113.40635449516154      105.09783815333782       99.54180803167641
H          113.73044953209337      107.47818317230035       98.58940754571182
H          114.25361141168553      107.93829329512279      100.20909843291106
H          112.07258536108088      107.05136698492343      101.10739320391869
H          111.56305253558089      106.72402556017354       99.45222382767265
H          111.83999138465066      109.14805243256852       98.90553728599227
H          112.29802541137462      109.46214596253449      100.57756761727167
H          110.06342611440286      108.60002731783284      101.32436031898277
H          109.61649324753810      108.34511979914799       99.64060337343240
H          109.89565772851107      110.77766028125940       99.19159355390542
H          110.35626140998562      111.03419830610569      100.87312652088144
H          108.11370516548449      110.15726301503801      101.58885157464182
H          107.65558343249393      110.02018811911181       99.89245605071645
H          108.04134615722812      112.47236025659396       99.60555865012010
H          108.44051421696227      112.59991083867672      101.31815057258991
H          106.16415147594022      111.77187468479697      101.90609370416516
H          105.77015992216789      111.64468829694850      100.19259423055729
H          106.17993615448380      114.11145360549125       99.95069863992076
H          106.47067171171022      114.21221081893501      101.68320952106680
H          104.16313733969561      113.38852465673162      102.12179220335794
H          103.88105000617382      113.24811273498761      100.38808960359059
H          104.25550118820247      115.70399041264574      100.13237886271980
H          104.52233920091652      115.84023168977059      101.86556427847239
H          102.21077514179360      115.00311295586111      102.28510936836726
H          101.93782345391723      114.89763943412738      100.54819450386823
H          102.32873876922933      117.34570935028458      100.33213879475758
H          102.63069529602507      117.45308266167390      102.06559938404651
H          100.31432953814091      116.64363796958341      102.51361364750269
H          100.01376908226470      116.55838167908718      100.77861420597978
H          100.43591764757267      119.01420106567048      100.59663031948789
H          100.70211714951199      119.09003524801224      102.33658556226180
H           98.39428965685309      118.24273361766261      102.72212812494895
H           98.11844007252787      118.20638701092950      100.97978498903264
H           98.61960241543746      120.67901181593048      100.90557633341675
H           98.67477988815847      120.68010466939926      102.66301106201098
H           96.29821698331257      119.89102387451474      100.91814804564115
H           96.48192005058856      121.43032045268895      101.75711034801756
H           96.23803051505465      118.71455959947534      103.12741297277304
H           94.92307500918064      119.85199401909064      102.87584475597627
H           96.08762858800458      121.54760319006424      104.25202688845462
H           97.42286357070432      120.42800917855452      104.52403444452203
H           95.95712899707411      118.86003494028726      105.68651015985836
H           94.54286005025119      119.84221888398483      105.32069579037031
H           95.37901598511596      121.67590787172549      106.70659155459748
H           96.90972987448838      120.84241926410868      106.95941175332469
H           95.78632297579937      119.03823519796761      108.17861221817699
H           94.21011714129509      119.75920932321165      107.87173771869783
H           94.76535992501678      121.70921629656453      109.23685956218675
H           96.43615662270489      121.17481334434873      109.39996862283328
H           95.70950167257932      119.16766011570442      110.63100355350599
H           94.02288418293385      119.63933323363942      110.45473897636326
H           94.35486477469615      121.60872783634834      111.85181461371624
H           96.10087322543657      121.37348454474720      111.86018067982866
H           95.85085392474276      119.25062438528978      113.07844750556700
H           94.09323136317676      119.39170722194234      113.01716492853716
H           94.17959277573357      121.42105634887066      114.41733568189795
H           95.94056681147062      121.36350850300006      114.43026800808872
H           95.85827255273988      119.13717149964269      115.54782063523245
H           94.09760204588497      119.20671196142489      115.55588313381931
H           94.16339947583009      121.22679814690298      116.98584424225589
H           95.92372106473189      121.22779419334404      116.92602600244739
H           95.93640611232348      118.97014329059546      118.02509888934141
H           94.17954280015536      119.03906802355114      118.14544004884860
H           94.35529142780430      121.09392101138479      119.54038984739073
H           96.10939429983561      121.04850692820331      119.37648773876150
H           96.13678031197773      118.82240038414724      120.53016439773714
H           94.38604002742767      118.90989573022668      120.70106555456181
H           95.33472454102154      119.58136897665219      122.79636612620639
H           94.66460503595918      121.02569449217164      122.04167799420756
H           96.94241187085998      121.67561745227272      121.27684104470920
H           97.60847875040979      120.22182165704372      122.02598132879875
H           96.75042955631822      121.01240671022396      124.23991577224612
H           96.17871996041102      122.49268135650277      123.47418246915800
H           99.08753218407539      121.57226097553266      123.54368698283020
H           98.36862774882070      122.73578112432659      124.65425018247936
H           97.83241191487009      124.21834848051421      122.69742572748693
H           98.68446166763313      123.08526978829596      121.64549480332309
H          100.76825553160089      123.42322102130665      122.94280644345152
H           99.91250277402850      124.50175212431384      124.04299639847937
H          101.11607899758872      125.90429503622099      122.55454865616338
H           99.42569099628319      126.01946714160945      122.07224102409228
H           99.85301200758003      124.42568044518502      120.20976641198044
H          101.53165333943936      124.26847344394581      120.72984027338906
H          101.80910955822375      126.75160110514301      120.39458738861373
H          100.17590768005527      126.81291626632481      119.73616085630367
H          102.49898091328363      125.20185614467751      118.59538068745333
H          101.92690680005752      126.75497762159729      117.98496409415266
H           99.64102731749992      125.63658443716406      117.64901064577917
H          100.45511825788178      124.09446170053408      117.91683951449400
H          101.16244432311255      126.11852489356527      115.74891253773291
H          100.20861714010454      124.65530428429462      115.51592244881418
H          102.17701336117275      123.29204996736026      116.27117343895081
H          103.13413249331367      124.77094281544122      116.36089625793142
H          102.76761546681682      125.17598616676909      113.94533630873592
H          101.76736429645524      123.72506358749618      113.84724967465213
H          103.67381425093861      122.31130847377722      114.45739940508908
H          104.67426161329469      123.73332227704329      114.75269191835692
H          105.27907724748074      122.75028883960825      112.63073906679323
H          104.55984131937677      124.33790612627179      112.35642198455584
H          102.47474393575831      123.34485144367522      111.61781809666783
H          102.99205590564593      121.73573614453015      112.12775525946618
H          104.75923936354195      121.70626059020637      110.45020392603681
H          104.41225693265434      123.36900471100002      109.98157002270185
H          102.41299015000436      121.08266769635152      109.70958748016405
H          103.50431891185971      121.60041968214676      108.42653173007528
H          102.50294370287153      123.92467596302163      108.60822611285718
H          101.28138449885593      123.25235788727977      109.68470762129679
H          100.55933346016194      121.68244503422198      107.91064203739731
H          101.81319664755698      122.30668886024291      106.83953846327607
H          100.76743209556034      124.51899312851647      106.81205305526107
H           99.62751751139325      124.03850913641709      108.06265864473467
H           98.49495590441776      124.04689566514526      105.93266445506204
H           98.58336580851010      122.40432991001981      106.56100161051189
H           98.96930346674513      122.40500069252558      104.18136824138203
H          100.43703023307046      121.88797942186601      105.00965540711194
H          101.47654568132829      124.07295027735647      104.62194000010179
H           99.94302907588359      124.73877112561689      104.05773420480327
H          101.32612242844696      124.32566538664379      102.14142822933933
H          100.00552481551530      123.15881412982766      102.11167998639033
H          101.50714652808558      121.40319120677185      102.98424026077002
H          102.80612724551580      122.58344955648904      103.16506435751258
H          102.74073702359462      122.96847524087147      100.68049949545215
H          101.51841138825952      121.70552021110748      100.54718319573310
H          103.14199955634503      120.07667193008466      101.55858396537270
H          104.35873137404596      121.35441347992538      101.59576053826179
H          104.16095606708802      121.56728715874947       99.09993030139573
H          102.96322500616768      120.28042720550999       99.10882366624629
[...]
  3011   6 C     3012   6 C                                       1.5265126
  3012   6 C     3013   6 C                                       1.5266992
  3013   6 C     3014   6 C                                       1.5258976
  3014   6 C     3015   6 C                                       1.5258792
  3015   6 C     3016   6 C                                       1.5239941
  3015   6 C     3017   1 H                                       1.0929367
  3015   6 C     3018   1 H                                       1.0923904
  3014   6 C     3019   1 H                                       1.0927401
  3014   6 C     3020   1 H                                       1.0923054
  3013   6 C     3021   1 H                                       1.0923690
  3013   6 C     3022   1 H                                       1.0928145
  3012   6 C     3023   1 H                                       1.0932311
  3012   6 C     3024   1 H                                       1.0929436
  3011   6 C     3025   1 H                                       1.0922397
  3011   6 C     3026   1 H                                       1.0928679
  3010   6 C     3027   1 H                                       1.0921048
  3010   6 C     3028   1 H                                       1.0928583
  3009   6 C     3029   1 H                                       1.0927428
  3009   6 C     3030   1 H                                       1.0927228
  3008   6 C     3031   1 H                                       1.0925798
  3008   6 C     3032   1 H                                       1.0913511
  3007   6 C     3033   1 H                                       1.0923500
  3007   6 C     3034   1 H                                       1.0931109
  3006   6 C     3035   1 H                                       1.0931661
  3006   6 C     3036   1 H                                       1.0904992
  3005   6 C     3037   1 H                                       1.0904530
  3005   6 C     3038   1 H                                       1.0936028
  3004   6 C     3039   1 H                                       1.0903103
  3004   6 C     3040   1 H                                       1.0924341
  3003   6 C     3041   1 H                                       1.0910577
  3003   6 C     3042   1 H                                       1.0929311
  3002   6 C     3043   1 H                                       1.0917741
  3002   6 C     3044   1 H                                       1.0927155
  3001   6 C     3045   1 H                                       1.0932768
  3001   6 C     3046   1 H                                       1.0900897
  3000   6 C     3047   1 H                                       1.0925204
  3000   6 C     3048   1 H                                       1.0919546
  2999   6 C     3049   1 H                                       1.0918294
  2999   6 C     3050   1 H                                       1.0929942
  2998   6 C     3051   1 H                                       1.0926533
  2998   6 C     3052   1 H                                       1.0908448
  2997   6 C     3053   1 H                                       1.0924275
  2997   6 C     3054   1 H                                       1.0931699
  2996   6 C     3055   1 H                                       1.0925749
  2996   6 C     3056   1 H                                       1.0924697
  2995   6 C     3057   1 H                                       1.0930955
  2995   6 C     3058   1 H                                       1.0928186
  2994   6 C     3059   1 H                                       1.0927377
  2994   6 C     3060   1 H                                       1.0925995
  2993   6 C     3061   1 H                                       1.0928400
  2993   6 C     3062   1 H                                       1.0917636
  2992   6 C     3063   1 H                                       1.0916591
  2992   6 C     3064   1 H                                       1.0930682
  2991   6 C     3065   1 H                                       1.0927882
  2991   6 C     3066   1 H                                       1.0932367
  2990   6 C     3067   1 H                                       1.0935444
  2990   6 C     3068   1 H                                       1.0915876
  2989   6 C     3069   1 H                                       1.0898128
  2989   6 C     3070   1 H                                       1.0925672
  2988   6 C     3071   1 H                                       1.0935984
  2988   6 C     3072   1 H                                       1.0922971
  2987   6 C     3073   1 H                                       1.0928649
  2987   6 C     3074   1 H                                       1.0936153
  2986   6 C     3075   1 H                                       1.0914114
  2986   6 C     3076   1 H                                       1.0934046
  2985   6 C     3077   1 H                                       1.0926147
  2985   6 C     3078   1 H                                       1.0914341
  2984   6 C     3079   1 H                                       1.0926753
  2984   6 C     3080   1 H                                       1.0930627
  2983   6 C     3081   1 H                                       1.0935100
  2983   6 C     3082   1 H                                       1.0928253
  2982   6 C     3083   1 H                                       1.0919096
  2982   6 C     3084   1 H                                       1.0917467
  2981   6 C     3085   1 H                                       1.0913877
  2981   6 C     3086   1 H                                       1.0927038
  2980   6 C     3087   1 H                                       1.0927767
  2980   6 C     3088   1 H                                       1.0929502
  2979   6 C     3089   1 H                                       1.0908407
  2979   6 C     3090   1 H                                       1.0928260
  2978   6 C     3091   1 H                                       1.0928112
  2978   6 C     3092   1 H                                       1.0908088
  2977   6 C     3093   1 H                                       1.0930990
  2977   6 C     3094   1 H                                       1.0936801
  2976   6 C     3095   1 H                                       1.0927708
  2976   6 C     3096   1 H                                       1.0908935
  2975   6 C     3097   1 H                                       1.0933446
  2975   6 C     3098   1 H                                       1.0918832
  2974   6 C     3099   1 H                                       1.0924396
  2974   6 C     3100   1 H                                       1.0917428
  2973   6 C     3101   1 H                                       1.0933133
  2973   6 C     3102   1 H                                       1.0928686
  2972   6 C     3103   1 H                                       1.0910287
  2972   6 C     3104   1 H                                       1.0931302
  2971   6 C     3105   1 H                                       1.0926720
  2971   6 C     3106   1 H                                       1.0915519
  2970   6 C     3107   1 H                                       1.0926242
  2970   6 C     3108   1 H                                       1.0912337
  2969   6 C     3109   1 H                                       1.0926877
  2969   6 C     3110   1 H                                       1.0925170
  2968   6 C     3111   1 H                                       1.0926958
  2968   6 C     3112   1 H                                       1.0923423
  2967   6 C     3113   1 H                                       1.0921757
  2967   6 C     3114   1 H                                       1.0927724
  2966   6 C     3115   1 H                                       1.0921346
  2966   6 C     3116   1 H                                       1.0917006
  2965   6 C     3117   1 H                                       1.0909922
  2965   6 C     3118   1 H                                       1.0918399
  2964   6 C     3119   1 H                                       1.0915876
  2964   6 C     3120   1 H                                       1.0924040
  2963   6 C     3121   1 H                                       1.0929057
  2963   6 C     3122   1 H                                       1.0914718
  2962   6 C     3123   1 H                                       1.0926953
  2962   6 C     3124   1 H                                       1.0916344
  2961   6 C     3125   1 H                                       1.0912474
  2961   6 C     3126   1 H                                       1.0926251
  2960   6 C     3127   1 H                                       1.0926964
  2960   6 C     3128   1 H                                       1.0913874
  2959   6 C     3129   1 H                                       1.0912965
  2959   6 C     3130   1 H                                       1.0929644
  2958   6 C     3131   1 H                                       1.0932968
  2958   6 C     3132   1 H                                       1.0916875
  2957   6 C     3133   1 H                                       1.0932528
  2957   6 C     3134   1 H                                       1.0924586
  2956   6 C     3135   1 H                                       1.0915670
  2956   6 C     3136   1 H                                       1.0919932
  2955   6 C     3137   1 H                                       1.0930228
  2955   6 C     3138   1 H                                       1.0904042
  2954   6 C     3139   1 H                                       1.0924664
  2954   6 C     3140   1 H                                       1.0931185
  2953   6 C     3141   1 H                                       1.0926940
  2953   6 C     3142   1 H                                       1.0928507
  2952   6 C     3143   1 H                                       1.0906405
  2952   6 C     3144   1 H                                       1.0923954
  2951   6 C     3145   1 H                                       1.0931700
  2951   6 C     3146   1 H                                       1.0930690
  2950   6 C     3147   1 H                                       1.0926891
  2950   6 C     3148   1 H                                       1.0909481
  2949   6 C     3149   1 H                                       1.0917262
  2949   6 C     3150   1 H                                       1.0931958
  2948   6 C     3151   1 H                                       1.0931825
  2948   6 C     3152   1 H                                       1.0933117
  2947   6 C     3153   1 H                                       1.0934057
  2947   6 C     3154   1 H                                       1.0899838
  2946   6 C     3155   1 H                                       1.0893399
  2946   6 C     3156   1 H                                       1.0919570
  2945   6 C     3157   1 H                                       1.0928352
  2945   6 C     3158   1 H                                       1.0936598
  2944   6 C     3159   1 H                                       1.0916797
  2944   6 C     3160   1 H                                       1.0909836
  2943   6 C     3161   1 H                                       1.0912599
  2943   6 C     3162   1 H                                       1.0925599
  2942   6 C     3163   1 H                                       1.0937986
  2942   6 C     3164   1 H                                       1.0916703
  2941   6 C     3165   1 H                                       1.0917886
  2941   6 C     3166   1 H                                       1.0909314
  2940   6 C     3167   1 H                                       1.0938550
  2940   6 C     3168   1 H                                       1.0924149
  2939   6 C     3169   1 H                                       1.0919922
  2939   6 C     3170   1 H                                       1.0923839
  2938   6 C     3171   1 H                                       1.0932244
  2938   6 C     3172   1 H                                       1.0925504
  2937   6 C     3173   1 H                                       1.0928848
  2937   6 C     3174   1 H                                       1.0921233
  2936   6 C     3175   1 H                                       1.0934558
  2936   6 C     3176   1 H                                       1.0920517
  2935   6 C     3177   1 H                                       1.0923789
  2935   6 C     3178   1 H                                       1.0918702
  2934   6 C     3179   1 H                                       1.0919199
  2934   6 C     3180   1 H                                       1.0918754
  2933   6 C     3181   1 H                                       1.0906384
  2933   6 C     3182   1 H                                       1.0919673
  2932   6 C     3183   1 H                                       1.0922982
  2932   6 C     3184   1 H                                       1.0927238
  2931   6 C     3185   1 H                                       1.0927710
  2931   6 C     3186   1 H                                       1.0936592
  2930   6 C     3187   1 H                                       1.0930494
  2930   6 C     3188   1 H                                       1.0912500
  2929   6 C     3189   1 H                                       1.0919563
  2929   6 C     3190   1 H                                       1.0919103
  2928   6 C     3191   1 H                                       1.0925624
  2928   6 C     3192   1 H                                       1.0917040
  2927   6 C     3193   1 H                                       1.0927029
  2927   6 C     3194   1 H                                       1.0927724
  2926   6 C     3195   1 H                                       1.0924768
  2926   6 C     3196   1 H                                       1.0934591
  2925   6 C     3197   1 H                                       1.0898187
  2925   6 C     3198   1 H                                       1.0925928
  2924   6 C     3199   1 H                                       1.0933480
  2924   6 C     3200   1 H                                       1.0919259
  2923   6 C     3201   1 H                                       1.0931081
  2923   6 C     3202   1 H                                       1.0930746
  2922   6 C     3203   1 H                                       1.0918863
  2922   6 C     3204   1 H                                       1.0933576
  2921   6 C     3205   1 H                                       1.0924304
  2921   6 C     3206   1 H                                       1.0913370
  2920   6 C     3207   1 H                                       1.0912660
  2920   6 C     3208   1 H                                       1.0919272
  2919   6 C     3209   1 H                                       1.0913179
  2919   6 C     3210   1 H                                       1.0934782
  2918   6 C     3211   1 H                                       1.0928401
  2918   6 C     3212   1 H                                       1.0907127
  2917   6 C     3213   1 H                                       1.0925399
  2917   6 C     3214   1 H                                       1.0936470
  2916   6 C     3215   1 H                                       1.0933953
  2916   6 C     3216   1 H                                       1.0928040
  2915   6 C     3217   1 H                                       1.0911621
  2915   6 C     3218   1 H                                       1.0924982
  2914   6 C     3219   1 H                                       1.0936035
  2914   6 C     3220   1 H                                       1.0927836
  2913   6 C     3221   1 H                                       1.0915111
  2913   6 C     3222   1 H                                       1.0923725
  2912   6 C     3223   1 H                                       1.0941875
  2912   6 C     3224   1 H                                       1.0917949
  2911   6 C     3225   1 H                                       1.0912662
  2911   6 C     3226   1 H                                       1.0922972
  2910   6 C     3227   1 H                                       1.0936527
  2910   6 C     3228   1 H                                       1.0909960
  2909   6 C     3229   1 H                                       1.0914903
  2909   6 C     3230   1 H                                       1.0926908
  2908   6 C     3231   1 H                                       1.0931415
  2908   6 C     3232   1 H                                       1.0919127
  2907   6 C     3233   1 H                                       1.0915653
  2907   6 C     3234   1 H                                       1.0924957
  2906   6 C     3235   1 H                                       1.0930262
  2906   6 C     3236   1 H                                       1.0924983
  2905   6 C     3237   1 H                                       1.0918314
  2905   6 C     3238   1 H                                       1.0920796
  2904   6 C     3239   1 H                                       1.0931713
  2904   6 C     3240   1 H                                       1.0925393
  2903   6 C     3241   1 H                                       1.0915960
  2903   6 C     3242   1 H                                       1.0922634
  2902   6 C     3243   1 H                                       1.0930886
  2902   6 C     3244   1 H                                       1.0909929
  2901   6 C     3245   1 H                                       1.0919968
  2901   6 C     3246   1 H                                       1.0931238
  2900   6 C     3247   1 H                                       1.0928170
  2900   6 C     3248   1 H                                       1.0930051
  2899   6 C     3249   1 H                                       1.0917366
  2899   6 C     3250   1 H                                       1.0925487
  2898   6 C     3251   1 H                                       1.0924875
  2898   6 C     3252   1 H                                       1.0929214
  2897   6 C     3253   1 H                                       1.0878782
  2897   6 C     3254   1 H                                       1.0880034
  2897   6 C     3255   1 H                                       1.0879332
  3016   6 C     3256   1 H                                       1.0876187
  3016   6 C     3257   1 H                                       1.0879705
  3016   6 C     3258   1 H                                       1.0882029

 * 2 distinct bonds (by element types)

   Z      Z             #   av. dist./Å        max./Å        min./Å
   1 H    6 C        2178     1.0922575     1.0944751     1.0857933
   6 C    6 C        1071     1.5276065     1.5347812     1.5227333


optimized geometry written to: xtbopt.xyz


           -------------------------------------------------
          | TOTAL ENERGY            -3427.461913256800 Eh   |
          | GRADIENT NORM               0.000955606968 Eh/α |
          | HOMO-LUMO GAP              11.559937467475 eV   |
           -------------------------------------------------

------------------------------------------------------------------------
 * finished run on 2024/10/04 at 07:23:32.069     
------------------------------------------------------------------------
 total:
 * wall-time:     0 d,  5 h, 47 min, 51.926 sec
 *  cpu-time:     1 d,  5 h, 43 min, 46.728 sec
 * ratio c/w:     5.128 speedup
 SCF:
 * wall-time:     0 d,  0 h, 14 min, 26.209 sec
 *  cpu-time:     0 d,  1 h, 30 min, 59.580 sec
 * ratio c/w:     6.303 speedup
 ANC optimizer:
 * wall-time:     0 d,  5 h, 32 min, 40.623 sec
 *  cpu-time:     1 d,  4 h, 11 min, 46.644 sec
 * ratio c/w:     5.085 speedup

