3258
 energy: -3427.526146461830 gnorm: 0.000803740232 xtb: 6.6.1 (8d0f1dd)
C          122.96283636021528      120.31176950690246      117.78686199168925
C          121.91882054210978      120.60068918049309      116.71479322652964
C          120.68257241466542      121.27632657686948      117.30374698381924
C          119.70371630202933      121.78897951666241      116.24668990248337
C          119.11732003437035      120.71449351875015      115.33066779879509
C          118.29925329242884      119.65738610677843      116.06768071981564
C          117.57312878915194      118.72715829937152      115.09939603695152
C          116.71561685654568      117.70110685063840      115.83412863364693
C          115.90488411429722      116.81034733388610      114.89321018358612
C          114.80131202116930      116.06592565451291      115.64002540623076
C          113.94336740702872      115.19175397465909      114.72756688067811
C          112.75949683916721      114.59861425435189      115.48690967565254
C          111.91250028066780      113.64160103745490      114.65170351047192
C          110.68796261333640      113.17287593019918      115.43298916549846
C          109.84797848065878      112.12788236011544      114.70138870882509
C          108.53075844580098      111.88421674254994      115.43365830361203
C          107.70141210922830      110.73405684011821      114.86314073318474
C          106.33363131738929      110.64940233238082      115.55971506605965
C          105.96153774789168      109.25873251222114      116.07744718312966
C          105.55920051860409      108.28815297928735      114.97109736459107
C          104.86639611951196      107.01924040493284      115.47296545289103
C          105.79091179800375      106.08288145607018      116.24596424001638
C          105.07396888481067      104.86789125334407      116.83707842254582
C          104.60065301439120      103.85372839624303      115.79764663790336
C          103.89594603665263      102.67267664666345      116.46255420770520
C          103.25890756003392      101.69541827942217      115.47319267481956
C          104.24256530528460      100.96828788907828      114.55625595325122
C          105.27167844925613      100.12672537876774      115.30670713148348
C          106.23704715584913       99.43733735524904      114.34626047242057
C          107.41831084033598       98.75687297557759      115.03863808829453
C          108.32128310971038       99.73850559309572      115.78443599575800
C          109.65797998740972       99.13410533899790      116.21731221807812
C          110.65270231945520       98.88008239427603      115.08265234488979
C          111.05178758034431      100.11374771193161      114.27268040730185
C          111.77465343520149      101.17784705311780      115.09346566583348
C          112.23985827193152      102.34106740690243      114.22132796137248
C          113.00501951271345      103.39704262913268      115.01379526982224
C          113.61742228520097      104.46869602721620      114.11415275904973
C          114.57060196575048      105.38550103892973      114.87888088858293
C          115.44487521550406      106.22517031147835      113.94981700627518
C          116.56335665652692      106.93335615619520      114.70947881815360
C          117.50096285597475      107.71251005146917      113.79088615171879
C          118.65642749462754      108.33502543107085      114.56915851050191
C          119.61180174886582      109.13116682956513      113.68533001887863
C          120.80549069056407      109.66025779383556      114.47683338328648
C          121.75922636372465      110.47864385697987      113.61174583632575
C          122.91074963841436      111.07540334883657      114.41667243970952
C          123.89416231586958      111.83926834135502      113.53496385396657
C          125.07488475804587      112.39578653896481      114.32571231752706
C          126.03196015552342      113.18852667990758      113.43839637471586
C          127.26920806222394      113.65127353404849      114.20363273419520
C          128.24983067471402      114.45436745654035      113.34706855503411
C          127.76999142783302      115.87284781763259      113.04670920019939
C          128.81662628282888      116.68125095666917      112.28330444376088
C          128.38710966347753      118.13373470065893      112.08906136756005
C          129.40502539230533      118.92880096789403      111.27387417585537
C          129.14089035119096      120.43539303754339      111.27091578220680
C          127.77976034860659      120.80909703734807      110.68894402678687
C          127.63099264056427      122.31686572446209      110.50033796725484
C          126.26373249055490      122.72141289263547      109.94580680994351
C          125.13476216946012      122.63982478623345      110.97015102514185
C          123.80906935819151      123.12316481302661      110.38638253977625
C          122.68990978288329      123.12169771289086      111.42440935544843
C          121.38244598527527      123.67774891393952      110.86671858558122
C          120.28292452240157      123.72937929463731      111.92455965357695
C          118.96691023371356      124.25460826900549      111.35849521403178
C          117.86073862323538      124.30168558885886      112.40877809494964
C          116.53042323963493      124.75559984053777      111.81340705522794
C          115.40437188112311      124.74496720904608      112.84450834699985
C          114.08614705679402      125.30133169131784      112.30355689646176
C          113.42154262523646      124.44036783538955      111.22830987322519
C          112.78092281198745      123.16193212470820      111.76320970491518
C          112.15038075312597      122.34823160751736      110.63560333726002
C          111.38717031812797      121.12679923337835      111.13629814729718
C          110.81596311437819      120.29962931980016      109.98716706779730
C          109.91607217258039      119.17493078355955      110.48837751083676
C          109.30687945197307      118.35803416390182      109.35294747481024
C          108.26374847690272      117.36868334572539      109.86479768037582
C          107.52935684450956      116.65832087646834      108.73309157840870
C          106.45117281330131      115.70926656969883      109.24839400979775
C          105.62523720949278      115.11546523942808      108.11172258779716
C          104.60413626172009      114.09108351470434      108.59826908000242
C          103.79148959890183      113.51259996445145      107.44368562605372
C          102.80945512005435      112.43443732892931      107.89237166557389
C          102.12815638727061      111.77331118169565      106.69703709314138
C          101.14016945926811      110.67114619221822      107.07718453921893
C          101.77410894558146      109.55249187048159      107.90480448255408
C          100.94859000427211      108.26936494227101      107.85341177110587
C          101.40210825991430      107.22210290130107      108.87325193236633
C          100.75890860328148      107.42914862342069      110.24178309122019
C          101.26353015821668      106.43117800286296      111.28099554449959
C          100.51968876029945      106.56658088792285      112.60709344229579
C          101.12669376758227      105.71412417307830      113.71792383782729
C          100.32883399964894      105.82140583740093      115.01474821756607
C          100.96222091646051      105.03213311466912      116.15568265382080
C          100.09360159244915      105.03124159663045      117.41106603782804
C          100.68573740284049      104.15867952788371      118.51421163298770
C           99.86704046061938      104.15996373250974      119.80573898349562
C           98.43964273336621      103.62616175567710      119.66790531467277
C           98.37599807429237      102.18157213252206      119.17734890108447
C           96.95225997703420      101.62902766783839      119.19471794275940
C           96.91171275329803      100.18133485105334      118.71076189818884
C           95.51726623682333       99.55304389925793      118.74003350096282
C           94.52871512476474      100.13319364401596      117.72632770262233
C           94.89271848073028       99.82597620215003      116.27546141508056
C           93.87042784441059      100.40284780994020      115.29867008368538
C           94.32446516937682      100.27132135397568      113.84700693558553
C           93.32886329380382      100.90411654898280      112.87544194438459
C           93.91981059385482      101.17424128782712      111.49208390791114
C           94.35515547592638       99.91959549056737      110.73969240581857
C           94.87895377444987      100.26961841419642      109.34947214486151
C           95.30232968808073       99.04278747506325      108.54509290470553
C           95.93100263719181       99.44994212352159      107.21565138066134
C           96.36201806669746       98.26134835925521      106.36088995903422
C           97.09145929032248       98.71812925256074      105.09981196429568
C           97.49886291764120       97.55793657571667      104.19651303293220
C           98.34300395609742       98.03027614350266      103.01548900396207
C           98.73462590160354       96.88509407274491      102.08660993227770
C           99.66685460977364       97.34324299747725      100.96830649910952
C          100.03403544776214       96.20039583092959      100.03130256870631
H           99.18566773958307       98.13944130173897      100.39785777879061
H          100.57841627038952       97.75643704461024      101.40691370840906
H           99.22900651629561       96.10252580267135      102.66712989275278
H           97.83235347854935       96.44847204601656      101.64996917870732
H           97.78630998394631       98.77982165882156      102.44838217921527
H           99.24895296486974       98.51100322868498      103.39407721199069
H           98.06885541930453       96.82910318303053      104.77773750799879
H           96.60269662999856       97.05325576304871      103.82650453089191
H           96.44700709370629       99.39813553390188      104.53681287528445
H           97.98550459612301       99.27552396711130      105.39035921528242
H           97.02139724080644       97.61459110763174      106.94466610875855
H           95.48456083129683       97.67135395446539      106.08442741239124
H           95.21449254508457      100.05468951549710      106.65331021754272
H           96.80397605357025      100.07630348743577      107.41636866843601
H           96.02082342823417       98.45802787555999      109.12360018213869
H           94.43264702356988       98.40718539849571      108.36105177343532
H           94.10671985161359      100.81224320031605      108.79727791579178
H           95.73525927821511      100.94112342382373      109.45519197205273
H           95.14269135223918       99.40864767371438      111.29646293245466
H           93.50722632030289       99.23552649793244      110.65045704151875
H           93.17149947303928      101.69780295795728      110.89010361894474
H           94.78126741176686      101.83926234159256      111.59520375605514
H           92.45039309065740      100.26115986724668      112.77955708517159
H           92.98861325054226      101.85611570141070      113.29361317535985
H           95.29386691594758      100.76253431507554      113.73775693436868
H           94.45840528123847       99.21518022089009      113.60511344555785
H           92.90907153727888       99.89972381767450      115.43163278602110
H           93.72024144406895      101.46129817005341      115.52654648162300
H           95.87061449872486      100.25186259954860      116.04532427624567
H           94.96342201031084       98.74423840030788      116.13825689470221
H           93.53818513040829       99.71887492073880      117.93423550954155
H           94.45960676205350      101.21468832588090      117.86061094782234
H           95.61406382420552       98.47978753096884      118.55380962919101
H           95.10050743751640       99.67398685553590      119.74375472719726
H           97.31640234706998      100.12915052142439      117.69972402325743
H           97.56730277304789       99.58551964793662      119.35162486186135
H           96.55054389546785      101.68240196185978      120.21039541459649
H           96.32377405297245      102.25468049613484      118.55824779010435
H           98.75800112293057      102.12239821961562      118.15681351096164
H           99.01374700075672      101.55803372519779      119.80948070863120
H           97.95898007133724      103.68712356674362      120.64868387327218
H           97.86857977928878      104.26544300058856      118.99181840677709
H          100.39470137103314      103.55610405771750      120.54965059309912
H           99.81756373854877      105.18259073824917      120.18985995004255
H          100.78829767996505      103.13478916923695      118.14803943088887
H          101.69163106615233      104.51940897981412      118.75037208436267
H           99.97705591697760      106.05345087888786      117.78121979376105
H           99.10058075881285      104.66185747325147      117.14973607692008
H          101.11807145477923      104.00047542441845      115.83129034454166
H          101.94168209312075      105.45545091698700      116.38838398152107
H          100.25055091446150      106.87211838245145      115.30325535237823
H           99.31475211090758      105.45316644582107      114.84352292667681
H          101.16158572177501      104.66880962431209      113.39934631109382
H          102.15398897593326      106.04048793273742      113.89792904634692
H          100.53061312572348      107.61381425066230      112.92075069327021
H           99.47380500519562      106.28043582693475      112.46116062743994
H          101.13887354761710      105.41381945217620      110.90132232308780
H          102.33173212316973      106.59206483625908      111.44315329115751
H          100.96340935829852      108.44383919282325      110.59078893468261
H           99.67360543742862      107.32938507330931      110.14420786664711
H          101.14137858581600      106.22625293817653      108.51211034791294
H          102.48929362117865      107.25235592371760      108.97193082324328
H           99.89835443153586      108.50783588618354      108.03363773699829
H          101.02092451956399      107.85559980448382      106.84550381039446
H          102.77663382214298      109.34428283011161      107.52190575203706
H          101.87456344800448      109.87776732495483      108.94080623893296
H          100.30289570375891      111.10153788877992      107.63251783072073
H          100.73488503065366      110.24407352762152      106.15516579882900
H          101.59906493749521      112.53894127457288      106.12158738526283
H          102.89598326216861      111.34837553237007      106.04528061431414
H          103.35284698057056      111.67982929897933      108.46388498270890
H          102.05559579983998      112.87242794602645      108.55114831533550
H          103.24230949631131      114.31624933059383      106.94588881968687
H          104.47572121415706      113.08426967926175      106.70588248685429
H          105.12475097113588      113.28088988201543      109.11486115200492
H          103.93096300632995      114.55968402271873      109.31995084437587
H          105.10443902482078      115.92284532774021      107.58779589424707
H          106.29585289392315      114.64035060438793      107.39028401133089
H          106.91811492966940      114.90420200894619      109.82003508673975
H          105.78856220313136      116.25174017281084      109.92783978892443
H          107.06615939478269      117.40728314682246      108.08479599808720
H          108.24580520558753      116.10216904601462      108.12251205933352
H          108.74542147123482      116.63073618582999      110.50951511162947
H          107.53238104377768      117.90997141930309      110.47229804252729
H          108.83866459895178      119.03626361362039      108.63424769815659
H          110.09595719146667      117.82113359023978      108.82036419928636
H          110.48675057023247      118.51442308618863      111.14454864067858
H          109.10778274360285      119.61440553696670      111.08088694603352
H          110.23960528161439      120.95178963632824      109.32547124082475
H          111.63539607771720      119.88084264730099      109.39773617861179
H          112.05321829605349      120.49970023936790      111.73298759764594
H          110.57014772568587      121.45732658721187      111.78454511955623
H          111.46469888156243      122.98943030718794      110.07417134225972
H          112.93484290616253      122.02333345350721      109.94931466602654
H          113.53283464916908      122.55133175587255      112.26601092645484
H          112.01297509696374      123.42406269299109      112.49672144592024
H          112.64324532179668      125.03688512082641      110.74606454595596
H          114.15442074154798      124.18113522829667      110.46269682891878
H          113.38704803140955      125.42566748654217      113.13488894026331
H          114.27756607375197      126.29396163123394      111.88637754610369
H          115.25637869276208      123.72690519495559      113.20726733220444
H          115.70859599167537      125.35245480465694      113.70164080258101
H          116.64171815939665      125.76499439663257      111.40907179653874
H          116.27639256452912      124.09220792709726      110.98520625471053
H          117.74017249332721      123.30759178518304      112.84638505308378
H          118.15208548706116      124.97942039229700      113.21557125474985
H          119.12143724547892      125.25609291025019      110.94942948389372
H          118.64986629731553      123.60932153926473      110.53576635906738
H          120.12587447791347      122.72760758926457      112.33179265062981
H          120.60489853179310      124.37160269736603      112.74865918814422
H          121.55541288353153      124.68387994750668      110.47666514843478
H          121.05236063024545      123.05629208823326      110.03022825547268
H          122.52636099558562      122.10166750018580      111.78125368621579
H          122.99702146860344      123.72401608222025      112.28358691045447
H          123.93559484116848      124.13675141734910      109.99699476303600
H          123.52798395554422      122.48279026608384      109.54685404687120
H          125.01572075427090      121.61265171376064      111.31695443998356
H          125.39127020465760      123.25457122309125      111.83716442096089
H          126.32291765732228      123.75124283559829      109.58347131052497
H          126.02242197971506      122.08678605434879      109.09093305107700
H          127.79827884164327      122.82173317978349      111.45542371071316
H          128.40714116361545      122.66052892735014      109.81069021648086
H          127.65415845291429      120.31420074761228      109.72349422105727
H          126.99652817185134      120.45162931758694      111.35657109304221
H          129.21248645849278      120.81726827368675      112.29285154214452
H          129.92473112239603      120.92369954687555      110.68488287984356
H          130.40320166476832      118.75350170544306      111.68496421069155
H          129.40421129867616      118.56210484730434      110.24545729922241
H          127.42048400803314      118.15185411633786      111.58434902259332
H          128.26171839133858      118.60297909441680      113.06841636506859
H          129.76238889874037      116.65516333873838      112.83151088875904
H          128.98983461755753      116.21993158507111      111.30854538161343
H          126.84991192542670      115.83790371670095      112.46034446150001
H          127.54388398040274      116.38015758695981      113.98848309259677
H          129.20513045605449      114.51814950088968      113.87526363778339
H          128.42889803668010      113.92412036239840      112.40856697635382
H          126.96243970627140      114.25687794410830      115.06058617040955
H          127.78354714620565      112.76949270560746      114.59557000476784
H          126.34691937974894      112.56331025397928      112.59875092155973
H          125.50483846507422      114.05278718102602      113.02892062490287
H          124.70685794070168      113.04176080915722      115.12749295468866
H          125.61771344831752      111.57060856613592      114.79526837745050
H          124.27117873173219      111.16894495871104      112.75824591047892
H          123.37621147259109      112.66267631254202      113.03927607424755
H          122.51131158751676      111.74620436781309      115.18260170876789
H          123.44426947556803      110.27482455435909      114.93160483011131
H          122.16801473717834      109.84307324651219      112.82388058108954
H          121.19956489019525      111.28464039261463      113.12996596194574
H          120.44665183708338      110.27984459798873      115.30172216483949
H          121.34788741203492      108.81536045062261      114.91109342817516
H          119.97234186033509      108.49230475355311      112.87651484241269
H          119.07696829573787      109.96974126575309      113.23186819968848
H          118.25237011793907      108.98935634402517      115.34586732053002
H          119.21620253626315      107.53984952360153      115.06710153638001
H          117.90297071032936      107.03987470264957      113.02919492678220
H          116.94022342410324      108.49372985719273      113.27219221285260
H          116.13427094510782      107.61254582909072      115.44954932868598
H          117.14403390794826      106.18419641276357      115.25552767346734
H          115.89295929966481      105.56593608608652      113.20094723664361
H          114.83221894050239      106.95823980350700      113.41932542186559
H          114.00370461609674      106.03803184334177      115.54714275273064
H          115.22571277540273      104.77059444434560      115.50162810613148
H          114.17285710237796      103.97607786415706      113.31113857876406
H          112.82523007384549      105.06001915966439      113.64923301761067
H          112.34472782855877      103.86243646023073      115.74843306866906
H          113.80849119713595      102.90079410244398      115.56542854669837
H          112.88732531615385      101.95263254483437      113.43139908046682
H          111.37318376510662      102.79883779026974      113.73692191448724
H          111.11332873764545      101.55701288743219      115.87456333528068
H          112.63986747407907      100.72525629133892      115.58534931232255
H          111.71661541777024       99.78823310037428      113.46696414463072
H          110.17085019495590      100.55258802204492      113.80070086340426
H          111.55823711527323       98.44646007408697      115.51670978087489
H          110.23968559552574       98.13711108709545      114.39732014310410
H          110.12216311045256       99.79972720385948      116.94827305660448
H          109.46743035592918       98.18583887261701      116.72748750234567
H          108.50032058699320      100.61588513175639      115.16093881724132
H          107.80204526588797      100.08237745557724      116.68149040263094
H          107.04797226114418       98.00377241848501      115.73918818329821
H          108.00198745173573       98.23478807288774      114.27777839767336
H          105.69209525700295       98.69341663802673      113.75778531712558
H          106.62213409881143      100.18468339047284      113.64764239835421
H          105.84028145254754      100.77583694819360      115.97129891384128
H          104.76395143357443       99.37781329770887      115.92065838149965
H          103.67213016798924      100.32075721031836      113.88394041561223
H          104.76670652123136      101.69843032256621      113.93629313153829
H          102.68989768018548      100.95280113925816      116.03834877470639
H          102.54874960878861      102.24387033996369      114.84814022447959
H          104.59832565144539      102.14207610693866      117.10842517320246
H          103.10452799991317      103.06088400155430      117.10790173276612
H          103.90848183724994      104.32936355128882      115.10101403047216
H          105.46100569856080      103.50121605931891      115.22528123680404
H          105.75638175312876      104.36121658368748      117.52641608863544
H          104.21683737101964      105.20972738193632      117.42326389438057
H          106.58829015527229      105.74311560855054      115.58327849991799
H          106.25673693699011      106.63592718443715      117.06550188132415
H          104.02055208418690      107.29746662832213      116.10747087226783
H          104.46616770342746      106.48728473522432      114.60715649089492
H          104.86727201246833      108.80415960831736      114.30049791697110
H          106.44209770686577      108.01167325196673      114.39127053163560
H          106.80301172224415      108.85461151981295      116.64398955076231
H          105.12073449966515      109.36403233142201      116.76919640164483
H          106.34490896024664      111.33099984904138      116.41262102552571
H          105.54854560291118      110.99825016827684      114.88445127369349
H          107.57480448506477      110.87612178517199      113.78806347867675
H          108.24946911147738      109.79982267406446      115.00504676411919
H          108.74231707473855      111.67206020653090      116.48535595048898
H          107.93758639994124      112.80222707192108      115.39720468049300
H          109.64238216099797      112.46789749929820      113.68421241894714
H          110.40896790598120      111.19228588028516      114.63447363625120
H          111.01391114528677      112.75489136376133      116.39025799180948
H          110.06163701320840      114.04250524181792      115.64967098979521
H          111.58909762902974      114.14134568790479      113.73679913962286
H          112.51586492677939      112.77802711815538      114.36025696991696
H          113.12739137522017      114.07024732862749      116.37025097490330
H          112.12553676976513      115.41638001169656      115.83793537881608
H          113.57107160796225      115.79380951651258      113.89629662274187
H          114.55577984780332      114.39061318746165      114.30549072888815
H          115.24617202640593      115.44824674569104      116.42447271094511
H          114.15616578218771      116.80132676231034      116.12750143472354
H          115.44653704267989      117.42950595584963      114.11857912962630
H          116.56514479072101      116.09524682211158      114.39591327192831
H          117.35563055027912      117.07937695874908      116.46430643405934
H          116.02893455417355      118.23721833986140      116.49233965062650
H          116.93431251649149      119.32683489460966      114.44701842078811
H          118.30570426319642      118.22188884919137      114.46521949435581
H          118.94975621059811      119.06375900906960      116.71253062577192
H          117.56282966912318      120.15387567465790      116.70533414985026
H          118.46710087638937      121.21494310738682      114.60705035819136
H          119.91726646833459      120.23041605877722      114.76754752556886
H          118.88209469870378      122.30055207617553      116.75573365501522
H          120.21592985112434      122.52971938446569      115.62634152003356
H          120.17350216805889      120.57974911545551      117.97285621431234
H          121.00447189284255      122.12848795381416      117.90915325127871
H          122.35528402394173      121.24837378372634      115.95071449778430
H          121.63133150734274      119.66397378066817      116.23431409687240
H          123.30237049261309      121.23625818038600      118.24972138937676
H          122.54427423748601      119.67775253894708      118.56647747963584
H          123.82580914334152      119.80676267510778      117.35826144044265
H          100.71618564446331       96.54268176410349       99.25647988912738
H          100.51900038099747       95.39749244186251      100.58190145925678
H           99.14396477972832       95.79597950195897       99.55266198265826
C          106.85508077978623      122.00208021262632      120.22397918376613
C          108.27152350291752      121.68281523792697      119.76004536972194
C          108.33717367333658      120.32288917342268      119.07037311387127
C          109.71837253627133      119.97687137654435      118.51654178419500
C          110.74603356573226      119.62490618400230      119.58998391985710
C          112.08865226503798      119.25262856302380      118.96695042366997
C          113.10030128185475      118.73225398545003      119.98396938981776
C          114.44908080296742      118.44406560552426      119.32964779411040
C          115.48142773526352      117.89271830929957      120.30903556165882
C          116.84980573384517      117.74009760601484      119.64971019191896
C          117.92172131928302      117.24325030739294      120.61592852459600
C          119.31064802731191      117.27114846176322      119.98113473480453
C          120.42083891196344      116.85124501321953      120.94558390047274
C          120.49457956170548      115.34205680358140      121.16676339625590
C          121.56435961453874      114.97322963097376      122.19289406852586
C          121.84426242299125      113.47265508795705      122.23256282529719
C          122.88788709208141      113.11993467446918      123.29147022347155
C          123.37671406994859      111.67098930702471      123.21231749322929
C          124.23653954733894      111.36646701015465      121.98350799164474
C          125.61349542999069      112.02599116834286      122.02596348906650
C          126.40465978322028      111.87764621806231      120.72290856239330