3258
 energy: -3427.523485777760 gnorm: 0.000925286276 xtb: 6.6.1 (8d0f1dd)
C          122.96151572932864      120.31019692884732      117.78668529726927
C          121.91827431524534      120.59903472894990      116.71383245843386
C          120.68234715709058      121.27530615830976      117.30298464645645
C          119.70384589554038      121.78861657381384      116.24606853066425
C          119.11800821054341      120.71427953422854      115.32938089264674
C          118.29983985810642      119.65764717506335      116.06748979126641
C          117.57358219777691      118.72739067473597      115.09897751327968
C          116.71604979987964      117.70136224989255      115.83433954721143
C          115.90530519920326      116.81053148944477      114.89294971871144
C          114.80165833924045      116.06626998260869      115.64054566796179
C          113.94369328123311      115.19184224734798      114.72772929256442
C          112.75941597625446      114.59912198638507      115.48757933155368
C          111.91268421349875      113.64177245424560      114.65169463555131
C          110.68766820025957      113.17360750275893      115.43333393455384
C          109.84818453780194      112.12782748430685      114.70146093435530
C          108.53048627261290      111.88492704288394      115.43394089804016
C          107.70211852121294      110.73335336343888      114.86390027877171
C          106.33377825351035      110.64936907686418      115.56016353708239
C          105.96148492859729      109.25841437190698      116.07772877583065
C          105.55947148229923      108.28812132395836      114.97052424134397
C          104.86627868807972      107.01909741230003      115.47267870018115
C          105.79117872075254      106.08276594394263      116.24592319570378
C          105.07340606408827      104.86784830262660      116.83687552978978
C          104.60035376020492      103.85364654952910      115.79690598273538
C          103.89586581776895      102.67259380791769      116.46284730078025
C          103.25859209448163      101.69546937321016      115.47323363225192
C          104.24248481502005      100.96816827248172      114.55628213571418
C          105.27190170682209      100.12702662484058      115.30733690646400
C          106.23698101903724       99.43786461790690      114.34589344891917
C          107.41834813397442       98.75730877176974      115.03846211324949
C          108.32110742854546       99.73966270271910      115.78414176458392
C          109.65794077049799       99.13483210463178      116.21712075167510
C          110.65286762574111       98.88058995984539      115.08252643674298
C          111.05202035401533      100.11431363333011      114.27228144219188
C          111.77518410797791      101.17788606189268      115.09398689687775
C          112.24038061057625      102.34097055685007      114.22116048698577
C          113.00534014181619      103.39699878477329      115.01441359386683
C          113.61781991923868      104.46885931917272      114.11449150951778
C          114.57120907283904      105.38553789292968      114.87988672925479
C          115.44501451314434      106.22552480269898      113.95008494040066
C          116.56361718685382      106.93371735371035      114.71027698184217
C          117.50074514117145      107.71345096313856      113.79108516548268
C          118.65676630447727      108.33533936857440      114.56975040336992
C          119.61143895980646      109.13261388429585      113.68554346807467
C          120.80587845685106      109.66052334798825      114.47733430310723
C          121.75882384475790      110.48029710111790      113.61208114206740
C          122.91129653690260      111.07552228875886      114.41748468259726
C          123.89429077557035      111.84054679855429      113.53578732234766
C          125.07543930953437      112.39631914165997      114.32695547271570
C          126.03121934825954      113.18993330365410      113.43869227887831
C          127.26875753734572      113.65232065896487      114.20390116364703
C          128.24887040340323      114.45477870820825      113.34633621228438
C          127.76898612001074      115.87338954520592      113.04627413538020
C          128.81618019481846      116.68135227051978      112.28293264564142
C          128.38647275586402      118.13388443065745      112.08876357072809
C          129.40457527207536      118.92860637400543      111.27330498551211
C          129.14063854198824      120.43513427921286      111.27052512097205
C          127.77910762905016      120.80880270383693      110.68916536989070
C          127.63083374239604      122.31666349414125      110.50031764241936
C          126.26374944762870      122.72146648726456      109.94547746555594
C          125.13482034922762      122.63992990539704      110.97011408499600
C          123.80911278212943      123.12301629235435      110.38581479673172
C          122.69010361358403      123.12154614795796      111.42423292935712
C          121.38256188571532      123.67743226457391      110.86617492076631
C          120.28323466888004      123.72851161175831      111.92453165816045
C          118.96718661748875      124.25392730431830      111.35822237190848
C          117.86103033065498      124.30082039203386      112.40879152489813
C          116.53078123477326      124.75498239488300      111.81292403531609
C          115.40468174950853      124.74400895720156      112.84430907623195
C          114.08654275289241      125.30089573773428      112.30356974958164
C          113.42157147257412      124.44067893666978      111.22783319782069
C          112.78073331630371      123.16221524447481      111.76316961271945
C          112.15000000681539      122.34883022408532      110.63513955119261
C          111.38658376148021      121.12735613419511      111.13638511370981
C          110.81563185008528      120.30014837076335      109.98675007786859
C          109.91563336226561      119.17534296871679      110.48859464544900
C          109.30664729165295      118.35840709441470      109.35258475122514
C          108.26334082059491      117.36892720536474      109.86502256601231
C          107.52901787958466      116.65878107670586      108.73259084266785
C          106.45065956130641      115.70951572718894      109.24833833651974
C          105.62483261458136      115.11596628553869      108.11089903498511
C          104.60378725209998      114.09122650064515      108.59805488080688
C          103.79127695422004      113.51252605746018      107.44299952163503
C          102.80915885899070      112.43433252733695      107.89276779329138
C          102.12780361575075      111.77335081148954      106.69695737236525
C          101.13917852848245      110.67171246240312      107.07771071563691
C          101.77378550733202      109.55298611866576      107.90531568373160
C          100.94758401110376      108.26996107063007      107.85342418780702
C          101.40150416173678      107.22230315404573      108.87311531184656
C          100.75790388201118      107.42971178263780      110.24180089817348
C          101.26303476431180      106.43139467527750      111.28097562233646
C          100.51891826135810      106.56723972080754      112.60726058660622
C          101.12657081969027      105.71445368409134      113.71793511360993
C          100.32808804964064      105.82152342078231      115.01482855474148
C          100.96208621015241      105.03214617745766      116.15584662988206
C          100.09310907078056      105.03124346272372      117.41138458153128
C          100.68575730266438      104.15847008728406      118.51450304084504
C           99.86653821040878      104.15988130447667      119.80599480998772
C           98.43915319458446      103.62619637056446      119.66719568852564
C           98.37617635807581      102.18134640453451      119.17677578984538
C           96.95225588409519      101.62890191186493      119.19431936626978
C           96.91247580089569      100.18109305922506      118.71027049972909
C           95.51797528169054       99.55293213271153      118.73939805024976
C           94.52932445784572      100.13324151126091      117.72615842685258
C           94.89325103837675       99.82571211617763      116.27526505064711
C           93.87061525545865      100.40298184440883      115.29892923060602
C           94.32474097974439      100.27091999535074      113.84720646150404
C           93.32899161642011      100.90386515543712      112.87568796868702
C           93.92000603231594      101.17436172216513      111.49232168299969
C           94.35519336194727       99.91929905602690      110.74009137634725
C           94.87916990694112      100.26959601247233      109.34978905933568
C           95.30226397442871       99.04228815344257      108.54557199251030
C           95.93087903118585       99.44960690923538      107.21590745828027
C           96.36177763419622       98.26046204216020      106.36148790144387
C           97.09145719817694       98.71763448242713      105.10041005961601
C           97.49865945970920       97.55714177738487      104.19700300430881
C           98.34294156321117       98.03000794044998      103.01598271654068
C           98.73482331348031       96.88471205777185      102.08700007789852
C           99.66688666977022       97.34376451984332      100.96864348359813
C          100.03412006002162       96.20082408823073      100.03166401576003
H           99.18511659892430       98.13984687692746      100.39865850835083
H          100.57824978400831       97.75807525193576      101.40699086560278
H           99.22948145863177       96.10269254094774      102.66739305396509
H           97.83281889493696       96.44919892219104      101.65019793355451
H           97.78597027549289       98.77930430076225      102.44909711606073
H           99.24869051140423       98.51160412886743      103.39443770601623
H           98.06839511237752       96.82833252141592      104.77798772946583
H           96.60232652352539       97.05435276974303      103.82668355665935
H           96.44659096612098       99.39714112042572      104.53771472791594
H           97.98530909974686       99.27588588304970      105.39068053502167
H           97.02039909117035       97.61328970871810      106.94536956645796
H           95.48411387003122       97.67230694328816      106.08420999660110
H           95.21411846847580      100.05350814958578      106.65366125681994
H           96.80367871728545      100.07677429107184      107.41615298596945
H           96.02066084848492       98.45740217810759      109.12396439286637
H           94.43258520549659       98.40790430180516      108.36099336440613
H           94.10726877719817      100.81215119885617      108.79778169690502
H           95.73565989694536      100.94124095894165      109.45537460328858
H           95.14268523564519       99.40830942135683      111.29685052963171
H           93.50720179356587       99.23641824579590      110.65026601406606
H           93.17195064117867      101.69742560524089      110.89018104190811
H           94.78171672424760      101.83951493260054      111.59502194320991
H           92.45195939831564      100.26017883943985      112.77907682967997
H           92.98853293269204      101.85561465403752      113.29366757701949
H           95.29483371052872      100.76119437751609      113.73729403246831
H           94.45788630266664       99.21486426330107      113.60557243530521
H           92.91040707234809       99.89901569201305      115.43124506490078
H           93.72018524735836      101.46128117148055      115.52655287021794
H           95.87170084116912      100.25055165609682      116.04439001580333
H           94.96288944884290       98.74419598652003      116.13788798571402
H           93.53964018788380       99.71794375433066      117.93323115813912
H           94.45984642427268      101.21456500216564      117.86039232982409
H           95.61524787639401       98.48008932457384      118.55277628743136
H           95.10195147317819       99.67448773502224      119.74279918981946
H           97.31816105686595      100.12884546118495      117.69944462051907
H           97.56780722515813       99.58613080854872      119.35170138469971
H           96.55206115264525      101.68153779280630      120.20989590502603
H           96.32379041879190      102.25482459956577      118.55830009747775
H           98.75894599683446      102.12159238216157      118.15631813844414
H           99.01371143764766      101.55872298798775      119.80943944676874
H           97.95953603528611      103.68626222673966      120.64776843239542
H           97.86825694409559      104.26570070908781      118.99140107694660
H          100.39470995890278      103.55526964225191      120.54824420515969
H           99.81813163200411      105.18232862707315      120.18980791634341
H          100.78773420515031      103.13514614126512      118.14710941919455
H          101.69167723354744      104.51932992105718      118.74948567969516
H           99.97680770933022      106.05340628401962      117.78058899849438
H           99.10090571807942      104.66130447192955      117.14930687460959
H          101.11806674999217      104.00093503102185      115.83072083947241
H          101.94138136103602      105.45602337006737      116.38765697381173
H          100.24996530541469      106.87205862906393      115.30293331868495
H           99.31479250749052      105.45261574357100      114.84296365539345
H          101.16165718341432      104.66963877983893      113.39877314067846
H          102.15356413430671      106.04145848059287      113.89774526607349
H          100.53035807375139      107.61423449758935      112.92059327677968
H           99.47379897046736      106.28053507123374      112.46106551303501
H          101.13813323471305      105.41428593990169      110.90152562947469
H          102.33113343244939      106.59231056640483      111.44285677143583
H          100.96276013828286      108.44415498346680      110.59036586262519
H           99.67318674257875      107.32932250857122      110.14377814739871
H          101.14056503271017      106.22670020172764      108.51210111216905
H          102.48864011667085      107.25246202444708      108.97133461007225
H           99.89799278721547      108.50860362072579      108.03453973952692
H          101.02050293038567      107.85623786708845      106.84590564065506
H          102.77601705068098      109.34419664252552      107.52242801329454
H          101.87409878772382      109.87760645045340      108.94132888109168
H          100.30314902678045      111.10169707830362      107.63412462499768
H          100.73443776934087      110.24410253144916      106.15631993138125
H          101.59892307295569      112.53917222766052      106.12303472507975
H          102.89546804802590      111.34803388972045      106.04566831943072
H          103.35247701229511      111.68002322026736      108.46466343618351
H          102.05541596481956      112.87285280421827      108.55055046706013
H          103.24177560344206      114.31563246485581      106.94625030345016
H          104.47551196031013      113.08405102617861      106.70567754804256
H          105.12430248291047      113.28130268490921      109.11499344792180
H          103.93054798097697      114.56007539461079      109.31890084486064
H          105.10366014990574      115.92300656951822      107.58837020615034
H          106.29547624779056      114.64093879987016      107.38982054600427
H          106.91739092546580      114.90448174781264      109.82004487317943
H          105.78812190613269      116.25215616642281      109.92694965820587
H          107.06540617122801      117.40769245513059      108.08565316129327
H          108.24527061516719      116.10275377718277      108.12214697245857
H          108.74480387232633      116.63095103956636      110.50969433441453
H          107.53205019676338      117.91036555640605      110.47150127623051
H          108.83793508956538      119.03639463021845      108.63486007651734
H          110.09541695051847      117.82144674407897      108.82000771844524
H          110.48597881892333      118.51465375300805      111.14475165333927
H          109.10722312304516      119.61492637467229      111.07981305786548
H          110.23870295198583      120.95172624123205      109.32589624102005
H          111.63465864595349      119.88103690350071      109.39717306044001
H          112.05213000413889      120.49982565095772      111.73313103520285
H          110.56918962953995      121.45800290583935      111.78314432194666
H          111.46369529030061      122.98945586247729      110.07488146945578
H          112.93381826586504      122.02340661951074      109.94834458402292
H          113.53225086908368      122.55103203547941      112.26579254090983
H          112.01235867607620      123.42410584331020      112.49548295078580
H          112.64280756528288      125.03643924965569      110.74631123129151
H          114.15387980942012      124.18062807099740      110.46191819429026
H          113.38730242731491      125.42443035789664      113.13431780325391
H          114.27837383142942      126.29254649231990      111.88580484740291
H          115.25696233643050      123.72594809959810      113.20732088546204
H          115.70919384760619      125.35168969015987      113.70037798837475
H          116.64224554460647      125.76433976330470      111.40991085473982
H          116.27688105843232      124.09229494129664      110.98387802736818
H          117.74044038623431      123.30701638445350      112.84711725984123
H          118.15219929235805      124.97912988862721      113.21426166038695
H          119.12185142030599      125.25544100329415      110.95053230241619
H          118.65014873538676      123.60945369654924      110.53462805140444
H          120.12664928275761      122.72679935367962      112.33215600830840
H          120.60496639612234      124.37128815755084      112.74748497903434
H          121.55545221839246      124.68361136705889      110.47739557552707
H          121.05259247245408      123.05658113776569      110.02892101128666
H          122.52675292673179      122.10186641702069      111.78218313451413
H          122.99710786969712      123.72502766365959      112.28193494234634
H          123.93561048824778      124.13657216767592      109.99739799342342
H          123.52794385037153      122.48304434375618      109.54568839099983
H          125.01588575754928      121.61313580039187      111.31802024602378
H          125.39095876124104      123.25584936645430      111.83571165521988
H          126.32264489596352      123.75124640270560      109.58390915484473
H          126.02201286926562      122.08727697323431      109.09015942845109
H          127.79712461340948      122.82092008024100      111.45533061243182
H          128.40676327789106      122.65991370821421      109.81075738965227
H          127.65229114686639      120.31344220190965      109.72395353562061
H          126.99613573715628      120.45199516714091      111.35746037096629
H          129.21177126700530      120.81671824483240      112.29211227224073
H          129.92362793527727      120.92325432217577      110.68385214930404
H          130.40198738407005      118.75328613606409      111.68502735402690
H          129.40397760054555      118.56171511152137      110.24498136496912
H          127.41946687340990      118.15220939065851      111.58448332483435
H          128.26173072175746      118.60301001893058      113.06788963457240
H          129.76087774270701      116.65576183528421      112.83187662070686
H          128.98977865663701      116.21997592076863      111.30836849604017
H          126.84860759766357      115.83894042630992      112.46012602296166
H          127.54358660101366      116.38052912372689      113.98796995587065
H          129.20361365293419      114.51887315862757      113.87432244288476
H          128.42729657286935      113.92417105328667      112.40809603470673
H          126.96163122629368      114.25784562106682      115.06034396718660
H          127.78230447914916      112.77018402686808      114.59482629840669
H          126.34512499955147      112.56476726827641      112.59887229436654
H          125.50294683259720      114.05391495131335      113.03027105647381
H          124.70706566374974      113.04114172899125      115.12893942945527
H          125.61817200700722      111.57052247747461      114.79428676038273
H          124.27011012606980      111.17064962031810      112.75845615073894
H          123.37519341472969      112.66391339349225      113.04146067804314
H          122.51172661572437      111.74473180309226      115.18407151184459
H          123.44414496721782      110.27340889982953      114.92987107031207
H          122.16618018138102      109.84539076929846      112.82320462004243
H          121.19784244295504      111.28628543142483      113.13215660754783
H          120.44714255854007      110.27877875543172      115.30283701207745
H          121.34806789442462      108.81482656172153      114.90914391691193
H          119.97104790164120      108.49428203963500      112.87621564262689
H          119.07621586804781      109.97153508754326      113.23372763581312
H          118.25283953566360      108.98868875444948      115.34682172691544
H          119.21676612571883      107.53960577305422      115.06574161920061
H          117.90224855163507      107.04111494927783      113.02937994726210
H          116.93982971826068      108.49487497901009      113.27344252357261
H          116.13450112982049      107.61241025806235      115.45026094623583
H          117.14439842342742      106.18434553792028      115.25487951223330
H          115.89320835629739      105.56637610174431      113.20168841958615
H          114.83226940636003      106.95842233789385      113.41990766241911
H          114.00465434131672      106.03795162556634      115.54793502894746
H          115.22684435788203      104.77072871374617      115.50143935341519
H          114.17347147977449      103.97665938204850      113.31179830980274
H          112.82606060749227      105.06064347353323      113.64984316158616
H          112.34510522144627      103.86276217431181      115.74834408784764
H          113.80886724126009      102.90097235923962      115.56509847950787
H          112.88853018972979      101.95256286188759      113.43219056549979
H          111.37418935217522      102.79891561027004      113.73635482463713
H          111.11405467258352      101.55746211509701      115.87462724265347
H          112.64057314745760      100.72548411910300      115.58437322450074
H          111.71734179316408       99.78933968063157      113.46728603002450
H          110.17157281548072      100.55403347777289      113.80039810497304
H          111.55828962883021       98.44855782808503      115.51675271602643
H          110.24006970670007       98.13860303336271      114.39672649787026
H          110.12164188933622       99.80054088827023      116.94775540695923
H          109.46672028966172       98.18665981661535      116.72581233854099
H          108.49955692997057      100.61738674920235      115.16082448912888
H          107.80193612105315      100.08283750542920      116.68111564758193
H          107.04762512810132       98.00572405978207      115.73925790142093
H          108.00191051224358       98.23585699258413      114.27765816958973
H          105.69177338237543       98.69433243062292      113.75809723988039
H          106.62135309120019      100.18569905284188      113.64739941678417
H          105.84048219904466      100.77654200240572      115.97128793929271
H          104.76405308017526       99.37835683321941      115.92028079427109
H          103.67151604567043      100.32051133045239      113.88502949932283
H          104.76575877974753      101.69842359081035      113.93577831152133
H          102.69020778496581      100.95323852458269      116.03857118002092
H          102.54912589210062      102.24404159966977      114.84774272639642
H          104.59888245178247      102.14253917818456      117.10757940503355
H          103.10475285168775      103.06132904926184      117.10760095343053
H          103.90832543325453      104.32894546677444      115.10004046750700
H          105.46076020601764      103.50127365002001      115.22504166927030
H          105.75583467286495      104.36139914309258      117.52528811442444
H          104.21641185479783      105.21045790932433      117.42190921342583
H          106.58825586715409      105.74346485813443      115.58298686455689
H          106.25597908216601      106.63619442523974      117.06518811880443
H          104.02111190098658      107.29793843574153      116.10701978334724
H          104.46647894647801      106.48754543206501      114.60678007838754
H          104.86765463509992      108.80423850115888      114.30023170937753
H          106.44253023531149      108.01187359146820      114.39122952074402
H          106.80270110885743      108.85422936715523      116.64376211762634
H          105.12027186358586      109.36377662421270      116.76822434976391
H          106.34556926110267      111.33045314523784      116.41304615811428
H          105.54958122652536      110.99807304588235      114.88441028146623
H          107.57593466544508      110.87415868946344      113.78889000341464
H          108.25014530971370      109.79977189689765      115.00766715632371
H          108.74199727473348      111.67350631564055      116.48525772848234
H          107.93709165314941      112.80210541228146      115.39536451887970
H          109.64296909875537      112.46718766856006      113.68424617675656
H          110.40895329006446      111.19237891200714      114.63591013348309
H          111.01356574158325      112.75573796528263      116.39003183847211
H          110.06129683904763      114.04296984481633      115.64852056797430
H          111.58959185281951      114.14132583287181      113.73687504835550
H          112.51570531792230      112.77808416710167      114.36105038941268
H          113.12689897783127      114.07069360536575      116.37053202092439
H          112.12527174149162      115.41672526528370      115.83727315339367
H          113.57111691120004      115.79369086114096      113.89672460690262
H          114.55550481031155      114.39048822434059      114.30599535320023
H          115.24618604067722      115.44865029929312      116.42464583655460
H          114.15611787355454      116.80160379593987      116.12673814978191
H          115.44624877535216      117.42944976283262      114.11874757034603
H          116.56486279572265      116.09536729450912      114.39536222559958
H          117.35547567373904      117.07910669970967      116.46388252604660
H          116.02877232064934      118.23712909265095      116.49172266395036
H          116.93395754413348      119.32635027638551      114.44692314801014
H          118.30523673497549      118.22149947520475      114.46453533013329
H          118.94980054656702      119.06343741824439      116.71162234828550
H          117.56315297058175      120.15405337135452      116.70415674462060
H          118.46716573465966      121.21386946708296      114.60600062048800
H          119.91748616679631      120.22929924461204      114.76644961422410
H          118.88143460888875      122.29908366137187      116.75426449845351
H          120.21564095180251      122.52866552654071      115.62518383355949
H          120.17287079820883      120.57951582368349      117.97234423383266
H          121.00500924363880      122.12743186777151      117.90702146342923
H          122.35495881572683      121.24671054355035      115.95008362943291
H          121.63064791754370      119.66254030912465      116.23283256169489
H          123.30011653397170      121.23507089383615      118.24885017916696
H          122.54250082777548      119.67653398403783      118.56627209004090
H          123.82481970239844      119.80533641446470      117.35862157914141
H          100.71680519028499       96.54319912064432       99.25736904154816
H          100.51840234936570       95.39802461794011      100.58265883802893
H           99.14384108662554       95.79751587742304       99.55314658079286
C          106.85536921788974      122.00044491912047      120.22474043460183
C          108.27203969461459      121.68245413810894      119.76118533354399
C          108.33724037452063      120.32262319429618      119.07120123399380
C          109.71869375668265      119.97677323159120      118.51708220047264
C          110.74617204323249      119.62473971865433      119.59100910430885
C          112.08903002705033      119.25285688112099      118.96760833078940
C          113.10062302720419      118.73192161450038      119.98477821846016
C          114.44959287703921      118.44403268076506      119.33008060842880
C          115.48177586727847      117.89205494542368      120.30967090865816
C          116.85028529169203      117.73954863320766      119.65010167688385
C          117.92196269497354      117.24223914606188      120.61664981594059
C          119.31093030832182      117.27081399879719      119.98153055633945
C          120.42073651742834      116.85061728905008      120.94638274719310
C          120.49435066412455      115.34118378974792      121.16683682909841
C          121.56395992640364      114.97270863946839      122.19352081997799
C          121.84383844343657      113.47194533003177      122.23230797912289
C          122.88739811540779      113.11888309542977      123.29139041810492
C          123.37586399674609      111.66987509428628      123.21208946473222
C          124.23541849455182      111.36517119441956      121.98289566694945
C          125.61238427350605      112.02495865203726      122.02558157028622
C          126.40346492987692      111.87672767095977      120.72259732696575