      -----------------------------------------------------------      
     |                   =====================                   |     
     |                           x T B                           |     
     |                   =====================                   |     
     |                         S. Grimme                         |     
     |          Mulliken Center for Theoretical Chemistry        |     
     |                    University of Bonn                     |     
      -----------------------------------------------------------      

   * xtb version 6.6.1 (8d0f1dd) compiled by 'stahn@M-Bot' on 2023-08-01

   xtb is free software: you can redistribute it and/or modify it under
   the terms of the GNU Lesser General Public License as published by
   the Free Software Foundation, either version 3 of the License, or
   (at your option) any later version.
   
   xtb is distributed in the hope that it will be useful,
   but WITHOUT ANY WARRANTY; without even the implied warranty of
   MERCHANTABILITY or FITNESS FOR A PARTICULAR PURPOSE.  See the
   GNU Lesser General Public License for more details.
   
   Cite this work as:
   * C. Bannwarth, E. Caldeweyher, S. Ehlert, A. Hansen, P. Pracht,
     J. Seibert, S. Spicher, S. Grimme, WIREs Comput. Mol. Sci., 2020, 11,
     e01493. DOI: 10.1002/wcms.1493
   
   for GFN2-xTB:
   * C. Bannwarth, S. Ehlert and S. Grimme., J. Chem. Theory Comput., 2019,
     15, 1652-1671. DOI: 10.1021/acs.jctc.8b01176
   for GFN1-xTB:
   * S. Grimme, C. Bannwarth, P. Shushkov, J. Chem. Theory Comput., 2017,
     13, 1989-2009. DOI: 10.1021/acs.jctc.7b00118
   for GFN0-xTB:
   * P. Pracht, E. Caldeweyher, S. Ehlert, S. Grimme, ChemRxiv, 2019, preprint.
     DOI: 10.26434/chemrxiv.8326202.v1
   for GFN-FF:
   * S. Spicher and S. Grimme, Angew. Chem. Int. Ed., 2020, 59, 15665-15673.
     DOI: 10.1002/anie.202004239
   
   for ALPB and GBSA implicit solvation:
   * S. Ehlert, M. Stahn, S. Spicher, S. Grimme, J. Chem. Theory Comput.,
     2021, 17, 4250-4261. DOI: 10.1021/acs.jctc.1c00471
   
   for DFT-D4:
   * E. Caldeweyher, C. Bannwarth and S. Grimme, J. Chem. Phys., 2017,
     147, 034112. DOI: 10.1063/1.4993215
   * E. Caldeweyher, S. Ehlert, A. Hansen, H. Neugebauer, S. Spicher,
     C. Bannwarth and S. Grimme, J. Chem. Phys., 2019, 150, 154122.
     DOI: 10.1063/1.5090222
   * E. Caldeweyher, J.-M. Mewes, S. Ehlert and S. Grimme, Phys. Chem. Chem. Phys.
     2020, 22, 8499-8512. DOI: 10.1039/D0CP00502A
   
   for sTDA-xTB:
   * S. Grimme and C. Bannwarth, J. Chem. Phys., 2016, 145, 054103.
     DOI: 10.1063/1.4959605
   
   in the mass-spec context:
   * V. Asgeirsson, C. Bauer and S. Grimme, Chem. Sci., 2017, 8, 4879.
     DOI: 10.1039/c7sc00601b
   * J. Koopman and S. Grimme, ACS Omega 2019, 4, 12, 15120-15133.
     DOI: 10.1021/acsomega.9b02011
   
   for metadynamics refer to:
   * S. Grimme, J. Chem. Theory Comput., 2019, 155, 2847-2862
     DOI: 10.1021/acs.jctc.9b00143
   
   for SPH calculations refer to:
   * S. Spicher and S. Grimme, J. Chem. Theory Comput., 2021, 17, 1701-1714
     DOI: 10.1021/acs.jctc.0c01306
   
   with help from (in alphabetical order)
   P. Atkinson, C. Bannwarth, F. Bohle, G. Brandenburg, E. Caldeweyher
   M. Checinski, S. Dohm, S. Ehlert, S. Ehrlich, I. Gerasimov, C. Hölzer
   A. Katbashev, J. Koopman, C. Lavigne, S. Lehtola, F. März, M. Müller,
   F. Musil, H. Neugebauer, J. Pisarek, C. Plett, P. Pracht, F. Pultar,
   J. Seibert, P. Shushkov, S. Spicher, M. Stahn, M. Steiner, T. Strunk,
   J. Stückrath, T. Rose, and J. Unsleber
   
 * started run on 2024/10/04 at 02:54:13.591     

           -------------------------------------------------
          |                Calculation Setup                |
           -------------------------------------------------

          program call               : /home/abt-grimme/AK-bin/xtb input.xyz --input input.inp --opt
          hostname                   : boar049.thch.uni-bonn.de
          coordinate file            : input.xyz
          omp threads                :                     8

   ID    Z sym.   atoms
    1    6 C      1-120, 363-482, 725-844, 1087-1206, 1449-1568, 1811-1930,
                  2173-2292, 2535-2654, 2897-3016
    2    1 H      121-362, 483-724, 845-1086, 1207-1448, 1569-1810,
                  1931-2172, 2293-2534, 2655-2896, 3017-3258

molecular fragmentation (1/2 indicates fragments):
111111111111111111111111111111111111111111111111111111111111111111111111
111111111111111111111111111111111111111111111111111111111111111111111111
111111111111111111111111111111111111111111111111111111111111111111111111
111111111111111111111111111111111111111111111111111111111111111111111111
111111111111111111111111111111111111111111111111111111111111111111111111
112222222222222222222222222222222222222222222222222222222222222222222222
222222222222222222222222222222222222222222222222222222222222222222222222
222222222222222222222222222222222222222222222222222222222222222222222222
222222222222222222222222222222222222222222222222222222222222222222222222
222222222222222222222222222222222222222222222222222222222222222222222222
222222222222222222222222222222222222222222222222222222222222222222222222
222222222222222222222222222222222222222222222222222222222222222222222222
222222222222222222222222222222222222222222222222222222222222222222222222
222222222222222222222222222222222222222222222222222222222222222222222222
222222222222222222222222222222222222222222222222222222222222222222222222
222222222222222222222222222222222222222222222222222222222222222222222222
222222222222222222222222222222222222222222222222222222222222222222222222
222222222222222222222222222222222222222222222222222222222222222222222222
222222222222222222222222222222222222222222222222222222222222222222222222
222222222222222222222222222222222222222222222222222222222222222222222222
222222222222222222222222222222222222222222222222222222222222222222222222
222222222222222222222222222222222222222222222222222222222222222222222222
222222222222222222222222222222222222222222222222222222222222222222222222
222222222222222222222222222222222222222222222222222222222222222222222222
222222222222222222222222222222222222222222222222222222222222222222222222
222222222222222222222222222222222222222222222222222222222222222222222222
222222222222222222222222222222222222222222222222222222222222222222222222
222222222222222222222222222222222222222222222222222222222222222222222222
222222222222222222222222222222222222222222222222222222222222222222222222
222222222222222222222222222222222222222222222222222222222222222222222222
222222222222222222222222222222222222222222222222222222222222222222222222
222222222222222222222222222222222222222222222222222222222222222222222222
222222222222222222222222222222222222222222222222222222222222222222222222
222222222222222222222222222222222222222222222222222222222222222222222222
222222222222222222222222222222222222222222222222222222222222222222222222
222222222222222222222222222222222222222222222222222222222222222222222222
222222222222222222222222222222222222222222222222222222222222222222222222
222222222222222222222222222222222222222222222222222222222222222222222222
222222222222222222222222222222222222222222222222222222222222222222222222
222222222222222222222222222222222222222222222222222222222222222222222222
222222222222222222222222222222222222222222222222222222222222222222222222
222222222222222222222222222222222222222222222222222222222222222222222222
222222222222222222222222222222222222222222222222222222222222222222222222
222222222222222222222222222222222222222222222222222222222222222222222222
222222222222222222222222222222222222222222222222222222222222222222222222
222222222222222222
# atoms in fragment 1/2:   362  2896
 fragment masses (1/2) :     1685.21    13481.68
CMA distance (Bohr)    :   8.610
constraining FC (au)   :  0.0500

           -------------------------------------------------
          |                 G F N 2 - x T B                 |
           -------------------------------------------------

        Reference                      10.1021/acs.jctc.8b01176
      * Hamiltonian:
        H0-scaling (s, p, d)           1.850000    2.230000    2.230000
        zeta-weighting                 0.500000
      * Dispersion:
        s8                             2.700000
        a1                             0.520000
        a2                             5.000000
        s9                             5.000000
      * Repulsion:
        kExp                           1.500000    1.000000
        rExp                           1.000000
      * Coulomb:
        alpha                          2.000000
        third order                    shell-resolved
        anisotropic                    true
        a3                             3.000000
        a5                             4.000000
        cn-shift                       1.200000
        cn-exp                         4.000000
        max-rad                        5.000000


          ...................................................
          :                      SETUP                      :
          :.................................................:
          :  # basis functions                6498          :
          :  # atomic orbitals                6498          :
          :  # shells                         4338          :
          :  # electrons                      6498          :
          :  max. iterations                   250          :
          :  Hamiltonian                  GFN2-xTB          :
          :  restarted?                      false          :
          :  GBSA solvation                  false          :
          :  PC potential                    false          :
          :  electronic temp.          300.0000000     K    :
          :  accuracy                    1.0000000          :
          :  -> integral cutoff          0.2500000E+02      :
          :  -> integral neglect         0.1000000E-07      :
          :  -> SCF convergence          0.1000000E-05 Eh   :
          :  -> wf. convergence          0.1000000E-03 e    :
          :  Broyden damping             0.4000000          :
          ...................................................

 iter      E             dE          RMSdq      gap      omega  full diag
   1  -3473.4529135 -0.347345E+04  0.244E+00   11.46       0.0  T
   2  -3478.5517292 -0.509882E+01  0.135E+00   11.57       1.0  T
   3  -3478.7556926 -0.203963E+00  0.599E-01   11.52       1.0  T
   4  -3478.7762629 -0.205703E-01  0.754E-02   11.56       1.0  T
   5  -3478.7772182 -0.955302E-03  0.392E-02   11.56       1.0  T
   6  -3478.7774284 -0.210196E-03  0.608E-03   11.56       1.0  T
   7  -3478.7774441 -0.156818E-04  0.123E-03   11.56       1.4  T
   8  -3478.7774452 -0.107908E-05  0.386E-04   11.56       4.5  T
   9  -3478.7774452 -0.621249E-07  0.142E-04   11.56      12.3  T
  10  -3478.7774452 -0.368846E-08  0.408E-05   11.56      43.0  T

   *** convergence criteria satisfied after 10 iterations ***

         #    Occupation            Energy/Eh            Energy/eV
      -------------------------------------------------------------
         1        2.0000           -0.6250749             -17.0092
       ...           ...                  ...                  ...
      3243        2.0000           -0.4024408             -10.9510
      3244        2.0000           -0.4023533             -10.9486
      3245        2.0000           -0.4023419             -10.9483
      3246        2.0000           -0.4019800             -10.9384
      3247        2.0000           -0.4017525             -10.9322
      3248        2.0000           -0.4016723             -10.9301
      3249        2.0000           -0.4016517             -10.9295 (HOMO)
      3250                          0.0232296               0.6321 (LUMO)
      3251                          0.0237305               0.6457
      3252                          0.0243489               0.6626
      3253                          0.0249170               0.6780
      3254                          0.0250433               0.6815
       ...                                ...                  ...
      6498                          0.3799442              10.3388
      -------------------------------------------------------------
                  HL-Gap            0.4248813 Eh           11.5616 eV
             Fermi-level           -0.1892110 Eh           -5.1487 eV

 SCC (total)                   0 d,  0 h, 13 min, 42.341 sec
 SCC setup                      ...        0 min,  0.433 sec (  0.053%)
 Dispersion                     ...        0 min,  3.633 sec (  0.442%)
 classical contributions        ...        0 min,  0.135 sec (  0.016%)
 integral evaluation            ...        0 min,  6.144 sec (  0.747%)
 iterations                     ...        9 min, 34.363 sec ( 69.845%)
 molecular gradient             ...        3 min, 49.767 sec ( 27.941%)
 printout                       ...        0 min,  7.866 sec (  0.956%)

         :::::::::::::::::::::::::::::::::::::::::::::::::::::
         ::                     SUMMARY                     ::
         :::::::::::::::::::::::::::::::::::::::::::::::::::::
         :: total energy           -3427.523078625465 Eh    ::
         :: gradient norm              0.018616920545 Eh/a0 ::
         :: HOMO-LUMO gap             11.561609837968 eV    ::
         ::.................................................::
         :: SCC energy             -3478.777445222683 Eh    ::
         :: -> isotropic ES            0.419392321979 Eh    ::
         :: -> anisotropic ES          1.116681182456 Eh    ::
         :: -> anisotropic XC          1.946928226990 Eh    ::
         :: -> dispersion             -4.043046856782 Eh    ::
         :: repulsion energy          50.610632190136 Eh    ::
         :: add. restraining           0.000000000000 Eh    ::
         :: total charge              -0.000000000012 e     ::
         :::::::::::::::::::::::::::::::::::::::::::::::::::::

      ----------------------------------------------------------- 
     |              Fast Inertial Relaxation Engine              |
      ----------------------------------------------------------- 

          ...................................................
          :                      SETUP                      :
          :.................................................:
          :   energy convergence        0.5000000E-05 Eh    :
          :   grad. convergence         0.1000000E-02 Eh/a0 :
          :   optimization log               true           :
          :   writing optlog all                1     steps :
          :   Hessian reset                    20     steps :
          :   time step scaling                 5     steps :
          :   maximium step len.        1.0000000     a0    :
          :   initial time step         0.2500000     fs    :
          :   maximum time step         1.2500000     fs    :
          :   power reset thr           0.0000000     au    :
          :   alpha parameter           0.1000000           :
          :   BFGS update                   false           :
          :   preconditioning               false           :
          ...................................................

........................................................................
.............................. CYCLE    1 ..............................
........................................................................

 iter      E             dE          RMSdq      gap      omega  full diag
   1  -3478.7810455 -0.347878E+04  0.267E-04   11.56       0.0  T
   2  -3478.7810456 -0.289765E-07  0.153E-04   11.56      11.5  T
   3  -3478.7810456 -0.622094E-09  0.493E-05   11.56      35.5  T
     SCC iter.                  ...        2 min, 49.691 sec
     gradient                   ...        3 min, 49.735 sec
 * total energy  : -3427.5231176 Eh     change    :  -0.3898426E-04 Eh
   gradient norm :     0.0171309 Eh/a0  converged?    E=F G=F D=F
   time step     :     0.2500000 fs     power     :   0.1983421E-08
   step length   :     0.0021819 a0     speed     :   0.2111070E-03

........................................................................
.............................. CYCLE    2 ..............................
........................................................................

 iter      E             dE          RMSdq      gap      omega  full diag
   1  -3478.7862858 -0.347879E+04  0.387E-04   11.56       0.0  T
   2  -3478.7862859 -0.606010E-07  0.221E-04   11.56       7.9  T
   3  -3478.7862859 -0.133241E-08  0.714E-05   11.56      24.5  T
     SCC iter.                  ...        2 min, 48.950 sec
     gradient                   ...        3 min, 49.465 sec
 * total energy  : -3427.5231688 Eh     change    :  -0.5115083E-04 Eh
   gradient norm :     0.0149930 Eh/a0  converged?    E=F G=F D=F
   time step     :     0.2500000 fs     power     :   0.2531436E-08
   step length   :     0.0031855 a0     speed     :   0.3082171E-03

........................................................................
.............................. CYCLE    3 ..............................
........................................................................

 iter      E             dE          RMSdq      gap      omega  full diag
   1  -3478.7929356 -0.347879E+04  0.493E-04   11.56       0.0  T
   2  -3478.7929357 -0.975206E-07  0.281E-04   11.56       6.2  T
   3  -3478.7929357 -0.206592E-08  0.904E-05   11.56      19.4  T
     SCC iter.                  ...        2 min, 47.737 sec
     gradient                   ...        3 min, 49.812 sec
 * total energy  : -3427.5232241 Eh     change    :  -0.5534264E-04 Eh
   gradient norm :     0.0123238 Eh/a0  converged?    E=F G=F D=F
   time step     :     0.2500000 fs     power     :   0.2642698E-08
   step length   :     0.0040629 a0     speed     :   0.3931076E-03

........................................................................
.............................. CYCLE    4 ..............................
........................................................................

 iter      E             dE          RMSdq      gap      omega  full diag
   1  -3478.8006973 -0.347880E+04  0.578E-04   11.56       0.0  T
   2  -3478.8006974 -0.132306E-06  0.330E-04   11.56       5.3  T
   3  -3478.8006974 -0.285354E-08  0.105E-04   11.56      16.7  T
     SCC iter.                  ...        2 min, 47.246 sec
     gradient                   ...        3 min, 49.019 sec
 * total energy  : -3427.5232753 Eh     change    :  -0.5117904E-04 Eh
   gradient norm :     0.0093160 Eh/a0  converged?    E=F G=F D=F
   time step     :     0.2500000 fs     power     :   0.2313560E-08
   step length   :     0.0047802 a0     speed     :   0.4625113E-03

........................................................................
.............................. CYCLE    5 ..............................
........................................................................

 iter      E             dE          RMSdq      gap      omega  full diag
   1  -3478.8092026 -0.347881E+04  0.639E-04   11.56       0.0  T
   2  -3478.8092028 -0.157862E-06  0.365E-04   11.56       4.8  T
   3  -3478.8092028 -0.356977E-08  0.114E-04   11.56      15.3  T
     SCC iter.                  ...        2 min, 47.803 sec
     gradient                   ...        3 min, 50.263 sec
 * total energy  : -3427.5233150 Eh     change    :  -0.3971437E-04 Eh
   gradient norm :     0.0063243 Eh/a0  converged?    E=F G=F D=F
   time step     :     0.2500000 fs     power     :   0.1621339E-08
   step length   :     0.0053085 a0     speed     :   0.5136305E-03

........................................................................
.............................. CYCLE    6 ..............................
........................................................................

 iter      E             dE          RMSdq      gap      omega  full diag
   1  -3478.8188933 -0.347882E+04  0.741E-04   11.56       0.0  T
   2  -3478.8188935 -0.202852E-06  0.425E-04   11.56       4.1  T
   3  -3478.8188935 -0.458658E-08  0.128E-04   11.56      13.7  T
     SCC iter.                  ...        3 min,  0.165 sec
     gradient                   ...        3 min, 49.793 sec
 * total energy  : -3427.5233399 Eh     change    :  -0.2492763E-04 Eh
   gradient norm :     0.0041647 Eh/a0  converged?    E=F G=F D=F
   time step     :     0.2750000 fs     power     :   0.6256003E-09
   step length   :     0.0062095 a0     speed     :   0.5461885E-03

........................................................................
.............................. CYCLE    7 ..............................
........................................................................

 iter      E             dE          RMSdq      gap      omega  full diag
   1  -3478.8287480 -0.347883E+04  0.793E-04   11.56       0.0  T
   2  -3478.8287482 -0.204418E-06  0.456E-04   11.56       3.8  T
   3  -3478.8287482 -0.495538E-08  0.126E-04   11.56      13.9  T
     SCC iter.                  ...        2 min, 51.658 sec
     gradient                   ...        3 min, 49.919 sec
 * total energy  : -3427.5233446 Eh     change    :  -0.4677734E-05 Eh
   gradient norm :     0.0051204 Eh/a0  converged?    E=T G=F D=F
   time step     :     0.3025000 fs     power     :  -0.3489433E-09
   step length   :     0.0067321 a0     speed     :   0.5383191E-03

........................................................................
.............................. CYCLE    8 ..............................
........................................................................
 * reset velocities

 iter      E             dE          RMSdq      gap      omega  full diag
   1  -3478.8286277 -0.347883E+04  0.137E-05   11.56       0.0  T
   2  -3478.8286277 -0.135515E-09  0.731E-06   11.56     239.7  T
   3  -3478.8286277 -0.818545E-11  0.329E-06   11.56     532.3  T
     SCC iter.                  ...        2 min, 54.992 sec
     gradient                   ...        3 min, 49.543 sec
 * total energy  : -3427.5233452 Eh     change    :  -0.5602546E-06 Eh
   gradient norm :     0.0050604 Eh/a0  converged?    E=T G=F D=T
   time step     :     0.1512500 fs     power     :   0.4875670E-10
   step length   :     0.0001098 a0     speed     :   0.1756411E-04

........................................................................
.............................. CYCLE    9 ..............................
........................................................................

 iter      E             dE          RMSdq      gap      omega  full diag
   1  -3478.8283890 -0.347883E+04  0.272E-05   11.56       0.0  T
   2  -3478.8283890 -0.206455E-09  0.159E-05   11.56     110.2  T
   3  -3478.8283890  0.327418E-10  0.388E-06   11.56     451.9  T
     SCC iter.                  ...        2 min, 47.924 sec
     gradient                   ...        3 min, 49.561 sec
 * total energy  : -3427.5233463 Eh     change    :  -0.1091221E-05 Eh
   gradient norm :     0.0049481 Eh/a0  converged?    E=T G=F D=T
   time step     :     0.1512500 fs     power     :   0.9477839E-10
   step length   :     0.0002184 a0     speed     :   0.3492192E-04

........................................................................
.............................. CYCLE   10 ..............................
........................................................................

 iter      E             dE          RMSdq      gap      omega  full diag
   1  -3478.8280371 -0.347883E+04  0.400E-05   11.56       0.0  T
   2  -3478.8280371 -0.442924E-09  0.233E-05   11.56      75.1  T
   3  -3478.8280371 -0.209184E-10  0.572E-06   11.56     306.2  T
     SCC iter.                  ...        2 min, 45.633 sec
     gradient                   ...        3 min, 49.685 sec
 * total energy  : -3427.5233478 Eh     change    :  -0.1576945E-05 Eh
   gradient norm :     0.0047846 Eh/a0  converged?    E=T G=F D=T
   time step     :     0.1512500 fs     power     :   0.1361321E-09
   step length   :     0.0003245 a0     speed     :   0.5189302E-04

........................................................................
.............................. CYCLE   11 ..............................
........................................................................

 iter      E             dE          RMSdq      gap      omega  full diag
   1  -3478.8275800 -0.347883E+04  0.525E-05   11.56       0.0  T
   2  -3478.8275800 -0.679393E-09  0.306E-05   11.56      57.2  T
   3  -3478.8275800 -0.782165E-10  0.746E-06   11.56     234.8  T
     SCC iter.                  ...        2 min, 46.507 sec
     gradient                   ...        3 min, 49.548 sec
 * total energy  : -3427.5233498 Eh     change    :  -0.1991446E-05 Eh
   gradient norm :     0.0045748 Eh/a0  converged?    E=T G=F D=T
   time step     :     0.1512500 fs     power     :   0.1711540E-09
   step length   :     0.0004271 a0     speed     :   0.6829724E-04

........................................................................
.............................. CYCLE   12 ..............................
........................................................................

 iter      E             dE          RMSdq      gap      omega  full diag
   1  -3478.8270284 -0.347883E+04  0.643E-05   11.56       0.0  T
   2  -3478.8270284 -0.105501E-08  0.376E-05   11.56      46.7  T
   3  -3478.8270284  0.454747E-11  0.903E-06   11.56     194.0  T
     SCC iter.                  ...        2 min, 52.844 sec
     gradient                   ...        3 min, 49.420 sec
 * total energy  : -3427.5233522 Eh     change    :  -0.2332036E-05 Eh
   gradient norm :     0.0043259 Eh/a0  converged?    E=T G=F D=T
   time step     :     0.1512500 fs     power     :   0.1986036E-09
   step length   :     0.0005250 a0     speed     :   0.8396592E-04

........................................................................
.............................. CYCLE   13 ..............................
........................................................................

 iter      E             dE          RMSdq      gap      omega  full diag
   1  -3478.8263961 -0.347883E+04  0.752E-05   11.56       0.0  T
   2  -3478.8263961 -0.134514E-08  0.440E-05   11.56      39.8  T
   3  -3478.8263961 -0.823093E-10  0.104E-05   11.56     168.3  T
     SCC iter.                  ...        2 min, 52.496 sec
     gradient                   ...        3 min, 49.965 sec
 * total energy  : -3427.5233547 Eh     change    :  -0.2572207E-05 Eh
   gradient norm :     0.0040474 Eh/a0  converged?    E=T G=F D=T
   time step     :     0.1512500 fs     power     :   0.2177636E-09
   step length   :     0.0006174 a0     speed     :   0.9874611E-04

........................................................................
.............................. CYCLE   14 ..............................
........................................................................

 iter      E             dE          RMSdq      gap      omega  full diag
   1  -3478.8256222 -0.347883E+04  0.948E-05   11.56       0.0  T
   2  -3478.8256222 -0.204454E-08  0.554E-05   11.56      31.6  T
   3  -3478.8256222  0.181899E-11  0.129E-05   11.56     136.1  T
     SCC iter.                  ...        2 min, 48.057 sec
     gradient                   ...        3 min, 48.889 sec
 * total energy  : -3427.5233577 Eh     change    :  -0.3015366E-05 Eh
   gradient norm :     0.0037190 Eh/a0  converged?    E=T G=F D=T
   time step     :     0.1663750 fs     power     :   0.2290508E-09
   step length   :     0.0007833 a0     speed     :   0.1138851E-03

........................................................................
.............................. CYCLE   15 ..............................
........................................................................

 iter      E             dE          RMSdq      gap      omega  full diag
   1  -3478.8247067 -0.347882E+04  0.117E-04   11.56       0.0  T
   2  -3478.8247067 -0.302998E-08  0.685E-05   11.56      25.6  T
   3  -3478.8247067 -0.532054E-10  0.154E-05   11.56     113.7  T
     SCC iter.                  ...        2 min, 46.778 sec
     gradient                   ...        3 min, 48.713 sec
 * total energy  : -3427.5233611 Eh     change    :  -0.3385826E-05 Eh
   gradient norm :     0.0033549 Eh/a0  converged?    E=T G=F D=T
   time step     :     0.1830125 fs     power     :   0.2303049E-09
   step length   :     0.0009762 a0     speed     :   0.1290202E-03

........................................................................
.............................. CYCLE   16 ..............................
........................................................................

 iter      E             dE          RMSdq      gap      omega  full diag
   1  -3478.8236690 -0.347882E+04  0.141E-04   11.56       0.0  T
   2  -3478.8236690 -0.411546E-08  0.829E-05   11.56      21.1  T
   3  -3478.8236690 -0.673026E-10  0.178E-05   11.56      98.3  T
     SCC iter.                  ...        2 min, 48.900 sec
     gradient                   ...        3 min, 48.902 sec
 * total energy  : -3427.5233648 Eh     change    :  -0.3637553E-05 Eh
   gradient norm :     0.0029890 Eh/a0  converged?    E=T G=F D=F
   time step     :     0.2013138 fs     power     :   0.2204498E-09
   step length   :     0.0011956 a0     speed     :   0.1436570E-03

........................................................................
.............................. CYCLE   17 ..............................
........................................................................

 iter      E             dE          RMSdq      gap      omega  full diag
   1  -3478.8225621 -0.347882E+04  0.167E-04   11.56       0.0  T
   2  -3478.8225621 -0.515183E-08  0.980E-05   11.56      17.9  T
   3  -3478.8225621 -0.149612E-09  0.196E-05   11.56      89.3  T
     SCC iter.                  ...        2 min, 49.298 sec
     gradient                   ...        3 min, 48.990 sec
 * total energy  : -3427.5233685 Eh     change    :  -0.3734289E-05 Eh
   gradient norm :     0.0026819 Eh/a0  converged?    E=T G=F D=F
   time step     :     0.2214451 fs     power     :   0.2007579E-09
   step length   :     0.0014386 a0     speed     :   0.1571433E-03

........................................................................
.............................. CYCLE   18 ..............................
........................................................................

 iter      E             dE          RMSdq      gap      omega  full diag
   1  -3478.8214898 -0.347882E+04  0.191E-04   11.56       0.0  T
   2  -3478.8214898 -0.566797E-08  0.113E-04   11.56      15.5  T
   3  -3478.8214898 -0.162345E-09  0.202E-05   11.56      86.6  T
     SCC iter.                  ...        2 min, 47.515 sec
     gradient                   ...        3 min, 49.486 sec
 * total energy  : -3427.5233722 Eh     change    :  -0.3687830E-05 Eh
   gradient norm :     0.0025089 Eh/a0  converged?    E=T G=F D=F
   time step     :     0.2435896 fs     power     :   0.1761273E-09
   step length   :     0.0016986 a0     speed     :   0.1686750E-03

........................................................................
.............................. CYCLE   19 ..............................
........................................................................

 iter      E             dE          RMSdq      gap      omega  full diag
   1  -3478.8206145 -0.347882E+04  0.213E-04   11.56       0.0  T
   2  -3478.8206145 -0.551472E-08  0.126E-04   11.56      13.9  T
   3  -3478.8206145 -0.115506E-09  0.191E-05   11.56      91.7  T
     SCC iter.                  ...        2 min, 48.344 sec
     gradient                   ...        3 min, 49.327 sec
 * total energy  : -3427.5233758 Eh     change    :  -0.3581808E-05 Eh
   gradient norm :     0.0025009 Eh/a0  converged?    E=T G=F D=F
   time step     :     0.2679486 fs     power     :   0.1549159E-09
   step length   :     0.0019667 a0     speed     :   0.1775444E-03

........................................................................
.............................. CYCLE   20 ..............................
........................................................................

 iter      E             dE          RMSdq      gap      omega  full diag
   1  -3478.8201396 -0.347882E+04  0.232E-04   11.56       0.0  T
   2  -3478.8201396 -0.428054E-08  0.137E-04   11.56      12.8  T
   3  -3478.8201396 -0.123237E-09  0.167E-05   11.56     104.9  T
     SCC iter.                  ...        2 min, 49.386 sec
     gradient                   ...        3 min, 49.253 sec
 * total energy  : -3427.5233795 Eh     change    :  -0.3688622E-05 Eh
   gradient norm :     0.0025855 Eh/a0  converged?    E=T G=F D=F
   time step     :     0.2947435 fs     power     :   0.1452269E-09
   step length   :     0.0022410 a0     speed     :   0.1839106E-03
 * RMSD in coord.:     0.0005684 a0     energy gain  -0.3008319E-03 Eh

........................................................................
.............................. CYCLE   21 ..............................
........................................................................

 iter      E             dE          RMSdq      gap      omega  full diag
   1  -3478.8202045 -0.347882E+04  0.190E-04   11.56       0.0  T
   2  -3478.8202045 -0.179125E-08  0.112E-04   11.56      15.6  T
   3  -3478.8202045 -0.572982E-10  0.113E-05   11.56     155.6  T
     SCC iter.                  ...        2 min, 50.005 sec
     gradient                   ...        3 min, 48.774 sec
 * total energy  : -3427.5233826 Eh     change    :  -0.3115926E-05 Eh
   gradient norm :     0.0026159 Eh/a0  converged?    E=T G=F D=F
   time step     :     0.2500000 fs     power     :   0.1517267E-09
   step length   :     0.0019219 a0     speed     :   0.1859579E-03

........................................................................
.............................. CYCLE   22 ..............................
........................................................................

 iter      E             dE          RMSdq      gap      omega  full diag
   1  -3478.8207316 -0.347882E+04  0.186E-04   11.56       0.0  T
   2  -3478.8207316 -0.137788E-08  0.109E-04   11.56      16.1  T
   3  -3478.8207316 -0.954969E-11  0.110E-05   11.56     159.4  T
     SCC iter.                  ...        2 min, 52.849 sec
     gradient                   ...        3 min, 49.395 sec
 * total energy  : -3427.5233858 Eh     change    :  -0.3268396E-05 Eh
   gradient norm :     0.0025373 Eh/a0  converged?    E=T G=F D=F
   time step     :     0.2500000 fs     power     :   0.1628568E-09
   step length   :     0.0019470 a0     speed     :   0.1883858E-03

........................................................................
.............................. CYCLE   23 ..............................
........................................................................

 iter      E             dE          RMSdq      gap      omega  full diag
   1  -3478.8216798 -0.347882E+04  0.185E-04   11.56       0.0  T
   2  -3478.8216798 -0.181581E-08  0.108E-04   11.56      16.2  T
   3  -3478.8216798 -0.841283E-10  0.120E-05   11.56     146.2  T
     SCC iter.                  ...        2 min, 47.902 sec
     gradient                   ...        3 min, 48.715 sec
 * total energy  : -3427.5233893 Eh     change    :  -0.3423866E-05 Eh
   gradient norm :     0.0023350 Eh/a0  converged?    E=T G=F D=F
   time step     :     0.2500000 fs     power     :   0.1703403E-09
   step length   :     0.0019839 a0     speed     :   0.1919567E-03

........................................................................
.............................. CYCLE   24 ..............................
........................................................................

 iter      E             dE          RMSdq      gap      omega  full diag
   1  -3478.8229808 -0.347882E+04  0.188E-04   11.56       0.0  T
   2  -3478.8229808 -0.265391E-08  0.109E-04   11.56      16.1  T
   3  -3478.8229808 -0.632099E-10  0.138E-05   11.56     127.0  T
     SCC iter.                  ...        2 min, 45.219 sec
     gradient                   ...        3 min, 49.588 sec
 * total energy  : -3427.5233927 Eh     change    :  -0.3421349E-05 Eh
   gradient norm :     0.0020310 Eh/a0  converged?    E=T G=F D=F
   time step     :     0.2500000 fs     power     :   0.1678902E-09
   step length   :     0.0020322 a0     speed     :   0.1966269E-03

........................................................................
.............................. CYCLE   25 ..............................
........................................................................

 iter      E             dE          RMSdq      gap      omega  full diag
   1  -3478.8245392 -0.347882E+04  0.191E-04   11.56       0.0  T
   2  -3478.8245392 -0.364889E-08  0.110E-04   11.56      15.9  T
   3  -3478.8245392 -0.130967E-09  0.159E-05   11.56     110.5  T
     SCC iter.                  ...        2 min, 46.897 sec
     gradient                   ...        3 min, 49.295 sec
 * total energy  : -3427.5233959 Eh     change    :  -0.3192248E-05 Eh
   gradient norm :     0.0016853 Eh/a0  converged?    E=T G=F D=F
   time step     :     0.2500000 fs     power     :   0.1530764E-09
   step length   :     0.0020862 a0     speed     :   0.2018542E-03

........................................................................
.............................. CYCLE   26 ..............................
........................................................................

 iter      E             dE          RMSdq      gap      omega  full diag
   1  -3478.8264022 -0.347883E+04  0.211E-04   11.56       0.0  T
   2  -3478.8264022 -0.537193E-08  0.121E-04   11.56      14.5  T
   3  -3478.8264022 -0.140062E-09  0.192E-05   11.56      91.2  T
     SCC iter.                  ...        2 min, 46.197 sec
     gradient                   ...        3 min, 49.841 sec
 * total energy  : -3427.5233989 Eh     change    :  -0.3010577E-05 Eh
   gradient norm :     0.0013890 Eh/a0  converged?    E=T G=F D=F
   time step     :     0.2750000 fs     power     :   0.1253024E-09
   step length   :     0.0023601 a0     speed     :   0.2075913E-03

........................................................................
.............................. CYCLE   27 ..............................
........................................................................

 iter      E             dE          RMSdq      gap      omega  full diag
   1  -3478.8283621 -0.347883E+04  0.225E-04   11.56       0.0  T
   2  -3478.8283621 -0.613682E-08  0.129E-04   11.56      13.6  T
   3  -3478.8283621 -0.272394E-09  0.203E-05   11.56      86.2  T
     SCC iter.                  ...        2 min, 45.554 sec
     gradient                   ...        3 min, 49.102 sec
 * total energy  : -3427.5234015 Eh     change    :  -0.2600471E-05 Eh
   gradient norm :     0.0013482 Eh/a0  converged?    E=T G=F D=F
   time step     :     0.3025000 fs     power     :   0.9286468E-10
   step length   :     0.0026470 a0     speed     :   0.2116658E-03

........................................................................
.............................. CYCLE   28 ..............................
........................................................................

 iter      E             dE          RMSdq      gap      omega  full diag
   1  -3478.8300585 -0.347883E+04  0.224E-04   11.56       0.0  T
   2  -3478.8300585 -0.479531E-08  0.128E-04   11.56      13.6  T
   3  -3478.8300585 -0.115961E-09  0.174E-05   11.56     100.6  T
     SCC iter.                  ...        2 min, 44.480 sec
     gradient                   ...        3 min, 49.055 sec
 * total energy  : -3427.5234037 Eh     change    :  -0.2214343E-05 Eh
   gradient norm :     0.0015578 Eh/a0  converged?    E=T G=F D=F
   time step     :     0.3327500 fs     power     :   0.7200429E-10
   step length   :     0.0028990 a0     speed     :   0.2107375E-03

........................................................................
.............................. CYCLE   29 ..............................
........................................................................

 iter      E             dE          RMSdq      gap      omega  full diag
   1  -3478.8311602 -0.347883E+04  0.212E-04   11.56       0.0  T
   2  -3478.8311602 -0.241835E-08  0.122E-04   11.56      14.3  T
   3  -3478.8311602 -0.864020E-10  0.121E-05   11.56     144.3  T
     SCC iter.                  ...        2 min, 50.870 sec
     gradient                   ...        3 min, 49.575 sec
 * total energy  : -3427.5234060 Eh     change    :  -0.2264053E-05 Eh
   gradient norm :     0.0017544 Eh/a0  converged?    E=T G=F D=F
   time step     :     0.3660250 fs     power     :   0.7107123E-10
   step length   :     0.0031160 a0     speed     :   0.2059209E-03

........................................................................
.............................. CYCLE   30 ..............................
........................................................................

 iter      E             dE          RMSdq      gap      omega  full diag
   1  -3478.8314517 -0.347883E+04  0.201E-04   11.56       0.0  T
   2  -3478.8314517 -0.118644E-08  0.117E-04   11.56      14.9  T
   3  -3478.8314517 -0.158707E-09  0.936E-06   11.56     187.2  T
     SCC iter.                  ...        2 min, 44.880 sec
     gradient                   ...        3 min, 49.505 sec
 * total energy  : -3427.5234087 Eh     change    :  -0.2756797E-05 Eh
   gradient norm :     0.0017531 Eh/a0  converged?    E=T G=F D=F
   time step     :     0.4026275 fs     power     :   0.8269265E-10
   step length   :     0.0033584 a0     speed     :   0.2017656E-03

........................................................................
.............................. CYCLE   31 ..............................
........................................................................

 iter      E             dE          RMSdq      gap      omega  full diag
   1  -3478.8308474 -0.347883E+04  0.201E-04   11.56       0.0  T
   2  -3478.8308474 -0.265027E-08  0.118E-04   11.56      14.8  T
   3  -3478.8308474 -0.156433E-09  0.119E-05   11.56     146.7  T
     SCC iter.                  ...        2 min, 48.375 sec
     gradient                   ...        3 min, 49.565 sec
 * total energy  : -3427.5234121 Eh     change    :  -0.3397926E-05 Eh
   gradient norm :     0.0015272 Eh/a0  converged?    E=T G=F D=F
   time step     :     0.4428903 fs     power     :   0.9075236E-10
   step length   :     0.0036809 a0     speed     :   0.2010341E-03

........................................................................
.............................. CYCLE   32 ..............................
........................................................................

 iter      E             dE          RMSdq      gap      omega  full diag
   1  -3478.8294830 -0.347883E+04  0.210E-04   11.56       0.0  T
   2  -3478.8294830 -0.620958E-08  0.124E-04   11.56      14.1  T
   3  -3478.8294830 -0.183263E-09  0.189E-05   11.56      92.9  T
     SCC iter.                  ...        2 min, 49.253 sec
     gradient                   ...        3 min, 49.317 sec
 * total energy  : -3427.5234157 Eh     change    :  -0.3606446E-05 Eh
   gradient norm :     0.0012798 Eh/a0  converged?    E=T G=F D=F
   time step     :     0.4871793 fs     power     :   0.8337402E-10
   step length   :     0.0041015 a0     speed     :   0.2036431E-03

........................................................................
.............................. CYCLE   33 ..............................
........................................................................

 iter      E             dE          RMSdq      gap      omega  full diag
   1  -3478.8279188 -0.347883E+04  0.208E-04   11.56       0.0  T
   2  -3478.8279188 -0.743967E-08  0.123E-04   11.56      14.2  T
   3  -3478.8279188 -0.186446E-09  0.213E-05   11.56      82.4  T
     SCC iter.                  ...        2 min, 49.780 sec
     gradient                   ...        3 min, 49.848 sec
 * total energy  : -3427.5234192 Eh     change    :  -0.3425460E-05 Eh
   gradient norm :     0.0013687 Eh/a0  converged?    E=T G=F D=F
   time step     :     0.5358972 fs     power     :   0.6958832E-10
   step length   :     0.0045797 a0     speed     :   0.2067143E-03

........................................................................
.............................. CYCLE   34 ..............................
........................................................................

 iter      E             dE          RMSdq      gap      omega  full diag
   1  -3478.8270631 -0.347883E+04  0.191E-04   11.56       0.0  T
   2  -3478.8270631 -0.325781E-08  0.113E-04   11.56      15.4  T
   3  -3478.8270631 -0.139607E-09  0.116E-05   11.56     151.7  T
     SCC iter.                  ...        2 min, 50.739 sec
     gradient                   ...        3 min, 50.259 sec
 * total energy  : -3427.5234228 Eh     change    :  -0.3653816E-05 Eh
   gradient norm :     0.0015751 Eh/a0  converged?    E=T G=F D=F
   time step     :     0.5894869 fs     power     :   0.7270867E-10
   step length   :     0.0050473 a0     speed     :   0.2071078E-03

........................................................................
.............................. CYCLE   35 ..............................
........................................................................

 iter      E             dE          RMSdq      gap      omega  full diag
   1  -3478.8275729 -0.347883E+04  0.205E-04   11.56       0.0  T
   2  -3478.8275729 -0.101409E-08  0.120E-04   11.56      14.6  T
   3  -3478.8275729 -0.152795E-09  0.746E-06   11.56     235.0  T
     SCC iter.                  ...        2 min, 46.259 sec
     gradient                   ...        3 min, 49.705 sec
 * total energy  : -3427.5234275 Eh     change    :  -0.4677187E-05 Eh
   gradient norm :     0.0014695 Eh/a0  converged?    E=T G=F D=F
   time step     :     0.6484356 fs     power     :   0.8894584E-10
   step length   :     0.0055989 a0     speed     :   0.2088566E-03

........................................................................
.............................. CYCLE   36 ..............................
........................................................................

 iter      E             dE          RMSdq      gap      omega  full diag
   1  -3478.8295498 -0.347883E+04  0.265E-04   11.56       0.0  T
   2  -3478.8295498 -0.750333E-08  0.153E-04   11.56      11.4  T
   3  -3478.8295498 -0.211458E-09  0.221E-05   11.56      79.3  T
     SCC iter.                  ...        2 min, 46.635 sec
     gradient                   ...        3 min, 49.411 sec
 * total energy  : -3427.5234330 Eh     change    :  -0.5504477E-05 Eh
   gradient norm :     0.0011441 Eh/a0  converged?    E=F G=F D=F
   time step     :     0.7132792 fs     power     :   0.8973151E-10
   step length   :     0.0063567 a0     speed     :   0.2155693E-03

........................................................................
.............................. CYCLE   37 ..............................
........................................................................

 iter      E             dE          RMSdq      gap      omega  full diag
   1  -3478.8320103 -0.347883E+04  0.293E-04   11.56       0.0  T
   2  -3478.8320103 -0.125192E-07  0.170E-04   11.56      10.3  T
   3  -3478.8320103 -0.428372E-09  0.298E-05   11.56      58.8  T
     SCC iter.                  ...        2 min, 46.983 sec
     gradient                   ...        3 min, 49.701 sec
 * total energy  : -3427.5234384 Eh     change    :  -0.5433342E-05 Eh
   gradient norm :     0.0012619 Eh/a0  converged?    E=F G=F D=F
   time step     :     0.7846071 fs     power     :   0.7557757E-10
   step length   :     0.0072834 a0     speed     :   0.2245411E-03

........................................................................
.............................. CYCLE   38 ..............................
........................................................................

 iter      E             dE          RMSdq      gap      omega  full diag
   1  -3478.8330496 -0.347883E+04  0.263E-04   11.56       0.0  T
   2  -3478.8330496 -0.576892E-08  0.155E-04   11.56      11.3  T
   3  -3478.8330496 -0.307864E-09  0.215E-05   11.56      81.5  T
     SCC iter.                  ...        2 min, 51.942 sec
     gradient                   ...        3 min, 50.328 sec
 * total energy  : -3427.5234444 Eh     change    :  -0.5926329E-05 Eh
   gradient norm :     0.0013466 Eh/a0  converged?    E=F G=F D=F
   time step     :     0.8630678 fs     power     :   0.8253282E-10
   step length   :     0.0081942 a0     speed     :   0.2296564E-03

........................................................................
.............................. CYCLE   39 ..............................
........................................................................

 iter      E             dE          RMSdq      gap      omega  full diag
   1  -3478.8319608 -0.347883E+04  0.292E-04   11.56       0.0  T
   2  -3478.8319608 -0.941873E-08  0.170E-04   11.56      10.3  T
   3  -3478.8319608 -0.371074E-09  0.280E-05   11.56      62.5  T
     SCC iter.                  ...        2 min, 52.610 sec
     gradient                   ...        3 min, 49.611 sec
 * total energy  : -3427.5234515 Eh     change    :  -0.7100065E-05 Eh
   gradient norm :     0.0010757 Eh/a0  converged?    E=F G=F D=F
   time step     :     0.9493746 fs     power     :   0.8627896E-10
   step length   :     0.0093148 a0     speed     :   0.2373292E-03

........................................................................
.............................. CYCLE   40 ..............................
........................................................................

 iter      E             dE          RMSdq      gap      omega  full diag
   1  -3478.8305198 -0.347883E+04  0.317E-04   11.56       0.0  T
   2  -3478.8305199 -0.960745E-08  0.184E-04   11.56       9.5  T
   3  -3478.8305199 -0.422460E-09  0.246E-05   11.56      71.2  T
     SCC iter.                  ...        2 min, 45.439 sec
     gradient                   ...        3 min, 49.406 sec
 * total energy  : -3427.5234587 Eh     change    :  -0.7286063E-05 Eh
   gradient norm :     0.0012960 Eh/a0  converged?    E=F G=F D=F
   time step     :     1.0443120 fs     power     :   0.7875587E-10
   step length   :     0.0106976 a0     speed     :   0.2477833E-03

........................................................................
.............................. CYCLE   41 ..............................
........................................................................

 iter      E             dE          RMSdq      gap      omega  full diag
   1  -3478.8316295 -0.347883E+04  0.334E-04   11.56       0.0  T
   2  -3478.8316295 -0.528144E-08  0.195E-04   11.56       9.0  T
   3  -3478.8316295 -0.437467E-09  0.144E-05   11.56     121.3  T
     SCC iter.                  ...        2 min, 45.497 sec
     gradient                   ...        3 min, 49.319 sec
 * total energy  : -3427.5234677 Eh     change    :  -0.8920810E-05 Eh
   gradient norm :     0.0011458 Eh/a0  converged?    E=F G=F D=F
   time step     :     1.1487432 fs     power     :   0.9419649E-10
   step length   :     0.0121520 a0     speed     :   0.2558814E-03

........................................................................
.............................. CYCLE   42 ..............................
........................................................................

 iter      E             dE          RMSdq      gap      omega  full diag
   1  -3478.8340099 -0.347883E+04  0.398E-04   11.56       0.0  T
   2  -3478.8340099 -0.176965E-07  0.233E-04   11.56       7.5  T
   3  -3478.8340099 -0.608452E-09  0.315E-05   11.56      55.7  T
     SCC iter.                  ...        2 min, 51.192 sec
     gradient                   ...        3 min, 50.091 sec
 * total energy  : -3427.5234775 Eh     change    :  -0.9877041E-05 Eh
   gradient norm :     0.0012245 Eh/a0  converged?    E=F G=F D=F
   time step     :     1.2500000 fs     power     :   0.8877398E-10
   step length   :     0.0139265 a0     speed     :   0.2694919E-03
 * RMSD in coord.:     0.0017710 a0     energy gain  -0.9807699E-04 Eh

........................................................................
.............................. CYCLE   43 ..............................
........................................................................

 iter      E             dE          RMSdq      gap      omega  full diag
   1  -3478.8340303 -0.347883E+04  0.630E-05   11.56       0.0  T
   2  -3478.8340303  0.186446E-10  0.371E-05   11.56      47.2  T
   3  -3478.8340303 -0.782165E-10  0.206E-06   11.56     852.4  T
     SCC iter.                  ...        2 min, 50.113 sec
     gradient                   ...        3 min, 49.581 sec
 * total energy  : -3427.5234794 Eh     change    :  -0.1906139E-05 Eh
   gradient norm :     0.0012369 Eh/a0  converged?    E=T G=F D=F
   time step     :     0.2500000 fs     power     :   0.1000267E-09
   step length   :     0.0026959 a0     speed     :   0.2608405E-03

........................................................................
.............................. CYCLE   44 ..............................
........................................................................

 iter      E             dE          RMSdq      gap      omega  full diag
   1  -3478.8336433 -0.347883E+04  0.634E-05   11.56       0.0  T
   2  -3478.8336433 -0.390628E-09  0.370E-05   11.56      47.4  T
   3  -3478.8336433 -0.773070E-11  0.493E-06   11.56     355.7  T
     SCC iter.                  ...        2 min, 47.624 sec
     gradient                   ...        3 min, 49.152 sec
 * total energy  : -3427.5234815 Eh     change    :  -0.2089793E-05 Eh
   gradient norm :     0.0011458 Eh/a0  converged?    E=T G=F D=F
   time step     :     0.2500000 fs     power     :   0.1088229E-09
   step length   :     0.0026348 a0     speed     :   0.2549278E-03

........................................................................
.............................. CYCLE   45 ..............................
........................................................................

 iter      E             dE          RMSdq      gap      omega  full diag
   1  -3478.8329504 -0.347883E+04  0.736E-05   11.56       0.0  T
   2  -3478.8329504 -0.100545E-08  0.428E-05   11.56      41.0  T
   3  -3478.8329504  0.259206E-10  0.840E-06   11.56     208.6  T
     SCC iter.                  ...        2 min, 45.018 sec
     gradient                   ...        3 min, 49.676 sec
 * total energy  : -3427.5234837 Eh     change    :  -0.2157245E-05 Eh
   gradient norm :     0.0010099 Eh/a0  converged?    E=T G=F D=F
   time step     :     0.2500000 fs     power     :   0.1109311E-09
   step length   :     0.0026071 a0     speed     :   0.2522555E-03

........................................................................
.............................. CYCLE   46 ..............................
........................................................................

 iter      E             dE          RMSdq      gap      omega  full diag
   1  -3478.8321096 -0.347883E+04  0.813E-05   11.56       0.0  T
   2  -3478.8321096 -0.135515E-08  0.473E-05   11.56      37.1  T
   3  -3478.8321096 -0.759428E-10  0.104E-05   11.56     167.8  T
     SCC iter.                  ...        2 min, 51.477 sec
     gradient                   ...        3 min, 49.739 sec
 * total energy  : -3427.5234858 Eh     change    :  -0.2090214E-05 Eh
   gradient norm :     0.0009252 Eh/a0  converged?    E=T G=T D=F
   time step     :     0.2500000 fs     power     :   0.1072652E-09
   step length   :     0.0026076 a0     speed     :   0.2523012E-03

   *** GEOMETRY OPTIMIZATION CONVERGED AFTER 46 CYCLES ***

------------------------------------------------------------------------
 total energy gain   :        -0.0004072 Eh       -0.2555 kcal/mol
 total RMSD          :         0.0021702 a0        0.0011 Å
 total power (kW/mol):        -0.0232387 (step)   -0.0001 (real)
------------------------------------------------------------------------

 FIRE (total)                  0 d,  5 h, 19 min, 24.836 sec
 setup                          ...        0 min,  0.120 sec (  0.001%)
 velocities                     ...        0 min,  0.003 sec (  0.000%)
 propagation                    ...        0 min,  0.005 sec (  0.000%)
 singlepoint calculation        ...      319 min, 23.896 sec ( 99.995%)
 log and printout               ...        0 min,  0.748 sec (  0.004%)
 preconditioner                 ...        0 min,  0.000 sec (  0.000%)
 model hessian                  ...        0 min,  0.000 sec (  0.000%)
 hessian update                 ...        0 min,  0.000 sec (  0.000%)

================
 final structure:
================
3258
 xtb: 6.6.1 (8d0f1dd)
C          122.96151572932864      120.31019692884732      117.78668529726927
C          121.91827431524534      120.59903472894990      116.71383245843386
C          120.68234715709058      121.27530615830976      117.30298464645645
C          119.70384589554038      121.78861657381384      116.24606853066425
C          119.11800821054341      120.71427953422854      115.32938089264674
C          118.29983985810642      119.65764717506335      116.06748979126641
C          117.57358219777691      118.72739067473597      115.09897751327968
C          116.71604979987964      117.70136224989255      115.83433954721143
C          115.90530519920326      116.81053148944477      114.89294971871144
C          114.80165833924045      116.06626998260869      115.64054566796179
C          113.94369328123311      115.19184224734798      114.72772929256442
C          112.75941597625446      114.59912198638507      115.48757933155368
C          111.91268421349875      113.64177245424560      114.65169463555131
C          110.68766820025957      113.17360750275893      115.43333393455384
C          109.84818453780194      112.12782748430685      114.70146093435530
C          108.53048627261290      111.88492704288394      115.43394089804016
C          107.70211852121294      110.73335336343888      114.86390027877171
C          106.33377825351035      110.64936907686418      115.56016353708239
C          105.96148492859729      109.25841437190698      116.07772877583065
C          105.55947148229923      108.28812132395836      114.97052424134397
C          104.86627868807972      107.01909741230003      115.47267870018115
C          105.79117872075254      106.08276594394263      116.24592319570378
C          105.07340606408827      104.86784830262660      116.83687552978978
C          104.60035376020492      103.85364654952910      115.79690598273538
C          103.89586581776895      102.67259380791769      116.46284730078025
C          103.25859209448163      101.69546937321016      115.47323363225192
C          104.24248481502005      100.96816827248172      114.55628213571418
C          105.27190170682209      100.12702662484058      115.30733690646400
C          106.23698101903724       99.43786461790690      114.34589344891917
C          107.41834813397442       98.75730877176974      115.03846211324949
C          108.32110742854546       99.73966270271910      115.78414176458392
C          109.65794077049799       99.13483210463178      116.21712075167510
C          110.65286762574111       98.88058995984539      115.08252643674298
C          111.05202035401533      100.11431363333011      114.27228144219188
C          111.77518410797791      101.17788606189268      115.09398689687775
C          112.24038061057625      102.34097055685007      114.22116048698577
C          113.00534014181619      103.39699878477329      115.01441359386683
C          113.61781991923868      104.46885931917272      114.11449150951778
C          114.57120907283904      105.38553789292968      114.87988672925479
C          115.44501451314434      106.22552480269898      113.95008494040066
C          116.56361718685382      106.93371735371035      114.71027698184217
C          117.50074514117145      107.71345096313856      113.79108516548268
C          118.65676630447727      108.33533936857440      114.56975040336992
C          119.61143895980646      109.13261388429585      113.68554346807467
C          120.80587845685106      109.66052334798825      114.47733430310723
C          121.75882384475790      110.48029710111790      113.61208114206740
C          122.91129653690260      111.07552228875886      114.41748468259726
C          123.89429077557035      111.84054679855429      113.53578732234766
C          125.07543930953437      112.39631914165997      114.32695547271570
C          126.03121934825954      113.18993330365410      113.43869227887831
C          127.26875753734572      113.65232065896487      114.20390116364703
C          128.24887040340323      114.45477870820825      113.34633621228438
C          127.76898612001074      115.87338954520592      113.04627413538020
C          128.81618019481846      116.68135227051978      112.28293264564142
C          128.38647275586402      118.13388443065745      112.08876357072809
C          129.40457527207536      118.92860637400543      111.27330498551211
C          129.14063854198824      120.43513427921286      111.27052512097205
C          127.77910762905016      120.80880270383693      110.68916536989070
C          127.63083374239604      122.31666349414125      110.50031764241936
C          126.26374944762870      122.72146648726456      109.94547746555594
C          125.13482034922762      122.63992990539704      110.97011408499600
C          123.80911278212943      123.12301629235435      110.38581479673172
C          122.69010361358403      123.12154614795796      111.42423292935712
C          121.38256188571532      123.67743226457391      110.86617492076631
C          120.28323466888004      123.72851161175831      111.92453165816045
C          118.96718661748875      124.25392730431830      111.35822237190848
C          117.86103033065498      124.30082039203386      112.40879152489813
C          116.53078123477326      124.75498239488300      111.81292403531609
C          115.40468174950853      124.74400895720156      112.84430907623195
C          114.08654275289241      125.30089573773428      112.30356974958164
C          113.42157147257412      124.44067893666978      111.22783319782069
C          112.78073331630371      123.16221524447481      111.76316961271945
C          112.15000000681539      122.34883022408532      110.63513955119261
C          111.38658376148021      121.12735613419511      111.13638511370981
C          110.81563185008528      120.30014837076335      109.98675007786859
C          109.91563336226561      119.17534296871679      110.48859464544900
C          109.30664729165295      118.35840709441470      109.35258475122514
C          108.26334082059491      117.36892720536474      109.86502256601231
C          107.52901787958466      116.65878107670586      108.73259084266785
C          106.45065956130641      115.70951572718894      109.24833833651974
C          105.62483261458136      115.11596628553869      108.11089903498511
C          104.60378725209998      114.09122650064515      108.59805488080688
C          103.79127695422004      113.51252605746018      107.44299952163503
C          102.80915885899070      112.43433252733695      107.89276779329138
C          102.12780361575075      111.77335081148954      106.69695737236525
C          101.13917852848245      110.67171246240312      107.07771071563691
C          101.77378550733202      109.55298611866576      107.90531568373160
C          100.94758401110376      108.26996107063007      107.85342418780702
C          101.40150416173678      107.22230315404573      108.87311531184656
C          100.75790388201118      107.42971178263780      110.24180089817348
C          101.26303476431180      106.43139467527750      111.28097562233646
C          100.51891826135810      106.56723972080754      112.60726058660622
C          101.12657081969027      105.71445368409134      113.71793511360993
C          100.32808804964064      105.82152342078231      115.01482855474148
C          100.96208621015241      105.03214617745766      116.15584662988206
C          100.09310907078056      105.03124346272372      117.41138458153128
C          100.68575730266438      104.15847008728406      118.51450304084504
C           99.86653821040878      104.15988130447667      119.80599480998772
C           98.43915319458446      103.62619637056446      119.66719568852564
C           98.37617635807581      102.18134640453451      119.17677578984538
C           96.95225588409519      101.62890191186493      119.19431936626978
C           96.91247580089569      100.18109305922506      118.71027049972909
C           95.51797528169054       99.55293213271153      118.73939805024976
C           94.52932445784572      100.13324151126091      117.72615842685258
C           94.89325103837675       99.82571211617763      116.27526505064711
C           93.87061525545865      100.40298184440883      115.29892923060602
C           94.32474097974439      100.27091999535074      113.84720646150404
C           93.32899161642011      100.90386515543712      112.87568796868702
C           93.92000603231594      101.17436172216513      111.49232168299969
C           94.35519336194727       99.91929905602690      110.74009137634725
C           94.87916990694112      100.26959601247233      109.34978905933568
C           95.30226397442871       99.04228815344257      108.54557199251030
C           95.93087903118585       99.44960690923538      107.21590745828027
C           96.36177763419622       98.26046204216020      106.36148790144387
C           97.09145719817694       98.71763448242713      105.10041005961601
C           97.49865945970920       97.55714177738487      104.19700300430881
C           98.34294156321117       98.03000794044998      103.01598271654068
C           98.73482331348031       96.88471205777185      102.08700007789852
C           99.66688666977022       97.34376451984332      100.96864348359813
C          100.03412006002162       96.20082408823073      100.03166401576003
H           99.18511659892430       98.13984687692746      100.39865850835083
H          100.57824978400831       97.75807525193576      101.40699086560278
H           99.22948145863177       96.10269254094774      102.66739305396509
H           97.83281889493696       96.44919892219104      101.65019793355451
H           97.78597027549289       98.77930430076225      102.44909711606073
H           99.24869051140423       98.51160412886743      103.39443770601623
H           98.06839511237752       96.82833252141592      104.77798772946583
H           96.60232652352539       97.05435276974303      103.82668355665935
H           96.44659096612098       99.39714112042572      104.53771472791594
H           97.98530909974686       99.27588588304970      105.39068053502167
H           97.02039909117035       97.61328970871810      106.94536956645796
H           95.48411387003122       97.67230694328816      106.08420999660110
H           95.21411846847580      100.05350814958578      106.65366125681994
H           96.80367871728545      100.07677429107184      107.41615298596945
H           96.02066084848492       98.45740217810759      109.12396439286637
H           94.43258520549659       98.40790430180516      108.36099336440613
H           94.10726877719817      100.81215119885617      108.79778169690502
H           95.73565989694536      100.94124095894165      109.45537460328858
H           95.14268523564519       99.40830942135683      111.29685052963171
H           93.50720179356587       99.23641824579590      110.65026601406606
H           93.17195064117867      101.69742560524089      110.89018104190811
H           94.78171672424760      101.83951493260054      111.59502194320991
H           92.45195939831564      100.26017883943985      112.77907682967997
H           92.98853293269204      101.85561465403752      113.29366757701949
H           95.29483371052872      100.76119437751609      113.73729403246831
H           94.45788630266664       99.21486426330107      113.60557243530521
H           92.91040707234809       99.89901569201305      115.43124506490078
H           93.72018524735836      101.46128117148055      115.52655287021794
H           95.87170084116912      100.25055165609682      116.04439001580333
H           94.96288944884290       98.74419598652003      116.13788798571402
H           93.53964018788380       99.71794375433066      117.93323115813912
H           94.45984642427268      101.21456500216564      117.86039232982409
H           95.61524787639401       98.48008932457384      118.55277628743136
H           95.10195147317819       99.67448773502224      119.74279918981946
H           97.31816105686595      100.12884546118495      117.69944462051907
H           97.56780722515813       99.58613080854872      119.35170138469971
H           96.55206115264525      101.68153779280630      120.20989590502603
H           96.32379041879190      102.25482459956577      118.55830009747775
H           98.75894599683446      102.12159238216157      118.15631813844414
H           99.01371143764766      101.55872298798775      119.80943944676874
H           97.95953603528611      103.68626222673966      120.64776843239542
H           97.86825694409559      104.26570070908781      118.99140107694660
H          100.39470995890278      103.55526964225191      120.54824420515969
H           99.81813163200411      105.18232862707315      120.18980791634341
H          100.78773420515031      103.13514614126512      118.14710941919455
H          101.69167723354744      104.51932992105718      118.74948567969516
H           99.97680770933022      106.05340628401962      117.78058899849438
H           99.10090571807942      104.66130447192955      117.14930687460959
H          101.11806674999217      104.00093503102185      115.83072083947241
H          101.94138136103602      105.45602337006737      116.38765697381173
H          100.24996530541469      106.87205862906393      115.30293331868495
H           99.31479250749052      105.45261574357100      114.84296365539345
H          101.16165718341432      104.66963877983893      113.39877314067846
H          102.15356413430671      106.04145848059287      113.89774526607349
H          100.53035807375139      107.61423449758935      112.92059327677968
H           99.47379897046736      106.28053507123374      112.46106551303501
H          101.13813323471305      105.41428593990169      110.90152562947469
H          102.33113343244939      106.59231056640483      111.44285677143583
H          100.96276013828286      108.44415498346680      110.59036586262519
H           99.67318674257875      107.32932250857122      110.14377814739871
H          101.14056503271017      106.22670020172764      108.51210111216905
H          102.48864011667085      107.25246202444708      108.97133461007225
H           99.89799278721547      108.50860362072579      108.03453973952692
H          101.02050293038567      107.85623786708845      106.84590564065506
H          102.77601705068098      109.34419664252552      107.52242801329454
H          101.87409878772382      109.87760645045340      108.94132888109168
H          100.30314902678045      111.10169707830362      107.63412462499768
H          100.73443776934087      110.24410253144916      106.15631993138125
H          101.59892307295569      112.53917222766052      106.12303472507975
H          102.89546804802590      111.34803388972045      106.04566831943072
H          103.35247701229511      111.68002322026736      108.46466343618351
H          102.05541596481956      112.87285280421827      108.55055046706013
H          103.24177560344206      114.31563246485581      106.94625030345016
H          104.47551196031013      113.08405102617861      106.70567754804256
H          105.12430248291047      113.28130268490921      109.11499344792180
H          103.93054798097697      114.56007539461079      109.31890084486064
H          105.10366014990574      115.92300656951822      107.58837020615034
H          106.29547624779056      114.64093879987016      107.38982054600427
H          106.91739092546580      114.90448174781264      109.82004487317943
H          105.78812190613269      116.25215616642281      109.92694965820587
H          107.06540617122801      117.40769245513059      108.08565316129327
H          108.24527061516719      116.10275377718277      108.12214697245857
H          108.74480387232633      116.63095103956636      110.50969433441453
H          107.53205019676338      117.91036555640605      110.47150127623051
H          108.83793508956538      119.03639463021845      108.63486007651734
H          110.09541695051847      117.82144674407897      108.82000771844524
H          110.48597881892333      118.51465375300805      111.14475165333927
H          109.10722312304516      119.61492637467229      111.07981305786548
H          110.23870295198583      120.95172624123205      109.32589624102005
H          111.63465864595349      119.88103690350071      109.39717306044001
H          112.05213000413889      120.49982565095772      111.73313103520285
H          110.56918962953995      121.45800290583935      111.78314432194666
H          111.46369529030061      122.98945586247729      110.07488146945578
H          112.93381826586504      122.02340661951074      109.94834458402292
H          113.53225086908368      122.55103203547941      112.26579254090983
H          112.01235867607620      123.42410584331020      112.49548295078580
H          112.64280756528288      125.03643924965569      110.74631123129151
H          114.15387980942012      124.18062807099740      110.46191819429026
H          113.38730242731491      125.42443035789664      113.13431780325391
H          114.27837383142942      126.29254649231990      111.88580484740291
H          115.25696233643050      123.72594809959810      113.20732088546204
H          115.70919384760619      125.35168969015987      113.70037798837475
H          116.64224554460647      125.76433976330470      111.40991085473982
H          116.27688105843232      124.09229494129664      110.98387802736818
H          117.74044038623431      123.30701638445350      112.84711725984123
H          118.15219929235805      124.97912988862721      113.21426166038695
H          119.12185142030599      125.25544100329415      110.95053230241619
H          118.65014873538676      123.60945369654924      110.53462805140444
H          120.12664928275761      122.72679935367962      112.33215600830840
H          120.60496639612234      124.37128815755084      112.74748497903434
H          121.55545221839246      124.68361136705889      110.47739557552707
H          121.05259247245408      123.05658113776569      110.02892101128666
H          122.52675292673179      122.10186641702069      111.78218313451413
H          122.99710786969712      123.72502766365959      112.28193494234634
H          123.93561048824778      124.13657216767592      109.99739799342342
H          123.52794385037153      122.48304434375618      109.54568839099983
H          125.01588575754928      121.61313580039187      111.31802024602378
H          125.39095876124104      123.25584936645430      111.83571165521988
H          126.32264489596352      123.75124640270560      109.58390915484473
H          126.02201286926562      122.08727697323431      109.09015942845109
H          127.79712461340948      122.82092008024100      111.45533061243182
H          128.40676327789106      122.65991370821421      109.81075738965227
H          127.65229114686639      120.31344220190965      109.72395353562061
H          126.99613573715628      120.45199516714091      111.35746037096629
H          129.21177126700530      120.81671824483240      112.29211227224073
H          129.92362793527727      120.92325432217577      110.68385214930404
H          130.40198738407005      118.75328613606409      111.68502735402690
H          129.40397760054555      118.56171511152137      110.24498136496912
H          127.41946687340990      118.15220939065851      111.58448332483435
H          128.26173072175746      118.60301001893058      113.06788963457240
H          129.76087774270701      116.65576183528421      112.83187662070686
H          128.98977865663701      116.21997592076863      111.30836849604017
H          126.84860759766357      115.83894042630992      112.46012602296166
H          127.54358660101366      116.38052912372689      113.98796995587065
H          129.20361365293419      114.51887315862757      113.87432244288476
H          128.42729657286935      113.92417105328667      112.40809603470673
H          126.96163122629368      114.25784562106682      115.06034396718660
H          127.78230447914916      112.77018402686808      114.59482629840669
H          126.34512499955147      112.56476726827641      112.59887229436654
H          125.50294683259720      114.05391495131335      113.03027105647381
H          124.70706566374974      113.04114172899125      115.12893942945527
H          125.61817200700722      111.57052247747461      114.79428676038273
H          124.27011012606980      111.17064962031810      112.75845615073894
H          123.37519341472969      112.66391339349225      113.04146067804314
H          122.51172661572437      111.74473180309226      115.18407151184459
H          123.44414496721782      110.27340889982953      114.92987107031207
H          122.16618018138102      109.84539076929846      112.82320462004243
H          121.19784244295504      111.28628543142483      113.13215660754783
H          120.44714255854007      110.27877875543172      115.30283701207745
H          121.34806789442462      108.81482656172153      114.90914391691193
H          119.97104790164120      108.49428203963500      112.87621564262689
H          119.07621586804781      109.97153508754326      113.23372763581312
H          118.25283953566360      108.98868875444948      115.34682172691544
H          119.21676612571883      107.53960577305422      115.06574161920061
H          117.90224855163507      107.04111494927783      113.02937994726210
H          116.93982971826068      108.49487497901009      113.27344252357261
H          116.13450112982049      107.61241025806235      115.45026094623583
H          117.14439842342742      106.18434553792028      115.25487951223330
H          115.89320835629739      105.56637610174431      113.20168841958615
H          114.83226940636003      106.95842233789385      113.41990766241911
H          114.00465434131672      106.03795162556634      115.54793502894746
H          115.22684435788203      104.77072871374617      115.50143935341519
H          114.17347147977449      103.97665938204850      113.31179830980274
H          112.82606060749227      105.06064347353323      113.64984316158616
H          112.34510522144627      103.86276217431181      115.74834408784764
H          113.80886724126009      102.90097235923962      115.56509847950787
H          112.88853018972979      101.95256286188759      113.43219056549979
H          111.37418935217522      102.79891561027004      113.73635482463713
H          111.11405467258352      101.55746211509701      115.87462724265347
[...]
  3011   6 C     3012   6 C                                       1.5303694
  3012   6 C     3013   6 C                                       1.5278837
  3013   6 C     3014   6 C                                       1.5259299
  3014   6 C     3015   6 C                                       1.5257284
  3015   6 C     3016   6 C                                       1.5237697
  3015   6 C     3017   1 H                                       1.0929460
  3015   6 C     3018   1 H                                       1.0923598
  3014   6 C     3019   1 H                                       1.0931864
  3014   6 C     3020   1 H                                       1.0921137
  3013   6 C     3021   1 H                                       1.0926067
  3013   6 C     3022   1 H                                       1.0909675
  3012   6 C     3023   1 H                                       1.0927898
  3012   6 C     3024   1 H                                       1.0928163
  3011   6 C     3025   1 H                                       1.0934153
  3011   6 C     3026   1 H                                       1.0926034
  3010   6 C     3027   1 H                                       1.0915276
  3010   6 C     3028   1 H                                       1.0939266
  3009   6 C     3029   1 H                                       1.0910966
  3009   6 C     3030   1 H                                       1.0920986
  3008   6 C     3031   1 H                                       1.0926350
  3008   6 C     3032   1 H                                       1.0936233
  3007   6 C     3033   1 H                                       1.0928121
  3007   6 C     3034   1 H                                       1.0916335
  3006   6 C     3035   1 H                                       1.0919253
  3006   6 C     3036   1 H                                       1.0935864
  3005   6 C     3037   1 H                                       1.0928765
  3005   6 C     3038   1 H                                       1.0910798
  3004   6 C     3039   1 H                                       1.0933391
  3004   6 C     3040   1 H                                       1.0934843
  3003   6 C     3041   1 H                                       1.0917768
  3003   6 C     3042   1 H                                       1.0919848
  3002   6 C     3043   1 H                                       1.0936303
  3002   6 C     3044   1 H                                       1.0919416
  3001   6 C     3045   1 H                                       1.0922156
  3001   6 C     3046   1 H                                       1.0917255
  3000   6 C     3047   1 H                                       1.0919882
  3000   6 C     3048   1 H                                       1.0920279
  2999   6 C     3049   1 H                                       1.0911920
  2999   6 C     3050   1 H                                       1.0930464
  2998   6 C     3051   1 H                                       1.0932846
  2998   6 C     3052   1 H                                       1.0927751
  2997   6 C     3053   1 H                                       1.0914752
  2997   6 C     3054   1 H                                       1.0912738
  2996   6 C     3055   1 H                                       1.0930148
  2996   6 C     3056   1 H                                       1.0930176
  2995   6 C     3057   1 H                                       1.0926767
  2995   6 C     3058   1 H                                       1.0925085
  2994   6 C     3059   1 H                                       1.0912620
  2994   6 C     3060   1 H                                       1.0916759
  2993   6 C     3061   1 H                                       1.0920438
  2993   6 C     3062   1 H                                       1.0932930
  2992   6 C     3063   1 H                                       1.0933815
  2992   6 C     3064   1 H                                       1.0919791
  2991   6 C     3065   1 H                                       1.0925645
  2991   6 C     3066   1 H                                       1.0930378
  2990   6 C     3067   1 H                                       1.0928107
  2990   6 C     3068   1 H                                       1.0926018
  2989   6 C     3069   1 H                                       1.0918572
  2989   6 C     3070   1 H                                       1.0929610
  2988   6 C     3071   1 H                                       1.0923465
  2988   6 C     3072   1 H                                       1.0913472
  2987   6 C     3073   1 H                                       1.0922519
  2987   6 C     3074   1 H                                       1.0932649
  2986   6 C     3075   1 H                                       1.0927523
  2986   6 C     3076   1 H                                       1.0925688
  2985   6 C     3077   1 H                                       1.0920276
  2985   6 C     3078   1 H                                       1.0913124
  2984   6 C     3079   1 H                                       1.0922702
  2984   6 C     3080   1 H                                       1.0934501
  2983   6 C     3081   1 H                                       1.0931593
  2983   6 C     3082   1 H                                       1.0922829
  2982   6 C     3083   1 H                                       1.0913672
  2982   6 C     3084   1 H                                       1.0918494
  2981   6 C     3085   1 H                                       1.0915622
  2981   6 C     3086   1 H                                       1.0920601
  2980   6 C     3087   1 H                                       1.0931138
  2980   6 C     3088   1 H                                       1.0925470
  2979   6 C     3089   1 H                                       1.0928768
  2979   6 C     3090   1 H                                       1.0925621
  2978   6 C     3091   1 H                                       1.0922415
  2978   6 C     3092   1 H                                       1.0908840
  2977   6 C     3093   1 H                                       1.0933183
  2977   6 C     3094   1 H                                       1.0930654
  2976   6 C     3095   1 H                                       1.0921840
  2976   6 C     3096   1 H                                       1.0920983
  2975   6 C     3097   1 H                                       1.0915941
  2975   6 C     3098   1 H                                       1.0929173
  2974   6 C     3099   1 H                                       1.0918331
  2974   6 C     3100   1 H                                       1.0931986
  2973   6 C     3101   1 H                                       1.0936105
  2973   6 C     3102   1 H                                       1.0926232
  2972   6 C     3103   1 H                                       1.0911571
  2972   6 C     3104   1 H                                       1.0928104
  2971   6 C     3105   1 H                                       1.0912166
  2971   6 C     3106   1 H                                       1.0918597
  2970   6 C     3107   1 H                                       1.0919133
  2970   6 C     3108   1 H                                       1.0906855
  2969   6 C     3109   1 H                                       1.0928529
  2969   6 C     3110   1 H                                       1.0922151
  2968   6 C     3111   1 H                                       1.0940174
  2968   6 C     3112   1 H                                       1.0923335
  2967   6 C     3113   1 H                                       1.0896293
  2967   6 C     3114   1 H                                       1.0921251
  2966   6 C     3115   1 H                                       1.0932649
  2966   6 C     3116   1 H                                       1.0931864
  2965   6 C     3117   1 H                                       1.0923612
  2965   6 C     3118   1 H                                       1.0916756
  2964   6 C     3119   1 H                                       1.0907275
  2964   6 C     3120   1 H                                       1.0920218
  2963   6 C     3121   1 H                                       1.0926809
  2963   6 C     3122   1 H                                       1.0926989
  2962   6 C     3123   1 H                                       1.0927572
  2962   6 C     3124   1 H                                       1.0926196
  2961   6 C     3125   1 H                                       1.0926980
  2961   6 C     3126   1 H                                       1.0912599
  2960   6 C     3127   1 H                                       1.0931890
  2960   6 C     3128   1 H                                       1.0925390
  2959   6 C     3129   1 H                                       1.0926381
  2959   6 C     3130   1 H                                       1.0931602
  2958   6 C     3131   1 H                                       1.0933127
  2958   6 C     3132   1 H                                       1.0924799
  2957   6 C     3133   1 H                                       1.0915270
  2957   6 C     3134   1 H                                       1.0930635
  2956   6 C     3135   1 H                                       1.0936242
  2956   6 C     3136   1 H                                       1.0923843
  2955   6 C     3137   1 H                                       1.0926074
  2955   6 C     3138   1 H                                       1.0933774
  2954   6 C     3139   1 H                                       1.0929310
  2954   6 C     3140   1 H                                       1.0903943
  2953   6 C     3141   1 H                                       1.0904127
  2953   6 C     3142   1 H                                       1.0934129
  2952   6 C     3143   1 H                                       1.0932088
  2952   6 C     3144   1 H                                       1.0929618
  2951   6 C     3145   1 H                                       1.0933792
  2951   6 C     3146   1 H                                       1.0912097
  2950   6 C     3147   1 H                                       1.0898947
  2950   6 C     3148   1 H                                       1.0932351
  2949   6 C     3149   1 H                                       1.0939692
  2949   6 C     3150   1 H                                       1.0932640
  2948   6 C     3151   1 H                                       1.0912469
  2948   6 C     3152   1 H                                       1.0918988
  2947   6 C     3153   1 H                                       1.0913134
  2947   6 C     3154   1 H                                       1.0911616
  2946   6 C     3155   1 H                                       1.0935334
  2946   6 C     3156   1 H                                       1.0917733
  2945   6 C     3157   1 H                                       1.0936706
  2945   6 C     3158   1 H                                       1.0916578
  2944   6 C     3159   1 H                                       1.0920832
  2944   6 C     3160   1 H                                       1.0935556
  2943   6 C     3161   1 H                                       1.0906637
  2943   6 C     3162   1 H                                       1.0934111
  2942   6 C     3163   1 H                                       1.0925288
  2942   6 C     3164   1 H                                       1.0921464
  2941   6 C     3165   1 H                                       1.0910701
  2941   6 C     3166   1 H                                       1.0923629
  2940   6 C     3167   1 H                                       1.0930876
  2940   6 C     3168   1 H                                       1.0908690
  2939   6 C     3169   1 H                                       1.0930831
  2939   6 C     3170   1 H                                       1.0930414
  2938   6 C     3171   1 H                                       1.0917962
  2938   6 C     3172   1 H                                       1.0910297
  2937   6 C     3173   1 H                                       1.0931515
  2937   6 C     3174   1 H                                       1.0930731
  2936   6 C     3175   1 H                                       1.0917348
  2936   6 C     3176   1 H                                       1.0929168
  2935   6 C     3177   1 H                                       1.0931843
  2935   6 C     3178   1 H                                       1.0923825
  2934   6 C     3179   1 H                                       1.0934625
  2934   6 C     3180   1 H                                       1.0930673
  2933   6 C     3181   1 H                                       1.0924103
  2933   6 C     3182   1 H                                       1.0915875
  2932   6 C     3183   1 H                                       1.0935680
  2932   6 C     3184   1 H                                       1.0925708
  2931   6 C     3185   1 H                                       1.0919644
  2931   6 C     3186   1 H                                       1.0928244
  2930   6 C     3187   1 H                                       1.0924534
  2930   6 C     3188   1 H                                       1.0926185
  2929   6 C     3189   1 H                                       1.0920051
  2929   6 C     3190   1 H                                       1.0921978
  2928   6 C     3191   1 H                                       1.0921386
  2928   6 C     3192   1 H                                       1.0926568
  2927   6 C     3193   1 H                                       1.0918614
  2927   6 C     3194   1 H                                       1.0926651
  2926   6 C     3195   1 H                                       1.0923259
  2926   6 C     3196   1 H                                       1.0929105
  2925   6 C     3197   1 H                                       1.0928322
  2925   6 C     3198   1 H                                       1.0919040
  2924   6 C     3199   1 H                                       1.0928770
  2924   6 C     3200   1 H                                       1.0927081
  2923   6 C     3201   1 H                                       1.0920840
  2923   6 C     3202   1 H                                       1.0934633
  2922   6 C     3203   1 H                                       1.0916259
  2922   6 C     3204   1 H                                       1.0925693
  2921   6 C     3205   1 H                                       1.0931324
  2921   6 C     3206   1 H                                       1.0927028
  2920   6 C     3207   1 H                                       1.0919049
  2920   6 C     3208   1 H                                       1.0926913
  2919   6 C     3209   1 H                                       1.0918261
  2919   6 C     3210   1 H                                       1.0917299
  2918   6 C     3211   1 H                                       1.0920095
  2918   6 C     3212   1 H                                       1.0927104
  2917   6 C     3213   1 H                                       1.0915777
  2917   6 C     3214   1 H                                       1.0928885
  2916   6 C     3215   1 H                                       1.0935883
  2916   6 C     3216   1 H                                       1.0930807
  2915   6 C     3217   1 H                                       1.0928487
  2915   6 C     3218   1 H                                       1.0935700
  2914   6 C     3219   1 H                                       1.0912166
  2914   6 C     3220   1 H                                       1.0914720
  2913   6 C     3221   1 H                                       1.0931241
  2913   6 C     3222   1 H                                       1.0925348
  2912   6 C     3223   1 H                                       1.0923693
  2912   6 C     3224   1 H                                       1.0927712
  2911   6 C     3225   1 H                                       1.0924518
  2911   6 C     3226   1 H                                       1.0907124
  2910   6 C     3227   1 H                                       1.0930260
  2910   6 C     3228   1 H                                       1.0920298
  2909   6 C     3229   1 H                                       1.0924792
  2909   6 C     3230   1 H                                       1.0929057
  2908   6 C     3231   1 H                                       1.0924673
  2908   6 C     3232   1 H                                       1.0920305
  2907   6 C     3233   1 H                                       1.0926955
  2907   6 C     3234   1 H                                       1.0927515
  2906   6 C     3235   1 H                                       1.0918375
  2906   6 C     3236   1 H                                       1.0923636
  2905   6 C     3237   1 H                                       1.0927911
  2905   6 C     3238   1 H                                       1.0920221
  2904   6 C     3239   1 H                                       1.0919538
  2904   6 C     3240   1 H                                       1.0926461
  2903   6 C     3241   1 H                                       1.0919279
  2903   6 C     3242   1 H                                       1.0933245
  2902   6 C     3243   1 H                                       1.0928647
  2902   6 C     3244   1 H                                       1.0913450
  2901   6 C     3245   1 H                                       1.0931267
  2901   6 C     3246   1 H                                       1.0923404
  2900   6 C     3247   1 H                                       1.0917912
  2900   6 C     3248   1 H                                       1.0922660
  2899   6 C     3249   1 H                                       1.0929827
  2899   6 C     3250   1 H                                       1.0933521
  2898   6 C     3251   1 H                                       1.0932278
  2898   6 C     3252   1 H                                       1.0925034
  2897   6 C     3253   1 H                                       1.0877458
  2897   6 C     3254   1 H                                       1.0875794
  2897   6 C     3255   1 H                                       1.0867857 (min)
  3016   6 C     3256   1 H                                       1.0883909
  3016   6 C     3257   1 H                                       1.0880489
  3016   6 C     3258   1 H                                       1.0874216

 * 2 distinct bonds (by element types)

   Z      Z             #   av. dist./Å        max./Å        min./Å
   1 H    6 C        2178     1.0922984     1.0946053     1.0867857
   6 C    6 C        1071     1.5274484     1.5375927     1.5226959


optimized geometry written to: xtbopt.xyz


           -------------------------------------------------
          | TOTAL ENERGY            -3427.523485777760 Eh   |
          | GRADIENT NORM               0.000925286276 Eh/α |
          | HOMO-LUMO GAP              11.562293998225 eV   |
           -------------------------------------------------

------------------------------------------------------------------------
 * finished run on 2024/10/04 at 08:35:02.192     
------------------------------------------------------------------------
 total:
 * wall-time:     0 d,  5 h, 40 min, 48.600 sec
 *  cpu-time:     1 d,  6 h,  0 min, 26.032 sec
 * ratio c/w:     5.283 speedup
 SCF:
 * wall-time:     0 d,  0 h, 13 min, 42.466 sec
 *  cpu-time:     0 d,  1 h, 28 min, 31.060 sec
 * ratio c/w:     6.457 speedup
 ANC optimizer:
 * wall-time:     0 d,  5 h, 26 min, 20.600 sec
 *  cpu-time:     1 d,  4 h, 30 min, 53.556 sec
 * ratio c/w:     5.243 speedup

