3864
 energy: -5104.069575456673 gnorm: 0.000970905859 xtb: 6.6.1 (8d0f1dd)
C           52.31850894541110       34.10908050316529       54.39910773257238
C           51.85721159334346       32.98651451899389       55.07507875758358
C           51.37788784733025       33.14371823742560       56.37066924985638
C           51.36765144635966       34.38994855430106       56.97097694228243
C           51.82781233605301       35.50242872495745       56.28629746892889
C           52.30489511011656       35.35727618598531       54.99598008631398
C           51.91111661271148       31.63006034809672       54.41992123797775
C           52.69136313333064       30.64500016249350       55.29655450403177
C           50.51525529164985       31.06758221625071       54.11549184506935
C           49.78640039095023       31.77469797448666       52.95383224346818
C           48.96306276577181       30.76275785769567       52.19388779867126
C           48.01982444291116       29.97356249756906       52.84418962877329
C           47.30262624460628       29.01252973888487       52.15497559454662
C           47.51795295071516       28.82091497704872       50.80067744636847
C           48.45056084219916       29.60262471659572       50.14160971632911
C           49.16624499137537       30.56415533773135       50.83415792595467
C           48.92335860990229       32.94516638716726       53.44786342487441
C           48.23811070171212       33.71691383272932       52.31397535493593
C           49.22380407798305       34.23228932239753       51.29226632926777
C           49.07352689235767       33.91790530066497       49.94762218092114
C           49.91661070627431       34.45854618190700       48.99102588571964
C           50.91619609999825       35.33754232539104       49.36908168750951
C           51.08597674609616       35.64894308146737       50.70781052088685
C           50.25270306650589       35.09294144049450       51.66088602911447
C           47.45207422413338       34.93312293171162       52.84015981587284
C           46.12291934699326       34.65929044954220       53.56355575146285
C           45.53343440926064       35.99125993670628       53.97156534159834
C           45.10207200966405       36.89975884065247       53.00813409139051
C           44.56623910847946       38.12077895017277       53.37293241289635
C           44.45291920166807       38.46012889959042       54.71072697460853
C           44.86961378837063       37.56250703322490       55.67625960206156
C           45.39763018151439       36.33577102644544       55.30841369017894
C           45.08783359943219       33.91433914887840       52.69864509728005
C           44.91328187687788       32.40363385976422       52.94870377770883
C           44.39654003646713       31.82431467430817       51.64782796094713
C           43.04523479307932       31.79743951834195       51.32615663967470
C           42.62210515414321       31.35040342134456       50.08606207387248
C           43.53903859271233       30.92370758613160       49.14170442393053
C           44.88767563649827       30.94234674553886       49.45203615033499
C           45.30717292238722       31.39203606178260       50.68981789068205
C           43.96783705947763       32.09006643296845       54.11878951734778
C           44.50543212052040       32.38319100727548       55.53195536769740
C           43.38831191043852       32.20445190953307       56.53132574135026
C           42.84876275189711       30.95524513046407       56.81338738349194
C           41.82688418470951       30.81734119759828       57.73617705836192
C           41.31311900742747       31.92996339482355       58.38077732020703
C           41.83038532268765       33.18184015790295       58.09642944113907
C           42.86646317725658       33.31258174632697       57.18812351722505
C           45.71563059460235       31.50450153301052       55.86658016656206
C           46.24579337126427       31.67509247224994       57.29917100893355
C           46.64379552192596       33.10365936998951       57.58123022080741
C           45.90654170767480       33.86577287312168       58.48118859150718
C           46.25812499766720       35.17433374004885       58.76495971489270
C           47.35587234823383       35.74989162243280       58.14861557663338
C           48.09147913458273       35.00818989908613       57.23990341479529
C           47.74307991568725       33.69618512142544       56.96830418469063
C           47.41382974770870       30.69571331302057       57.50274798660455
C           48.12943619040644       30.85370929197234       58.85062361346967
C           49.48337027513616       30.18821806539917       58.81637713680339
C           50.62274150511130       30.90350954037165       59.16264201336203
C           51.87202502041758       30.30766404370966       59.14343327259421
C           52.00139463428348       28.98193114275068       58.76913421543391
C           50.87301697667184       28.25782320402496       58.42182940394754
C           49.62601187325880       28.85531554572469       58.44831089375542
C           47.29979393165821       30.30454492156430       60.02113265057846
C           47.78379927508977       30.88598938959311       61.35964701433133
C           47.43636601095044       29.97388727328270       62.50757514624363
C           46.11465057859584       29.71925771901437       62.85355407917743
C           45.80789513620788       28.88330188927955       63.91133228408675
C           46.81970885783340       28.28075929584904       64.63891290579265
C           48.13994777715167       28.51990049131431       64.29848891047199
C           48.44336525040165       29.35980691207339       63.24150017406663
C           47.20012636866504       32.28891100921170       61.57584041586122
C           47.88624498350432       33.02468004022727       62.72981866829478
C           49.37582109166576       33.12377474973263       62.50065613886377
C           49.89384023066005       33.73820001993060       61.36496125129607
C           51.26167894325684       33.84153926569488       61.17902649011536
C           52.13589380637038       33.33534657040555       62.12445481128719
C           51.63236916888491       32.72109912344936       63.25720548255379
C           50.26457392472888       32.61832826361482       63.44092739177607
C           47.32342937057106       34.43922656325829       62.94325629923467
C           45.84206344747547       34.48522340259674       63.37047811064929
C           45.64655422166742       35.50855852602684       64.46162693127046
C           46.05998121186766       36.82341010266868       64.27363269634633
C           45.85898568105812       37.77555567273733       65.25598467650840
C           45.24104065577119       37.42843456512217       66.44577908996381
C           44.84058008388329       36.11976994221527       66.65015660894018
C           45.04540791238669       35.16808691724459       65.66550265348702
C           44.93193928246092       34.83574839220033       62.18187238180470
C           43.44041491663656       34.71381026480979       62.51816257087216
C           43.07125045741273       33.28470075517141       62.83996758868125
C           42.56303856061376       32.95084726511907       64.08851890427161
C           42.20131021728730       31.64869198635432       64.38709380301815
C           42.32739715673360       30.65680903931041       63.43088438933411
C           42.82189223791984       30.97733885329417       62.17800550136302
C           43.19645023933634       32.27701192404852       61.88931654936597
C           42.53633393105004       35.18752547296538       61.36722272757116
C           42.73084224899006       36.63414564308519       60.88626074202122
C           41.83003215584295       36.84432034749837       59.69292709635802
C           40.45072811698922       36.94947350580156       59.82795122401971
C           39.64417506383159       37.10545994889785       58.71459927386393
C           40.20181569951340       37.16352859776918       57.44843290385118
C           41.57489186608770       37.06400511981140       57.30041880996257
C           42.37614006615358       36.89563856863148       58.41612423798271
C           42.48469866359622       37.66705859372068       61.99069362796334
C           42.62117686302175       39.10768348086733       61.47116433295731
C           43.97863252151436       39.30468647276328       60.84511869525431
C           45.13227466224492       39.22501624684617       61.61838208066789
C           46.38091257068253       39.36986628725796       61.04155717446594
C           46.48980128858457       39.61600640659140       59.68323312521630
C           45.35142724763546       39.71830488217316       58.90497977744070
C           44.10524142252758       39.55445026613758       59.48454051842529
C           42.36720738523228       40.13363319493788       62.59724032292408
C           41.04046530848797       40.88120063447084       62.41170581307728
C           39.86846274915071       39.93168650224686       62.38226540191136
C           39.61293311981041       39.06428396851967       63.43872775947094
C           38.53073345773642       38.20366398848014       63.40235448226575
C           37.67699669112824       38.20272062001024       62.31168434220000
C           37.91244013294107       39.07246576932948       61.26186821150804
C           39.00037021111660       39.92710816284443       61.29819233604124
C           40.81725960394414       41.92793840121272       63.51850700124744
C           41.72315152297352       43.16985706337558       63.40046280594225
C           42.35471138726979       43.51910882720195       64.72608094460672
C           43.73372391018705       43.63958963377446       64.83653648310479
C           44.32752091294036       43.98026663441579       66.03907302194472
C           43.54267230848349       44.20341389680340       67.15601488329243
C           42.16567946126983       44.08752131267429       67.05975810472707
C           41.57670489206103       43.74990223779731       65.85480280059697
C           40.96850613773070       44.40063886153833       62.86583466809621
C           40.60417893180361       44.31444300169144       61.37335871920445
C           39.61198856063515       45.39871931379302       61.02990898027855
C           38.28370650627701       45.06654945627328       60.79014992318101
C           37.35224606544366       46.03955410268605       60.47454939557490
C           37.73455643428790       47.36727866542143       60.39209373110040
C           39.05387176074451       47.71126443677060       60.63188970797493
C           39.98258197025579       46.73614184152151       60.95150095625811
C           41.86338203605084       44.39464961741634       60.50259986768737
C           41.57115064075143       44.43577792761032       58.99674049278036
C           40.77008869962524       43.23351288420015       58.56319649766688
C           41.30145649939382       41.94935973580386       58.61827779933316
C           40.56479161290329       40.85858086048175       58.19068723027286
C           39.27853062421062       41.03163459195176       57.70726309456649
C           38.73222232271952       42.30235591286298       57.66305146258446
C           39.47443620648002       43.39102849360345       58.08676412773045
C           42.90162248797063       44.52284719766868       58.23808567609330
C           42.72370650213701       44.60002024478094       56.71477549139177
H           52.44761845911022       31.73158030510582       53.46918827139146
H           50.63711660648200       30.01367469615994       53.85206362648847
H           49.90749381684748       31.10671477821331       55.02187372861216
H           50.53782647147903       32.17986499691195       52.26731878111217
H           48.15011924306562       32.55620437577164       54.11176280655990
H           49.55158464335582       33.62510861079908       54.02593235387110
H           47.54700927071976       33.04142828108157       51.80215300650110
H           48.09331114228402       35.48542833281848       53.53092806593069
H           47.24655291324121       35.59068019337819       51.99248012620544
H           46.34727864949841       34.08739792562781       54.46441727354981
H           45.36168374525247       34.05429518477590       51.64968600543393
H           45.89004986499919       31.95156098444026       53.13908924468118
H           43.05008507722065       32.67020127379529       53.99878283352622
H           43.69980328469313       31.03151605257600       54.06237989127415
H           44.80415232104098       33.43236255946078       55.57764121547864
H           45.45370004410243       30.45465371818722       55.71664130462646
H           46.52178435182562       31.74112273539452       55.17130546481621
H           45.43837986195670       31.40881151876840       57.98935021488386
H           47.03294616211097       29.67750411763375       57.40295782229708
H           48.14860535671522       30.84864149781757       56.70765925187621
H           48.29115088542582       31.92389128544249       59.01231921509176
H           48.87560624298686       30.96271161893706       61.31303908827832
H           47.30495688825400       32.87275753127003       60.65975595551672
H           46.13598815622175       32.19788238625035       61.79445280906589
H           47.71875785655195       32.44753722648002       63.64678628519108
H           47.92427147215745       34.91077650879708       63.72577705458013
H           47.45860044536475       35.02144947946517       62.02927234604059
H           45.55237798413025       33.50344264713554       63.75985043705119
H           45.14862436097413       35.86359699011548       61.88714724346268
H           45.16711919027158       34.18582896197709       61.34053750846564
H           43.23694766131246       35.32676211291011       63.40208783298621
H           42.69688248504556       34.53344071005046       60.50739167250088
H           41.49711791976508       35.06108678554001       61.68273557510638
H           43.76229906708071       36.75272596871323       60.53976588865407
H           41.48587204558320       37.53515559043903       62.40900922320256
H           43.20947636564765       37.50716110194162       62.79164771370385
H           41.86444956293453       39.25285333737376       60.69331462997513
H           42.37477595510122       39.63207047884254       63.56623445583481
H           43.17884726954807       40.86401687918551       62.61220383020993
H           41.07844801723013       41.39450715722623       61.44498849926755
H           39.76984544359840       42.23794257245039       63.49289500069357
H           40.98833245018081       41.44734634545155       64.48418868916626
H           42.53717726817528       42.94555712677793       62.70695307917463
H           40.05354551722155       44.53772380917674       63.44739669003189
H           41.58785470047430       45.28840312152444       63.02272928861422
H           40.11431861197176       43.35309102389564       61.19105885355346
H           42.43587087394038       45.28510948879434       60.77271490391642
H           42.49398011325638       43.52709868416569       60.70585618174099
H           52.68915886386709       34.00659340957905       53.38971536008906
H           52.67261864196478       36.21605797668413       54.45467637799200
H           51.81213810647458       36.47906948652911       56.74690325777711
H           50.99375992150870       34.48916163911049       57.98031364155440
H           51.01607634864774       32.28789721108173       56.92161829057149
H           47.85384815210453       30.09780724109202       53.90435972399149
H           46.57447837970387       28.40859682864887       52.67652503383419
H           46.96001718349441       28.06762841683046       50.26464419357541
H           48.62880741062452       29.46466238999043       49.08523769202305
H           49.89571396221483       31.16699358136351       50.31158864318633
H           48.28740321394540       33.23972167901022       49.64164766856332
H           49.78167652925003       34.19419258331153       47.95193504830801
H           51.56312743156482       35.78100906074610       48.62606249128500
H           51.86857268616840       36.33063196681198       51.00800924616601
H           50.40309667277108       35.33599315025468       52.70190100061709
H           45.18139082357678       36.65334994346421       51.95977967453032
H           44.23667027825077       38.81449013711622       52.61362243947742
H           44.04369190786582       39.41820503126683       54.99171918445084
H           44.79172068937397       37.81690118157290       56.72274001375266
H           45.72044129156670       35.64566673429618       56.07292585680824
H           44.10906420290986       34.37960149388294       52.84211121519639
H           42.30915549293004       32.13444050501997       52.03862962588149
H           41.56578579257479       31.33811994696767       49.85799094417664
H           43.20668543391987       30.57836978209169       48.17306342044978
H           45.62013322881312       30.60610815893358       48.73284327812695
H           46.36333466262056       31.40231197329409       50.91373961093735
H           43.22989775368546       30.07727572469594       56.31241227571869
H           41.42580592591548       29.83689517664033       57.95022221271199
H           40.51467085593565       31.82271356639310       59.10021279572609
H           41.42458761531458       34.06008025655695       58.57848254551666
H           43.27886535134046       34.29161411838032       56.98674575301562
H           45.04118811866978       33.42734333754309       58.95846537704234
H           45.67256754372653       35.75130208938683       59.46521780987531
H           47.62697689986508       36.77179642386564       58.36850166618238
H           48.93511585131358       35.45385520550495       56.73355917528296
H           48.34850876846397       33.13245759330949       56.27623673810772
H           50.53221947290010       31.93847355253326       59.45927762852793
H           52.74348976039006       30.88381225553783       59.41860160250270
H           52.97468383355177       28.51434186672366       58.74767379010434
H           50.96564986125430       27.22170319388295       58.13006479131515
H           48.75564118424658       28.27486738858318       58.17942655904128
H           46.24641209027144       30.55143600806615       59.88100818879509
H           47.38705335265264       29.21603182645023       60.04443035299628
H           45.31144334798714       30.17839599595096       62.29711903242612
H           44.77366688455091       28.70471535083004       64.16806644576553
H           46.58107724502700       27.62764648612681       65.46554096964371
H           48.93624936036210       28.05156418673203       64.85901711679503
H           49.47636379014803       29.54482712614850       62.98018875835579
H           49.22348354216594       34.14183545175489       60.61784991858431
H           51.65493891275059       34.31947993572746       60.29276067052360
H           53.20243025589877       33.42081824430114       61.97889193487944
H           52.30621878642312       32.32099801608501       64.00081842272712
H           49.87739634667799       32.13559133938818       64.32736652750565
H           46.55224690663637       37.10219343922986       63.35326162813915
H           46.18824382427923       38.79273110112837       65.09588443013574
H           45.07950015369047       38.17317215844864       67.21137415993053
H           44.36857976201818       35.83797164870207       67.58040024994833
H           44.73773592797418       34.14554561297253       65.83361255280667
H           42.44430560632094       33.72360729200749       64.83521503916965
H           41.81221591844198       31.40991594702678       65.36641444663967
H           42.03477019257996       29.64195704387202       63.65687319810162
H           42.90769425618020       30.21295723068671       61.41813602470349
H           43.57633121172337       32.50406154058702       60.90325802688453
H           39.99651781515002       36.91267737368512       60.80680916568914
H           38.57404248607671       37.18186607529528       58.83990066310663
H           39.57095267252626       37.28117820147210       56.57967190800822
H           42.02352046292558       37.12303481309631       56.31875483957714
H           43.44626118441408       36.80257719682907       58.29559465981256
H           45.04851042327851       39.04208461045573       62.67949386158668
H           47.27243342509563       39.29043567926559       61.64963348626818
H           47.46184922438184       39.73181871422052       59.23054054912741
H           45.43461404332820       39.92145138408345       57.84599683714833
H           43.22055676257139       39.60794065595253       58.86753033965648
H           40.26370485883826       39.05843351592127       64.30119443525622
H           38.35167822009391       37.53062505429342       64.22880306009914
H           36.83270976330991       37.52936116251148       62.28418759300349
H           37.24810939158285       39.08805276263443       60.41005536067433
H           39.17730738217283       40.59761860147535       60.46899990611539
H           44.35477853937520       43.47486363520913       63.96764440726827
H           45.40173257441280       44.07948976798386       66.09584956688992
H           44.00040387791558       44.46935412875251       68.09754049125492
H           41.54682311591944       44.26353050861871       67.92793918949262
H           40.50178928478103       43.66370208572038       65.79031321373674
H           37.97790364736713       44.03054514790530       60.84540084026267
H           36.32495802858783       45.76226312412054       60.28753696831444
H           37.00042245173687       48.12075005985948       60.14569268123249
H           39.36685642175857       48.74438286113556       60.57156176859804
H           41.00675297533009       47.02533927903835       61.13639919525829
H           39.04086813361772       44.38011099806830       58.05358437920567
H           37.72527342713231       42.44771088721914       57.29835024142407
H           38.70685267267812       40.17733231969963       57.37582612056066
H           40.98552441142889       39.86349426350817       58.23591991153575
H           42.30254457777871       41.79606240358522       58.99471018158312
H           53.65775913611458       31.06512783381068       55.56738380330833
H           52.14861079266234       30.41605383833460       56.21055684659929
H           52.85872502870342       29.71418541437201       54.75886267964726
H           40.98691821818775       45.33640378798690       58.77768063117797
H           43.43860003919989       45.41267296252375       58.57473779892822
H           43.51152304547311       43.65471876069830       58.48819887224950
C           43.99886412004403       44.15902768261848       55.98239598420402
C           42.29168660071568       45.99544086452772       56.33597786762373
C           40.95611409037872       46.25992649685663       56.05220974898491
C           40.52881366983699       47.54258783221531       55.75814025046949
C           41.43729990705774       48.58689088920374       55.74668100650874
C           42.77220329358463       48.33780407011871       56.01672052543439
C           43.19427610770052       47.05284144808250       56.30868319868406
H           40.23989858775202       45.45063735214127       56.05958650963036
H           39.48560641125093       47.72386341519515       55.54149758804228
H           41.10180530393796       49.59109830410203       55.53376098147861
H           43.49038296296042       49.14519341068556       56.01049854469055
H           44.23886477133601       46.87734832650641       56.52081319685884
C           44.24568257313965       42.65061782307279       56.10436231257217
H           43.89843767599754       44.40693766447943       54.92504454673213
H           44.87126088349763       44.68980872026638       56.36632975867092
C           45.22869278324868       42.16922971257593       55.07529199402843
C           46.54579563157950       41.89582933539197       55.41488479485601
C           47.43058241323738       41.41379070945203       54.46726986491894
C           47.01022110151016       41.20279055339656       53.16738285019900
C           45.70751024406298       41.50099633824682       52.80944578546944
C           44.82618674428437       41.98302471339500       53.75834897838983
H           46.87631122852181       42.06041986713659       56.43135738522353
H           48.44980628844925       41.18831993308361       54.74195244377590
H           47.70111104969394       40.80987955507636       52.43734271213003
H           45.37522399554410       41.34849307037182       51.79235135559184
H           43.80514725486934       42.20532161338105       53.48050739778308
H           41.92309518499433       43.90708668202118       56.42990163193081
H           44.62193075022853       42.41195793984348       57.10088884711367
H           43.29478418097681       42.12664659814870       55.96838459179434
C           44.02134687381607       41.52272529780537       31.50202474154321
C           44.43534923819561       40.40879642839566       30.78209972137594
C           45.66259958779602       40.46174611663534       30.13112945678913
C           46.44628968272656       41.59970978930739       30.19033149300639
C           46.02517915710444       42.70081835557151       30.91574409179375
C           44.81098436784688       42.65637474748522       31.57810297979163
C           43.56062687304826       39.18210939467436       30.70180378262450
C           43.14377028496698       38.91512316386282       29.25365981864908
C           44.26439989286202       37.95543256628802       31.29666884156993
C           44.55215886430546       38.12301292317785       32.79434784774264
C           43.26246286494219       38.22815131420705       33.57185688567175
C           42.39437861098840       37.14616361908986       33.66656810248967
C           41.21731545809828       37.24040534438632       34.38576226906014
C           40.88393464391639       38.42338766193157       35.02325681374242
C           41.73611449865684       39.50941352549504       34.93040685984536
C           42.91558814379061       39.41092614607908       34.21290234396466
C           45.39535621639529       36.95417647174030       33.33184214000521
C           46.90710409768979       37.06815004526833       33.06809155307125
C           47.54545036721129       35.72746536368717       33.33744164214062
C           48.16956220100985       35.02251793766346       32.31737793159661
C           48.75909543754966       33.79349944833010       32.56015349820904
C           48.72506997614674       33.24487860247391       33.82972929543647
C           48.09081750243119       33.93194004328756       34.84994431251847
C           47.50830721968516       35.16166387067322       34.60697684172321
C           47.54201352377159       38.16565414492182       33.93170713185002
C           49.07587621090972       38.20415861822376       33.84950184940110
C           49.56586512631010       38.45798014330760       32.44703146969595
C           50.36716253243880       37.51676730700772       31.81308653963617
C           50.87560304686105       37.75258842735228       30.54839445399909
C           50.60039212430351       38.94437270843365       29.90119167862676
C           49.80122952741329       39.88769779855665       30.52233395593770
C           49.28078929446853       39.64386360340303       31.77982007980313
C           49.60421665075906       39.28244573250058       34.80674353395202
C           51.11898373614235       39.51002245256634       34.70803207828649
C           51.90277446362288       38.27701464822383       35.06989417555302
C           52.81516950934116       37.74486922472345       34.16784095123435
C           53.54974484439939       36.61622574933911       34.48530050830013
C           53.38092395261486       36.00037914095958       35.71329954971948
C           52.47411600332342       36.52242442086671       36.61994261637371
C           51.74386417910409       37.65287701264179       36.30168244748943
C           51.50733846229288       40.70044483015580       35.59552118389745
C           52.88402961524341       41.30974206506902       35.29690032362559
C           53.07899643452888       41.54020762646991       33.82049247740724
C           52.15467691206651       42.26108851644381       33.07249253344856
C           52.32731253078060       42.43308005859307       31.71222432648464
C           53.43457982715845       41.90118413122141       31.07589050506806
C           54.36823794396673       41.19319044783115       31.81162369376055
C           54.18675282311976       41.01131272271339       33.17105262755157
C           52.99604202244188       42.63045190045193       36.07410489611633
C           54.38980123140699       43.25947862263566       36.00463823716570
C           55.42471052900301       42.40451497445666       36.69325121033150
C           56.55340489171650       41.97505551110486       36.00770753284898
C           57.53328715140371       41.23412259192040       36.64603701442291
C           57.40168266699631       40.91486922973223       37.98628494857908
C           56.28144005890029       41.33746606038078       38.68145223748209
C           55.30409961935030       42.07429996287669       38.03856766560847
C           54.40801940641056       44.65281862864114       36.65705642430241
C           53.62368969786005       45.72730353650394       35.89186641641844
C           54.02152646303333       45.74437750234188       34.43654381643817
C           55.34838291822155       45.92049436439675       34.05819760068452
C           55.71089175810422       45.91221084753872       32.72429407666757