3864
 energy: -5104.218364456660 gnorm: 0.000741903652 xtb: 6.6.1 (8d0f1dd)
C           45.61706136743764       56.64788221021774       40.28956619452306
C           46.31870930821687       55.76140818018464       39.48528728420072
C           46.12974940000539       55.82182089986805       38.10950634979793
C           45.26460028507662       56.74694108183090       37.55271828567412
C           44.56554895717294       57.62100522433273       38.36868340559919
C           44.74416324664167       57.56861759155306       39.73955431428069
C           47.27713606129932       54.77800761122848       40.10401432937293
C           46.90061621987272       53.34822388164255       39.71579647786671
C           48.71822928080606       55.11973582903108       39.69051510210191
C           49.77006534985453       54.66989501867680       40.72120767722226
C           51.07561594209128       54.39279823048619       40.02184070842404
C           51.73232342186083       55.39648763223779       39.31926107778155
C           52.93657314528973       55.14376106039931       38.68888488622500
C           53.50245418371759       53.88078690810567       38.74137619985257
C           52.84925176147667       52.86943241203035       39.42398098648632
C           51.64482638523539       53.12605462734422       40.05534044194677
C           49.93960218916766       55.73511411052110       41.81893498929720
C           51.08094828755489       55.39549555358045       42.79042528549525
C           50.76667160552914       54.12881619124816       43.55407304246040
C           49.70021051451868       54.07934171778931       44.44694700723562
C           49.41537554859136       52.92467036686325       45.15091328221242
C           50.18326501428537       51.78905412530926       44.96154633311411
C           51.24666532469475       51.82034103665755       44.07776515305839
C           51.53758332587707       52.98607296711101       43.38914239765549
C           51.41610084966381       56.50041463929990       43.81403217579099
C           51.34063417445816       57.96201937096009       43.34918424164285
C           51.63846098775985       58.86030446583409       44.52769657566643
C           52.85457161155095       58.76410840478557       45.19431404680026
C           53.14559198689310       59.57608461251335       46.27400799119555
C           52.22372957928106       60.51671945368020       46.70174440102989
C           51.00689186414207       60.62180490489968       46.05238159371694
C           50.72045163304929       59.79960214231045       44.97624973409034
C           52.27646720663498       58.32280377699964       42.18557364788569
C           51.80875409728317       59.63766385458105       41.51676923985634
C           51.26183065709422       59.34706467672117       40.14227682862315
C           52.10393150977384       58.99744662290358       39.09228496423530
C           51.59436722868730       58.70492604555172       37.84019733158591
C           50.22743528166547       58.73464554851667       37.62168896410771
C           49.37488157629899       59.05850160391103       38.66314137217921
C           49.89203380140814       59.36825024967786       39.90953595670036
C           52.89967503134008       60.71550664765576       41.49367974970278
C           52.31768828144585       62.06204257076350       41.04851510853196
C           51.30095043482999       62.57482477051813       42.03629014113600
C           51.66341684781911       62.85575573664050       43.34851680461088
C           50.74166491560128       63.37640566786110       44.23692402775013
C           49.44288111080498       63.62965394594161       43.82718962247635
C           49.07418951252972       63.36228715546824       42.52127192523596
C           49.99677303939973       62.83370740490658       41.63591900140454
C           53.39950952405250       63.14105199227674       40.86485835253563
C           54.09573347622808       63.10822294166945       39.49426487865847
C           55.31908954127709       63.98947192470015       39.52994834727457
C           56.57879281045802       63.47183915101196       39.25849117157232
C           57.70328352593734       64.27833057116095       39.28986813320362
C           57.58824149373551       65.62015501760101       39.60552644469463
C           56.33940703241379       66.14723248888289       39.89015772972317
C           55.21811277828142       65.33963939520139       39.84977509822283
C           53.13468073957606       63.55041074723214       38.37995738645343
C           53.58145301791017       63.15473471555200       36.96227560152994
C           52.60988752743173       63.75032911577789       35.97513641180466
C           52.99504342960789       64.77710091970738       35.12487572162359
C           52.09451259572475       65.33700718332921       34.23472555461752
C           50.78962009760631       64.87895672215168       34.18603570618660
C           50.39330975892268       63.85349697506921       35.02805555206027
C           51.29708677427911       63.29472130510155       35.91180412433872
C           53.68222488568512       61.62533593116186       36.79466367680330
C           55.12007550795131       61.15856883198082       36.51222821172179
C           55.46467952008249       61.41118816981934       35.06747177850040
C           54.87475486900869       60.67570846103637       34.04505506394300
C           55.19200050046162       60.91934956615056       32.72196423216397
C           56.09948094258397       61.91228028284535       32.39394416261517
C           56.68579961940244       62.65850354655812       33.40116390329062
C           56.37080612785983       62.40637960141498       34.72499060687524
C           55.29282445613882       59.68535839302844       36.89131873758565
C           56.71854166448519       59.16626091110984       36.65922520980924
C           57.69719854958846       59.83134254895211       37.59098592454623
C           58.62672978629398       60.73972685345527       37.10199950175494
C           59.53387319084091       61.35330060801254       37.94772876641613
C           59.53037754195177       61.05924061306229       39.29967350990596
C           58.61449851486748       60.14929348375183       39.79627478570109
C           57.70314853892149       59.54598858641827       38.95104579569514
C           56.74310975643977       57.63835698695881       36.82263877178538
C           56.34976610652694       56.93511302449533       35.51405744724413
C           57.52076142802935       56.96546909401944       34.56861906000915
C           57.47337728680816       57.73983968214179       33.41583428802630
C           58.57367871954875       57.84291458772670       32.58256813223885
C           59.74842960941341       57.18228674977519       32.89799308898725
C           59.80687985021835       56.40486817729536       34.04304948481885
C           58.69966319376647       56.29000345511849       34.86419701567224
C           55.82920784970471       55.51950592095950       35.78625240498716
C           55.15847416624916       54.86380584906851       34.56695867272010
C           54.24546319050881       55.83997171252064       33.86922102964485
C           54.49689934875779       56.22096174256348       32.55763026937876
C           53.69673317440268       57.15479717548287       31.92189411931054
C           52.63074955334628       57.72737384740045       32.59343332300983
C           52.36206672323832       57.34752215976322       33.89772708829104
C           53.15905606979464       56.40936958958121       34.52642719093039
C           54.37754408741355       53.62346924705779       35.02204283036046
C           53.76207681961706       52.84713205635282       33.84987330622791
C           54.81282202490841       52.03603274860607       33.13647871276108
C           55.42208012265709       50.94957861060675       33.75651278614655
C           56.36531951795541       50.19260309247497       33.08612840463386
C           56.72530977320039       50.51306099128023       31.78798455732714
C           56.12948586836080       51.59360219598682       31.16257598288724
C           55.18200084341687       52.34609616420408       31.83414151385394
C           52.61869328786569       51.94396538360345       34.34335266969358
C           51.26464432513357       52.67253809686459       34.45208055347584
C           50.40056981033577       51.92385775842040       35.43724104860232
C           49.75582262737659       50.73936815010800       35.09560537299144
C           48.97132734830750       50.06943377327202       36.01794346019599
C           48.84171167143266       50.55445651781598       37.30860131164820
C           49.50362647586118       51.71459792888697       37.66728571293973
C           50.26980591740932       52.39562845307566       36.73753032574611
C           50.61644066916454       52.81390208124078       33.06698655836584
C           49.15150727170435       53.27746479380821       33.09612863580274
C           49.03537624074334       54.71627279282016       33.53914589947669
C           48.63129580277699       55.02158302874764       34.83324712104471
C           48.45528665519604       56.33419913971861       35.23572960829056
C           48.66393012926114       57.36723245349043       34.33794382122708
C           49.09236681758701       57.07937146850325       33.05375316254169
C           49.29012378842885       55.76705681027261       32.66467165270728
C           48.49726699050895       53.10333970019906       31.71638009752435
C           48.18042656158836       51.65483028429829       31.30620452515888
C           47.90968246895249       51.65471881085045       29.82188008178946
C           48.80825788067769       51.06630952835810       28.94176266707384
C           48.57617810061680       51.07358616134809       27.57713542510513
C           47.43712964286447       51.67360647885560       27.06967801298044
C           46.53889658721029       52.27423758488467       27.93640415773355
C           46.77691197462626       52.26817510062781       29.29841228497090
C           47.00944774624368       51.05778161879117       32.10381382010141
C           46.49527848803279       49.75739495541333       31.46804230835903
C           47.61634517721667       48.77197026476838       31.23715135895283
C           47.83545755416795       48.23073036701953       29.97747587333129
C           48.85421224661290       47.31800441288595       29.76254958015152
C           49.67206794863651       46.92915575603441       30.80888862018373
C           49.45741007357081       47.45407726236711       32.07222275533805
C           48.43638632577643       48.36199483357928       32.28257349215628
C           45.41473177440540       49.04317178848977       32.29786707534486
C           44.24573572264859       49.89464813275241       32.82200522044004
C           43.30722770026118       48.96275960705180       33.55578432816713
C           43.11221610197482       49.07908968977536       34.92510130457556
C           42.30651594127367       48.18449015238995       35.60793695624375
C           41.67925816636187       47.15624030040064       34.92796188194733
C           41.84820839413657       47.03911647348198       33.55907350033233
C           42.65460540562343       47.93527227500882       32.88182638419492
C           43.48822847481199       50.68950609441005       31.74848557062099
C           42.72132916896362       51.86643886071992       32.38002783113257
H           47.19297908948156       54.87364640033257       41.19190131674539
H           48.92922234587871       54.64865615667512       38.72747055282652
H           48.80435753164177       56.20017087826530       39.54732487352945
H           49.43425267376714       53.73834742021748       41.18962705550774
H           50.14702626530975       56.68997286477580       41.33582650381111
H           48.99881255160162       55.83587748118290       42.36152406785846
H           51.97585401193667       55.21555703713643       42.18424873588429
H           50.73589684617565       56.41739960947237       44.66576755456661
H           52.41939064761643       56.28906403860041       44.18863253353022
H           50.31292325849795       58.15219087574500       43.02464462619872
H           52.28265221264749       57.51673632470354       41.45073297023252
H           50.99373648632187       60.05309086776712       42.11914045489458
H           53.31396870763984       60.81801739879394       42.49710866847984
H           53.71508754567452       60.43290397991069       40.82694203827575
H           51.80451932373663       61.90273349005591       40.09478072822286
H           52.93746548852766       64.12251465626251       41.00010339226882
H           54.15668968026235       63.02582057736165       41.64390148050330
H           54.42300708524400       62.08367930313987       39.30238394768526
H           52.14907406985621       63.11895125419905       38.55728864740069
H           53.02469102406642       64.63741144783229       38.41624048981244
H           54.56481980323939       63.60098026868793       36.78150994473004
H           55.80694442665043       61.74478829347626       37.13026879534812
H           55.04789020380799       59.57014365478470       37.94895880255761
H           54.59462343503964       59.07677556288763       36.31552874668299
H           57.01593975512706       59.40823825844478       35.63282704416164
H           57.74207239237096       57.32432466759174       37.12046237018746
H           56.05222422312506       57.34849849482939       37.61592355994573
H           55.53688351586402       57.50692041378640       35.05617278599107
H           56.64445993427585       54.88169384161979       36.12825700812029
H           55.09367662201716       55.58261330111402       36.58953483780211
H           55.93644425351849       54.55309216277503       33.85959340805736
H           55.04566958592573       52.96373477040895       35.57916564684971
H           53.57792168051328       53.93556555081647       35.69566394681833
H           53.35068526353016       53.56982831769607       33.13794060056582
H           52.50781115346763       51.09412990593599       33.66517983707304
H           52.88496503317369       51.54280897461123       35.32306084523896
H           51.43636345878301       53.67791567652415       34.85204642349377
H           51.19825435869612       53.52523903865172       32.47540205794763
H           50.66811467646852       51.85247839067245       32.55256566149075
H           48.60421681050803       52.66251422695488       33.81581123279908
H           47.56840205779288       53.67821217038489       31.69803085100877
H           49.16075385325195       53.52122875311479       30.95450646852383
H           49.06367217021268       51.03076492837145       31.47504848172114
H           47.33426665162728       50.86721822535246       33.12712184192479
H           46.19615720169423       51.78246077345413       32.14718779815344
H           46.06841308282269       50.00553450012433       30.49085536215574
H           45.02558105381841       48.22735780967695       31.68372778000665
H           45.88897218142789       48.58581096495671       33.17020804618056
H           45.75303964968349       56.62195132612003       41.36022955082832
H           44.20702658391444       58.24586234120591       40.38844803294272
H           43.88169678670268       58.33971907488713       37.93753022133694
H           45.13325168808645       56.78525676237350       36.48055353512613
H           46.66235003470351       55.13890115042395       37.46408714498818
H           51.30002668059340       56.38393632288545       39.26155980595111
H           53.43496126870727       55.94388438044626       38.15886681684582
H           54.44470143640497       53.68664468454860       38.24986578366090
H           53.27931390476795       51.87906740221455       39.46995289264130
H           51.14260432908696       52.33140564956978       40.59020891113232
H           49.07948485195022       54.95026728313444       44.60284144477596
H           48.58734049781197       52.90679383477332       45.84523447261225
H           49.94072062449158       50.88290736871469       45.49482108471614
H           51.84885392903439       50.93534398100807       43.92069271065304
H           52.37057373198706       53.00640662445721       42.70065234188827
H           53.58806221070125       58.04222840870989       44.86702161727487
H           54.09347422269688       59.46928238602774       46.78365361961072
H           52.45600413546693       61.16702534218604       47.53239549540539
H           50.27780746722678       61.34560810858080       46.38724633484892
H           49.76524154525473       59.89688031985174       44.48038648616707
H           53.29620211287107       58.43651518379044       42.55466674493272
H           53.16913869334513       58.94063985845649       39.26020495726055
H           52.26242889536903       58.44460059700782       37.03200579423410
H           49.83212506766345       58.49441594204189       36.64684040865482
H           48.30484712468309       59.06758112634664       38.50780751711149
H           49.21879987091234       59.62384510625859       40.71596550400981
H           52.67673340093899       62.67811918236050       43.67719489372838
H           51.03597601908391       63.59620319397668       45.25245947034857
H           48.72871930628251       64.04400904009762       44.52398049937059
H           48.07088157319075       63.57671352326087       42.18270209568647
H           49.69831342490843       62.63480298325732       40.61609754000301
H           56.69368911055986       62.42239168397697       39.02597898230116
H           58.67151561782425       63.85193269414880       39.06918592177793
H           58.46467913592890       66.25235398573074       39.63271380589402
H           56.23849221385518       67.19308613674481       40.14516399831283
H           54.25412441978558       65.77250536400049       40.07698865030603
H           54.01305125535764       65.14122531103789       35.15660865035551
H           52.41307691143865       66.13421765373687       33.57766738101792
H           50.08596050069380       65.31810871924756       33.49345997281325
H           49.37575772186301       63.49210185263021       34.99370648166327
H           50.98209976843048       62.48904660560637       36.55870043236378
H           53.31225662196643       61.13378991161073       37.69511967583836
H           53.04561479396878       61.30427337865058       35.96859901363629
H           54.15921155509383       59.89894999970808       34.27419453744877
H           54.72858243348900       60.33080427495472       31.94218852387089
H           56.34788426727125       62.10463988960635       31.35978515784589
H           57.39267053966653       63.43856049877846       33.15391957510870
H           56.84019100505226       62.99112690345058       35.50535989871512
H           58.64141437265152       60.96601118367954       36.04397053161968
H           60.25016948934196       62.05784266255059       37.54614428223994
H           60.24109884424168       61.53330401410595       39.96189223950724
H           58.61706682829941       59.90662378108175       40.84748089455819
H           56.99725480886065       58.83447998760949       39.35152346777232
H           56.56706799888786       58.27671317472693       33.16899395480110
H           58.51851041850929       58.44958774882780       31.68932609814885
H           60.61249344104326       57.27343142458061       32.25463538584349
H           60.72222480164758       55.89152635880443       34.30454673332238
H           58.76615943572479       55.67094191070715       35.74764892296162
H           55.33682235678229       55.78552681938145       32.03302878333937
H           53.91085064562808       57.44112061575773       30.90060618508686
H           52.01448286377192       58.46774478495231       32.10340720481980
H           51.52694739350713       57.78597858530525       34.42365712976826
H           52.93630444544915       56.12859903140456       35.54510826883703
H           55.15220030793080       50.68182202044307       34.76797037410275
H           56.81966479161083       49.34188683945324       33.57377656342619
H           57.46358636087042       49.92291778673845       31.26461868054375
H           56.40155363547243       51.85099866069446       30.14938452730802
H           54.71909946400915       53.18584766303597       31.33363958306035
H           49.87010189972045       50.33937122629883       34.09845807869252
H           48.46752993854404       49.15355502204024       35.74055544194634
H           48.23863093333553       50.02209552829304       38.02884996572786
H           49.42705103851414       52.09374474342827       38.67413819890935
H           50.77756762099467       53.30565694574252       37.02782493315105
H           48.44331505111442       54.21569313616029       35.52877370966556
H           48.13925601279476       56.55351244704966       36.24520163165359
H           48.49539575681978       58.39448062339252       34.63214117995363
H           49.26837675659163       57.88105338790132       32.34965721891976
H           49.63241390074319       55.56646752747211       31.66001188789185
H           49.69868646064716       50.58884363399050       29.32744598364619
H           49.28513009772195       50.60607264990364       26.90840564956780
H           47.25075992871265       51.67521073428267       26.00525553824494
H           45.64961747213999       52.74870973802530       27.54541483232363
H           46.07380658633422       52.74358943402813       29.96524122950673
H           47.20590230501875       48.53095045706818       29.15080399127019
H           49.01080089368454       46.91112148505627       28.77334011994142
H           50.47001511700758       46.21988725561701       30.64176068037072
H           50.09067974729724       47.15186786907199       32.89416682984270
H           48.27563329994782       48.75826912036291       33.27365425848680
H           42.78255413618126       47.82198306240132       31.81397504439813
H           41.35240749125283       46.24664331132765       33.01546365649404
H           41.06432594273843       46.44992856719250       35.46433356209710
H           42.17334538558145       48.27721948232899       36.67553255499242
H           43.60213794240992       49.87553932171043       35.46534568159404
H           45.85402634694817       53.17038196238200       39.95425664526265
H           47.04689486201360       53.18058425479413       38.65080903086869
H           47.50513206302300       52.62645224503711       40.26029686701401
H           44.65513961964640       50.61160741499645       33.54039087332061
H           44.18149225058916       51.07780554908285       31.00155386841620
H           42.78281350959260       50.03563776780787       31.23310570169119
C           41.61806374515016       52.39582409166056       31.44537665410666
C           43.67447008273690       52.97221683980798       32.75640021355527
C           44.23947513989614       53.78705518254813       31.78000907327840
C           45.10368921762331       54.81193458663921       32.12314605061072
C           45.42202769998607       55.03733999970061       33.45265657324995
C           44.86988147848441       54.23043933569467       34.43175849323565
C           44.00038597390252       53.20970616508442       34.08553744151508
H           43.98476030729712       53.62826005365967       30.74132370494981
H           45.52348851248527       55.44406475204040       31.35245824538276
H           46.09809628353710       55.83701808874392       33.71578706455023
H           45.10289142421233       54.39849889965340       35.47189521434063
H           43.55756543596085       52.60063534996110       34.86126336376996
C           40.26854135415788       51.73419020184934       31.73380140803566
H           41.51153153200914       53.47350368342682       31.58326787742784
H           41.88934367701484       52.22142068429790       30.40143022142459
C           39.19147230674420       52.23049376667532       30.81280996072739
C           38.54314392024701       51.36896257077212       29.93742082066510
C           37.55085840025601       51.83347248182451       29.09107103618874
C           37.19284489442352       53.17036464989702       29.10767105244098
C           37.83042491450136       54.03790148132187       29.97909771088504
C           38.81965588227366       53.57125465118888       30.82482746270709
H           38.80751880268415       50.32072009948302       29.92533514655882
H           37.05449663768002       51.14866862938452       28.41841221009543
H           36.41878554733506       53.53384323765601       28.44733139405189
H           37.55447176258627       55.08242311781142       30.00508060994640
H           39.30752780071187       54.25794074903373       31.50208278233613
H           42.24479531492401       51.50435904744766       33.29829463982248
H           40.36077735287260       50.65154947095933       31.63619738419979
H           39.98874924904700       51.96324313820045       32.76672968784955
C           45.30240336955193       47.16940904989212       39.42733024312535
C           45.36898092203626       46.90914434387809       38.06507174293262
C           45.51333309728579       47.98141974047904       37.19331231271611
C           45.61682374847758       49.27377588891223       37.67528124992385
C           45.56485335658054       49.51662314549828       39.03786663561061
C           45.38931893082402       48.46130738411597       39.91406150855030
C           45.29387617121527       45.49021472114061       37.56273719174288
C           44.04494105647976       45.28222841138680       36.70511525410650
C           46.55258541779332       45.10723060320574       36.77448520286011
C           47.84500721351990       45.28766729632251       37.58395727920676
C           47.78823655450433       44.52119009760855       38.88101028134192
C           47.90717943827863       45.20094393259876       40.08652859007489
C           47.88569833109452       44.52365668489944       41.29196339515582
C           47.73348833576844       43.14906727820396       41.31518971630577
C           47.59773813425143       42.45979668686021       40.12209715565913
C           47.62458061156973       43.14089453349892       38.91716894980613
C           49.04753983354235       44.86539064458346       36.72438717741630
C           50.37075377558034       44.84650017299438       37.50075178271138
C           50.70794389066602       46.20764535067875       38.06367187044669
C           50.93077606180919       47.30364086227856       37.23920635635069
C           51.25039083571619       48.53980398326138       37.77116546806476
C           51.32957395465704       48.70829567095158       39.14183444896540
C           51.10288373098103       47.62832843920840       39.97602182038423
C           50.80981801802823       46.38721103106775       39.43840955669414
C           51.53797167307758       44.33720527407484       36.63604913735805
C           51.34853001998064       42.93369150766160       36.02938165760088
C           52.60168626969076       42.53225718565148       35.29093931383301
C           53.78935755588779       42.25834305371604       35.96073001297980
C           54.92241377282235       41.87391804441163       35.26689618154273
C           54.88681526711107       41.75516755676554       33.88808944493127
C           53.71683484623595       42.04159069793905       33.20737123302875
C           52.58698190045929       42.42927883734873       33.90564210764914
C           50.95990301467496       41.88609959310957       37.07955787788530
C           50.76559244983685       40.47798087215697       36.49596798660913
C           49.88652062411887       40.49041117818189       35.27256560551105
C           50.36607007847779       40.00360102636984       34.06306492930679
C           49.57362447665180       40.01232508663603       32.92874073646077
C           48.28448757423295       40.51377103904708       32.98513153724621
C           47.79110054193880       40.99275141140238       34.18666282790857
C           48.58418981262992       40.97418700137338       35.31852543615572
C           50.16505236402327       39.56687838513336       37.57611840060923
C           49.89100337591617       38.14792157163167       37.07373543139062
C           51.11871437917406       37.43363783382812       36.56761142217404
C           52.36642577099417       37.57541040047693       37.16307000612042
C           53.46051034872706       36.86969828117209       36.69480963538378
C           53.32445875797760       35.99648507323179       35.62975962283069
C           52.08503195484921       35.83789439075623       35.03336143078471
C           50.99726802956854       36.55481626291946       35.49713466473088
C           49.21947394443750       37.29949285820575       38.17905793484283
C           47.85401965436251       36.75467104864352       37.74475570406563
C           46.92751005124475       37.87096355661659       37.32620928922339
C           46.36150425066572       37.87665748290720       36.05753273923172
C           45.50065028741313       38.88597918987065       35.66211944431371
C           45.19846781617237       39.91920176042380       36.53075582249152
C           45.76351170622895       39.92980534378937       37.79442881101458
C           46.61192962364721       38.91254011268299       38.19168113570920
C           47.18398258790766       35.92261692230834       38.85104478738031
C           48.00068728407212       34.69776128869708       39.29183630408354
C           48.48038640145575       33.87751640110714       38.12201993396037
C           49.82720976806986       33.56635074729443       37.98597092722660
C           50.28171383252528       32.80935422790306       36.92143369412344