      -----------------------------------------------------------      
     |                   =====================                   |     
     |                           x T B                           |     
     |                   =====================                   |     
     |                         S. Grimme                         |     
     |          Mulliken Center for Theoretical Chemistry        |     
     |                    University of Bonn                     |     
      -----------------------------------------------------------      

   * xtb version 6.6.1 (8d0f1dd) compiled by 'stahn@M-Bot' on 2023-08-01

   xtb is free software: you can redistribute it and/or modify it under
   the terms of the GNU Lesser General Public License as published by
   the Free Software Foundation, either version 3 of the License, or
   (at your option) any later version.
   
   xtb is distributed in the hope that it will be useful,
   but WITHOUT ANY WARRANTY; without even the implied warranty of
   MERCHANTABILITY or FITNESS FOR A PARTICULAR PURPOSE.  See the
   GNU Lesser General Public License for more details.
   
   Cite this work as:
   * C. Bannwarth, E. Caldeweyher, S. Ehlert, A. Hansen, P. Pracht,
     J. Seibert, S. Spicher, S. Grimme, WIREs Comput. Mol. Sci., 2020, 11,
     e01493. DOI: 10.1002/wcms.1493
   
   for GFN2-xTB:
   * C. Bannwarth, S. Ehlert and S. Grimme., J. Chem. Theory Comput., 2019,
     15, 1652-1671. DOI: 10.1021/acs.jctc.8b01176
   for GFN1-xTB:
   * S. Grimme, C. Bannwarth, P. Shushkov, J. Chem. Theory Comput., 2017,
     13, 1989-2009. DOI: 10.1021/acs.jctc.7b00118
   for GFN0-xTB:
   * P. Pracht, E. Caldeweyher, S. Ehlert, S. Grimme, ChemRxiv, 2019, preprint.
     DOI: 10.26434/chemrxiv.8326202.v1
   for GFN-FF:
   * S. Spicher and S. Grimme, Angew. Chem. Int. Ed., 2020, 59, 15665-15673.
     DOI: 10.1002/anie.202004239
   
   for ALPB and GBSA implicit solvation:
   * S. Ehlert, M. Stahn, S. Spicher, S. Grimme, J. Chem. Theory Comput.,
     2021, 17, 4250-4261. DOI: 10.1021/acs.jctc.1c00471
   
   for DFT-D4:
   * E. Caldeweyher, C. Bannwarth and S. Grimme, J. Chem. Phys., 2017,
     147, 034112. DOI: 10.1063/1.4993215
   * E. Caldeweyher, S. Ehlert, A. Hansen, H. Neugebauer, S. Spicher,
     C. Bannwarth and S. Grimme, J. Chem. Phys., 2019, 150, 154122.
     DOI: 10.1063/1.5090222
   * E. Caldeweyher, J.-M. Mewes, S. Ehlert and S. Grimme, Phys. Chem. Chem. Phys.
     2020, 22, 8499-8512. DOI: 10.1039/D0CP00502A
   
   for sTDA-xTB:
   * S. Grimme and C. Bannwarth, J. Chem. Phys., 2016, 145, 054103.
     DOI: 10.1063/1.4959605
   
   in the mass-spec context:
   * V. Asgeirsson, C. Bauer and S. Grimme, Chem. Sci., 2017, 8, 4879.
     DOI: 10.1039/c7sc00601b
   * J. Koopman and S. Grimme, ACS Omega 2019, 4, 12, 15120-15133.
     DOI: 10.1021/acsomega.9b02011
   
   for metadynamics refer to:
   * S. Grimme, J. Chem. Theory Comput., 2019, 155, 2847-2862
     DOI: 10.1021/acs.jctc.9b00143
   
   for SPH calculations refer to:
   * S. Spicher and S. Grimme, J. Chem. Theory Comput., 2021, 17, 1701-1714
     DOI: 10.1021/acs.jctc.0c01306
   
   with help from (in alphabetical order)
   P. Atkinson, C. Bannwarth, F. Bohle, G. Brandenburg, E. Caldeweyher
   M. Checinski, S. Dohm, S. Ehlert, S. Ehrlich, I. Gerasimov, C. Hölzer
   A. Katbashev, J. Koopman, C. Lavigne, S. Lehtola, F. März, M. Müller,
   F. Musil, H. Neugebauer, J. Pisarek, C. Plett, P. Pracht, F. Pultar,
   J. Seibert, P. Shushkov, S. Spicher, M. Stahn, M. Steiner, T. Strunk,
   J. Stückrath, T. Rose, and J. Unsleber
   
 * started run on 2024/07/12 at 22:16:54.438     

           -------------------------------------------------
          |                Calculation Setup                |
           -------------------------------------------------

          program call               : /home/abt-grimme/AK-bin/xtb input.xyz --input input.inp --opt --gbsa water
          hostname                   : boar063.thch.uni-bonn.de
          coordinate file            : input.xyz
          omp threads                :                     8

   ID    Z sym.   atoms
    1    6 C      1-146, 294-300, 306, 309-314, 323-468, 616-622, 628,
                  631-636, 645-790, 938-944, 950, 953-958, 967-1112,
                  1260-1266, 1272, 1275-1280, 1289-1434, 1582-1588, 1594,
                  1597-1602, 1611-1756, 1904-1910, 1916, 1919-1924,
                  1933-2078, 2226-2232, 2238, 2241-2246, 2255-2400,
                  2548-2554, 2560, 2563-2568, 2577-2722, 2870-2876, 2882,
                  2885-2890, 2899-3044, 3192-3198, 3204, 3207-3212,
                  3221-3366, 3514-3520, 3526, 3529-3534, 3543-3688,
                  3836-3842, 3848, 3851-3856
    2    1 H      147-293, 301-305, 307, 308, 315-322, 469-615, 623-627, 629,
                  630, 637-644, 791-937, 945-949, 951, 952, 959-966,
                  1113-1259, 1267-1271, 1273, 1274, 1281-1288, 1435-1581,
                  1589-1593, 1595, 1596, 1603-1610, 1757-1903, 1911-1915,
                  1917, 1918, 1925-1932, 2079-2225, 2233-2237, 2239, 2240,
                  2247-2254, 2401-2547, 2555-2559, 2561, 2562, 2569-2576,
                  2723-2869, 2877-2881, 2883, 2884, 2891-2898, 3045-3191,
                  3199-3203, 3205, 3206, 3213-3220, 3367-3513, 3521-3525,
                  3527, 3528, 3535-3542, 3689-3835, 3843-3847, 3849, 3850,
                  3857-3864

molecular fragmentation (1/2 indicates fragments):
111111111111111111111111111111111111111111111111111111111111111111111111
111111111111111111111111111111111111111111111111111111111111111111111111
111111111111111111111111111111111111111111111111111111111111111111111111
111111111111111111111111111111111111111111111111111111111111111111111111
111111111111111111111111111111111122222222222222222222222222222222222222
222222222222222222222222222222222222222222222222222222222222222222222222
222222222222222222222222222222222222222222222222222222222222222222222222
222222222222222222222222222222222222222222222222222222222222222222222222
222222222222222222222222222222222222222222222222222222222222222222222222
222222222222222222222222222222222222222222222222222222222222222222222222
222222222222222222222222222222222222222222222222222222222222222222222222
222222222222222222222222222222222222222222222222222222222222222222222222
222222222222222222222222222222222222222222222222222222222222222222222222
222222222222222222222222222222222222222222222222222222222222222222222222
222222222222222222222222222222222222222222222222222222222222222222222222
222222222222222222222222222222222222222222222222222222222222222222222222
222222222222222222222222222222222222222222222222222222222222222222222222
222222222222222222222222222222222222222222222222222222222222222222222222
222222222222222222222222222222222222222222222222222222222222222222222222
222222222222222222222222222222222222222222222222222222222222222222222222
222222222222222222222222222222222222222222222222222222222222222222222222
222222222222222222222222222222222222222222222222222222222222222222222222
222222222222222222222222222222222222222222222222222222222222222222222222
222222222222222222222222222222222222222222222222222222222222222222222222
222222222222222222222222222222222222222222222222222222222222222222222222
222222222222222222222222222222222222222222222222222222222222222222222222
222222222222222222222222222222222222222222222222222222222222222222222222
222222222222222222222222222222222222222222222222222222222222222222222222
222222222222222222222222222222222222222222222222222222222222222222222222
222222222222222222222222222222222222222222222222222222222222222222222222
222222222222222222222222222222222222222222222222222222222222222222222222
222222222222222222222222222222222222222222222222222222222222222222222222
222222222222222222222222222222222222222222222222222222222222222222222222
222222222222222222222222222222222222222222222222222222222222222222222222
222222222222222222222222222222222222222222222222222222222222222222222222
222222222222222222222222222222222222222222222222222222222222222222222222
222222222222222222222222222222222222222222222222222222222222222222222222
222222222222222222222222222222222222222222222222222222222222222222222222
222222222222222222222222222222222222222222222222222222222222222222222222
222222222222222222222222222222222222222222222222222222222222222222222222
222222222222222222222222222222222222222222222222222222222222222222222222
222222222222222222222222222222222222222222222222222222222222222222222222
222222222222222222222222222222222222222222222222222222222222222222222222
222222222222222222222222222222222222222222222222222222222222222222222222
222222222222222222222222222222222222222222222222222222222222222222222222
222222222222222222222222222222222222222222222222222222222222222222222222
222222222222222222222222222222222222222222222222222222222222222222222222
222222222222222222222222222222222222222222222222222222222222222222222222
222222222222222222222222222222222222222222222222222222222222222222222222
222222222222222222222222222222222222222222222222222222222222222222222222
222222222222222222222222222222222222222222222222222222222222222222222222
222222222222222222222222222222222222222222222222222222222222222222222222
222222222222222222222222222222222222222222222222222222222222222222222222
222222222222222222222222222222222222222222222222
# atoms in fragment 1/2:   322  3542
 fragment masses (1/2) :     2085.00    22935.05
CMA distance (Bohr)    :  23.719
constraining FC (au)   :  0.0500

           -------------------------------------------------
          |                 G F N 2 - x T B                 |
           -------------------------------------------------

        Reference                      10.1021/acs.jctc.8b01176
      * Hamiltonian:
        H0-scaling (s, p, d)           1.850000    2.230000    2.230000
        zeta-weighting                 0.500000
      * Dispersion:
        s8                             2.700000
        a1                             0.520000
        a2                             5.000000
        s9                             5.000000
      * Repulsion:
        kExp                           1.500000    1.000000
        rExp                           1.000000
      * Coulomb:
        alpha                          2.000000
        third order                    shell-resolved
        anisotropic                    true
        a3                             3.000000
        a5                             4.000000
        cn-shift                       1.200000
        cn-exp                         4.000000
        max-rad                        5.000000

      * Solvation model:               GBSA
        Solvent                        water
        Parameter file                 internal GFN2-xTB/GBSA
        Dielectric constant                8.0200E+01
        Reference state                gsolv [1 M gas/solution]
        Free energy shift                  1.8574E-03 Eh       1.1656E+00 kcal/mol
        Temperature                        2.9815E+02 K
        Density                            1.0000E+00 kg/L
        Solvent mass                       1.8000E+01 g/mol
        Interaction kernel             Still
        Born radius scaling (c1)           1.5524E+00
        Born radii integrator          GBOBC
        Born offset                        2.4628E-02 a0       4.6540E-02 AA
        H-bond correction              true
        Ion screening                  false
        Surface tension                    1.0000E-05 Eh       1.5569E+01 dyn/cm
        Grid points                               230 per atom
q/qsh data taken from xtbrestart
CAMM data taken from xtbrestart

          ...................................................
          :                      SETUP                      :
          :.................................................:
          :  # basis functions                9624          :
          :  # atomic orbitals                9624          :
          :  # shells                         5784          :
          :  # electrons                      9624          :
          :  max. iterations                   250          :
          :  Hamiltonian                  GFN2-xTB          :
          :  restarted?                       true          :
          :  GBSA solvation                   true          :
          :  PC potential                    false          :
          :  electronic temp.          300.0000000     K    :
          :  accuracy                    1.0000000          :
          :  -> integral cutoff          0.2500000E+02      :
          :  -> integral neglect         0.1000000E-07      :
          :  -> SCF convergence          0.1000000E-05 Eh   :
          :  -> wf. convergence          0.1000000E-03 e    :
          :  Broyden damping             0.4000000          :
          ...................................................

 iter      E             dE          RMSdq      gap      omega  full diag
   1  -5190.3945297 -0.519039E+04  0.827E-05    3.70       0.0  T
   2  -5190.3945297 -0.920500E-08  0.679E-05    3.70      23.7  T
   3  -5190.3945297 -0.617365E-08  0.570E-05    3.70      28.2  T

   *** convergence criteria satisfied after 3 iterations ***

         #    Occupation            Energy/Eh            Energy/eV
      -------------------------------------------------------------
         1        2.0000           -0.6337048             -17.2440
       ...           ...                  ...                  ...
      4806        2.0000           -0.3619584              -9.8494
      4807        2.0000           -0.3601690              -9.8007
      4808        2.0000           -0.3599153              -9.7938
      4809        2.0000           -0.3597403              -9.7890
      4810        2.0000           -0.3593579              -9.7786
      4811        2.0000           -0.3583338              -9.7508
      4812        2.0000           -0.3576400              -9.7319 (HOMO)
      4813                         -0.2216752              -6.0321 (LUMO)
      4814                         -0.2195659              -5.9747
      4815                         -0.2193398              -5.9685
      4816                         -0.2192402              -5.9658
      4817                         -0.2189080              -5.9568
       ...                                ...                  ...
      9624                          0.6667463              18.1431
      -------------------------------------------------------------
                  HL-Gap            0.1359648 Eh            3.6998 eV
             Fermi-level           -0.2896576 Eh           -7.8820 eV

 SCC (total)                   0 d,  0 h, 16 min,  6.549 sec
 SCC setup                      ...        0 min,  2.506 sec (  0.259%)
 Dispersion                     ...        0 min,  6.938 sec (  0.718%)
 classical contributions        ...        0 min,  0.164 sec (  0.017%)
 integral evaluation            ...        0 min, 12.112 sec (  1.253%)
 iterations                     ...       10 min, 34.132 sec ( 65.608%)
 molecular gradient             ...        4 min, 43.353 sec ( 29.316%)
 printout                       ...        0 min, 27.342 sec (  2.829%)

         :::::::::::::::::::::::::::::::::::::::::::::::::::::
         ::                     SUMMARY                     ::
         :::::::::::::::::::::::::::::::::::::::::::::::::::::
         :: total energy           -5103.329281033661 Eh    ::
         :: total w/o Gsasa/hb     -5103.134492440556 Eh    ::
         :: gradient norm              0.739685873892 Eh/a0 ::
         :: HOMO-LUMO gap              3.699790365618 eV    ::
         ::.................................................::
         :: SCC energy             -5190.394529712315 Eh    ::
         :: -> isotropic ES            0.306552074742 Eh    ::
         :: -> anisotropic ES          0.813975926551 Eh    ::
         :: -> anisotropic XC          3.458005197533 Eh    ::
         :: -> dispersion             -6.869257078379 Eh    ::
         :: -> Gsolv                  -0.225284084862 Eh    ::
         ::    -> Gelec               -0.030495491757 Eh    ::
         ::    -> Gsasa               -0.189831802879 Eh    ::
         ::    -> Ghb                 -0.006814233352 Eh    ::
         ::    -> Gshift               0.001857443127 Eh    ::
         :: repulsion energy          85.962420852951 Eh    ::
         :: add. restraining           0.000000000000 Eh    ::
         :: total charge              -0.000000000036 e     ::
         :::::::::::::::::::::::::::::::::::::::::::::::::::::

      ----------------------------------------------------------- 
     |              Fast Inertial Relaxation Engine              |
      ----------------------------------------------------------- 

          ...................................................
          :                      SETUP                      :
          :.................................................:
          :   energy convergence        0.5000000E-05 Eh    :
          :   grad. convergence         0.1000000E-02 Eh/a0 :
          :   optimization log               true           :
          :   writing optlog all                1     steps :
          :   Hessian reset                    20     steps :
          :   time step scaling                 5     steps :
          :   maximium step len.        1.0000000     a0    :
          :   initial time step         0.2500000     fs    :
          :   maximum time step         1.2500000     fs    :
          :   power reset thr           0.0000000     au    :
          :   alpha parameter           0.1000000           :
          :   BFGS update                   false           :
          :   preconditioning               false           :
          ...................................................

........................................................................
.............................. CYCLE    1 ..............................
........................................................................

 iter      E             dE          RMSdq      gap      omega  full diag
   1  -5190.6075108 -0.519061E+04  0.905E-03    3.72       0.0  T
   2  -5190.6075473 -0.365242E-04  0.555E-03    3.72       1.0  T
   3  -5190.6075376  0.970993E-05  0.300E-03    3.72       1.0  T
   4  -5190.6075566 -0.189479E-04  0.794E-04    3.72       2.0  T
   5  -5190.6075583 -0.174417E-05  0.284E-04    3.72       5.7  T
   6  -5190.6075584 -0.120200E-06  0.193E-04    3.72       8.3  T
   7  -5190.6075585 -0.576174E-07  0.139E-04    3.72      11.6  T
     SCC iter.                  ...       24 min, 37.296 sec
     gradient                   ...        4 min, 43.746 sec
 * total energy  : -5103.3905476 Eh     change    :  -0.6126661E-01 Eh
   gradient norm :     0.6793226 Eh/a0  converged?    E=F G=F D=F
   time step     :     0.2500000 fs     power     :   0.3114048E-05
   step length   :     0.0866896 a0     speed     :   0.8387685E-02

........................................................................
.............................. CYCLE    2 ..............................
........................................................................

 iter      E             dE          RMSdq      gap      omega  full diag
   1  -5190.9211002 -0.519092E+04  0.132E-02    3.74       0.0  T
   2  -5190.9211780 -0.778293E-04  0.808E-03    3.74       1.0  T
   3  -5190.9211579  0.201151E-04  0.434E-03    3.74       1.0  T
   4  -5190.9211973 -0.393901E-04  0.117E-03    3.74       1.4  T
   5  -5190.9212010 -0.375205E-05  0.432E-04    3.74       3.7  T
   6  -5190.9212013 -0.274285E-06  0.304E-04    3.74       5.3  T
   7  -5190.9212014 -0.151860E-06  0.222E-04    3.74       7.3  T
     SCC iter.                  ...       24 min, 40.006 sec
     gradient                   ...        4 min, 43.905 sec
 * total energy  : -5103.4708711 Eh     change    :  -0.8032349E-01 Eh
   gradient norm :     0.5964119 Eh/a0  converged?    E=F G=F D=F
   time step     :     0.2500000 fs     power     :   0.3974124E-05
   step length   :     0.1263849 a0     speed     :   0.1222842E-01

........................................................................
.............................. CYCLE    3 ..............................
........................................................................

 iter      E             dE          RMSdq      gap      omega  full diag
   1  -5191.3278446 -0.519133E+04  0.167E-02    3.77       0.0  T
   2  -5191.3279696 -0.124939E-03  0.102E-02    3.77       1.0  T
   3  -5191.3279374  0.321922E-04  0.544E-03    3.77       1.0  T
   4  -5191.3279993 -0.619625E-04  0.148E-03    3.77       1.1  T
   5  -5191.3280054 -0.608438E-05  0.553E-04    3.77       2.9  T
   6  -5191.3280059 -0.439333E-06  0.395E-04    3.77       4.1  T
   7  -5191.3280061 -0.263348E-06  0.288E-04    3.77       5.6  T
     SCC iter.                  ...       24 min, 37.307 sec
     gradient                   ...        4 min, 44.400 sec
 * total energy  : -5103.5581035 Eh     change    :  -0.8723241E-01 Eh
   gradient norm :     0.4985513 Eh/a0  converged?    E=F G=F D=F
   time step     :     0.2500000 fs     power     :   0.4172926E-05
   step length   :     0.1611094 a0     speed     :   0.1558820E-01

........................................................................
.............................. CYCLE    4 ..............................
........................................................................

 iter      E             dE          RMSdq      gap      omega  full diag
   1  -5191.8196129 -0.519182E+04  0.195E-02    3.80       0.0  T
   2  -5191.8197808 -0.167828E-03  0.119E-02    3.80       1.0  T
   3  -5191.8197367  0.440436E-04  0.624E-03    3.80       1.0  T
   4  -5191.8198187 -0.819414E-04  0.171E-03    3.80       1.0  T
   5  -5191.8198270 -0.830077E-05  0.646E-04    3.80       2.5  T
   6  -5191.8198275 -0.577487E-06  0.467E-04    3.80       3.4  T
   7  -5191.8198279 -0.375990E-06  0.340E-04    3.80       4.7  T
     SCC iter.                  ...       24 min, 39.653 sec
     gradient                   ...        4 min, 44.364 sec
 * total energy  : -5103.6402032 Eh     change    :  -0.8209964E-01 Eh
   gradient norm :     0.4000856 Eh/a0  converged?    E=F G=F D=F
   time step     :     0.2500000 fs     power     :   0.3753671E-05
   step length   :     0.1895906 a0     speed     :   0.1834391E-01

........................................................................
.............................. CYCLE    5 ..............................
........................................................................

 iter      E             dE          RMSdq      gap      omega  full diag
   1  -5192.3878365 -0.519239E+04  0.214E-02    3.83       0.0  T
   2  -5192.3880312 -0.194717E-03  0.130E-02    3.83       1.0  T
   3  -5192.3879775  0.536900E-04  0.665E-03    3.83       1.0  T
   4  -5192.3880720 -0.945500E-04  0.185E-03    3.83       1.0  T
   5  -5192.3880819 -0.987890E-05  0.703E-04    3.83       2.3  T
   6  -5192.3880826 -0.649666E-06  0.514E-04    3.83       3.1  T
   7  -5192.3880830 -0.467704E-06  0.372E-04    3.83       4.3  T
     SCC iter.                  ...       24 min, 38.353 sec
     gradient                   ...        4 min, 46.914 sec
 * total energy  : -5103.7079915 Eh     change    :  -0.6778836E-01 Eh
   gradient norm :     0.3236628 Eh/a0  converged?    E=F G=F D=F
   time step     :     0.2500000 fs     power     :   0.2908252E-05
   step length   :     0.2107245 a0     speed     :   0.2038873E-01

........................................................................
.............................. CYCLE    6 ..............................
........................................................................

 iter      E             dE          RMSdq      gap      omega  full diag
   1  -5193.0895437 -0.519309E+04  0.244E-02    3.85       0.0  T
   2  -5193.0897796 -0.235894E-03  0.148E-02    3.84       1.0  T
   3  -5193.0897082  0.713949E-04  0.722E-03    3.85       1.0  T
   4  -5193.0898238 -0.115570E-03  0.205E-03    3.84       1.0  T
   5  -5193.0898362 -0.124759E-04  0.783E-04    3.84       2.1  T
   6  -5193.0898370 -0.744021E-06  0.574E-04    3.84       2.8  T
   7  -5193.0898376 -0.601260E-06  0.409E-04    3.84       3.9  T
     SCC iter.                  ...       24 min, 38.995 sec
     gradient                   ...        4 min, 48.821 sec
 * total energy  : -5103.7618171 Eh     change    :  -0.5382554E-01 Eh
   gradient norm :     0.2944456 Eh/a0  converged?    E=F G=F D=F
   time step     :     0.2750000 fs     power     :   0.1844800E-05
   step length   :     0.2472062 a0     speed     :   0.2174412E-01

........................................................................
.............................. CYCLE    7 ..............................
........................................................................

 iter      E             dE          RMSdq      gap      omega  full diag
   1  -5193.9159624 -0.519392E+04  0.259E-02    3.86       0.0  T
   2  -5193.9161920 -0.229583E-03  0.156E-02    3.86       1.0  T
   3  -5193.9161134  0.786003E-04  0.697E-03    3.86       1.0  T
   4  -5193.9162278 -0.114428E-03  0.205E-03    3.86       1.0  T
   5  -5193.9162409 -0.130050E-04  0.807E-04    3.86       2.0  T
   6  -5193.9162416 -0.726529E-06  0.585E-04    3.86       2.8  T
   7  -5193.9162422 -0.665844E-06  0.408E-04    3.86       3.9  T
     SCC iter.                  ...       24 min, 38.343 sec
     gradient                   ...        4 min, 44.178 sec
 * total energy  : -5103.7999588 Eh     change    :  -0.3814175E-01 Eh
   gradient norm :     0.3226918 Eh/a0  converged?    E=F G=F D=F
   time step     :     0.3025000 fs     power     :   0.9969062E-06
   step length   :     0.2760102 a0     speed     :   0.2207063E-01

........................................................................
.............................. CYCLE    8 ..............................
........................................................................

 iter      E             dE          RMSdq      gap      omega  full diag
   1  -5194.8311916 -0.519483E+04  0.258E-02    3.87       0.0  T
   2  -5194.8313637 -0.172056E-03  0.154E-02    3.87       1.0  T
   3  -5194.8313036  0.600633E-04  0.567E-03    3.87       1.0  T
   4  -5194.8313834 -0.798003E-04  0.182E-03    3.87       1.0  T
   5  -5194.8313939 -0.104978E-04  0.757E-04    3.87       2.1  T
   6  -5194.8313945 -0.626488E-06  0.514E-04    3.87       3.1  T
   7  -5194.8313951 -0.581269E-06  0.350E-04    3.87       4.6  T
     SCC iter.                  ...       24 min, 37.604 sec
     gradient                   ...        4 min, 42.847 sec
 * total energy  : -5103.8305069 Eh     change    :  -0.3054804E-01 Eh
   gradient norm :     0.3652901 Eh/a0  converged?    E=F G=F D=F
   time step     :     0.3327500 fs     power     :   0.7117181E-06
   step length   :     0.2963743 a0     speed     :   0.2154456E-01

........................................................................
.............................. CYCLE    9 ..............................
........................................................................

 iter      E             dE          RMSdq      gap      omega  full diag
   1  -5195.7910582 -0.519579E+04  0.253E-02    3.89       0.0  T
   2  -5195.7911616 -0.103421E-03  0.149E-02    3.89       1.0  T
   3  -5195.7911422  0.194366E-04  0.370E-03    3.89       1.0  T
   4  -5195.7911714 -0.292025E-04  0.129E-03    3.89       1.2  T
   5  -5195.7911759 -0.459421E-05  0.649E-04    3.89       2.5  T
   6  -5195.7911764 -0.458606E-06  0.382E-04    3.88       4.2  T
   7  -5195.7911768 -0.367058E-06  0.261E-04    3.88       6.2  T
     SCC iter.                  ...       24 min, 38.555 sec
     gradient                   ...        4 min, 43.636 sec
 * total energy  : -5103.8664696 Eh     change    :  -0.3596276E-01 Eh
   gradient norm :     0.3767539 Eh/a0  converged?    E=F G=F D=F
   time step     :     0.3660250 fs     power     :   0.9303262E-06
   step length   :     0.3165305 a0     speed     :   0.2091799E-01

........................................................................
.............................. CYCLE   10 ..............................
........................................................................

 iter      E             dE          RMSdq      gap      omega  full diag
   1  -5196.7494718 -0.519675E+04  0.261E-02    3.90       0.0  T
   2  -5196.7495494 -0.775924E-04  0.152E-02    3.90       1.0  T
   3  -5196.7495166  0.327556E-04  0.414E-03    3.90       1.0  T
   4  -5196.7495628 -0.462060E-04  0.107E-03    3.90       1.5  T
   5  -5196.7495654 -0.251474E-05  0.523E-04    3.90       3.1  T
   6  -5196.7495656 -0.235569E-06  0.318E-04    3.90       5.1  T
   7  -5196.7495658 -0.175808E-06  0.188E-04    3.90       8.5  T
     SCC iter.                  ...       24 min, 38.475 sec
     gradient                   ...        4 min, 53.438 sec
 * total energy  : -5103.9146112 Eh     change    :  -0.4814152E-01 Eh
   gradient norm :     0.3325035 Eh/a0  converged?    E=F G=F D=F
   time step     :     0.4026275 fs     power     :   0.1200601E-05
   step length   :     0.3457958 a0     speed     :   0.2077454E-01

........................................................................
.............................. CYCLE   11 ..............................
........................................................................

 iter      E             dE          RMSdq      gap      omega  full diag
   1  -5197.6556200 -0.519766E+04  0.290E-02    3.91       0.0  T
   2  -5197.6557524 -0.132311E-03  0.172E-02    3.91       1.0  T
   3  -5197.6556387  0.113618E-03  0.704E-03    3.91       1.0  T
   4  -5197.6557913 -0.152572E-03  0.136E-03    3.91       1.2  T
   5  -5197.6557954 -0.413526E-05  0.573E-04    3.91       2.8  T
   6  -5197.6557961 -0.691972E-06  0.274E-04    3.91       5.9  T
   7  -5197.6557962 -0.332393E-07  0.123E-04    3.91      13.1  T
     SCC iter.                  ...       24 min, 43.450 sec
     gradient                   ...        4 min, 53.088 sec
 * total energy  : -5103.9643121 Eh     change    :  -0.4970098E-01 Eh
   gradient norm :     0.2351685 Eh/a0  converged?    E=F G=F D=F
   time step     :     0.4428903 fs     power     :   0.9172221E-06
   step length   :     0.3862307 a0     speed     :   0.2109433E-01

........................................................................
.............................. CYCLE   12 ..............................
........................................................................

 iter      E             dE          RMSdq      gap      omega  full diag
   1  -5198.4515883 -0.519845E+04  0.327E-02    3.88       0.0  T
   2  -5198.4518331 -0.244826E-03  0.197E-02    3.89       1.0  T
   3  -5198.4516593  0.173784E-03  0.946E-03    3.88       1.0  T
   4  -5198.4519122 -0.252879E-03  0.178E-03    3.88       1.0  T
   5  -5198.4519200 -0.778425E-05  0.681E-04    3.88       2.4  T
   6  -5198.4519209 -0.931671E-06  0.363E-04    3.88       4.4  T
   7  -5198.4519210 -0.109135E-06  0.220E-04    3.88       7.3  T
     SCC iter.                  ...       24 min, 38.090 sec
     gradient                   ...        4 min, 47.958 sec
 * total energy  : -5103.9874506 Eh     change    :  -0.2313844E-01 Eh
   gradient norm :     0.1699997 Eh/a0  converged?    E=F G=F D=F
   time step     :     0.4871793 fs     power     :  -0.1678715E-06
   step length   :     0.4249604 a0     speed     :   0.2109963E-01

........................................................................
.............................. CYCLE   13 ..............................
........................................................................
 * reset velocities

 iter      E             dE          RMSdq      gap      omega  full diag
   1  -5198.4381228 -0.519844E+04  0.920E-04    3.88       0.0  T
   2  -5198.4381232 -0.428144E-06  0.557E-04    3.88       2.9  T
   3  -5198.4381232  0.390901E-08  0.265E-04    3.88       6.1  T
     SCC iter.                  ...       10 min, 35.431 sec
     gradient                   ...        4 min, 45.480 sec
 * total energy  : -5103.9890348 Eh     change    :  -0.1584219E-02 Eh
   gradient norm :     0.1649865 Eh/a0  converged?    E=F G=F D=F
   time step     :     0.2435896 fs     power     :   0.8498282E-07
   step length   :     0.0094575 a0     speed     :   0.9391430E-03

........................................................................
.............................. CYCLE   14 ..............................
........................................................................

 iter      E             dE          RMSdq      gap      omega  full diag
   1  -5198.4107967 -0.519841E+04  0.181E-03    3.89       0.0  T
   2  -5198.4107982 -0.149574E-05  0.109E-03    3.89       1.5  T
   3  -5198.4107981  0.880891E-07  0.462E-04    3.89       3.5  T
   4  -5198.4107984 -0.249612E-06  0.142E-04    3.89      11.3  T
     SCC iter.                  ...       14 min,  8.088 sec
     gradient                   ...        4 min, 44.840 sec
 * total energy  : -5103.9920176 Eh     change    :  -0.2982851E-02 Eh
   gradient norm :     0.1553270 Eh/a0  converged?    E=F G=F D=F
   time step     :     0.2435896 fs     power     :   0.1574647E-06
   step length   :     0.0186351 a0     speed     :   0.1850497E-02

........................................................................
.............................. CYCLE   15 ..............................
........................................................................

 iter      E             dE          RMSdq      gap      omega  full diag
   1  -5198.3704810 -0.519837E+04  0.259E-03    3.89       0.0  T
   2  -5198.3704841 -0.316736E-05  0.157E-03    3.89       1.0  T
   3  -5198.3704839  0.267809E-06  0.714E-04    3.89       2.3  T
   4  -5198.3704845 -0.670645E-06  0.211E-04    3.89       7.6  T
     SCC iter.                  ...       14 min,  5.277 sec
     gradient                   ...        4 min, 47.155 sec
 * total energy  : -5103.9960602 Eh     change    :  -0.4042518E-02 Eh
   gradient norm :     0.1419694 Eh/a0  converged?    E=F G=F D=F
   time step     :     0.2435896 fs     power     :   0.2097721E-06
   step length   :     0.0272675 a0     speed     :   0.2707709E-02

........................................................................
.............................. CYCLE   16 ..............................
........................................................................

 iter      E             dE          RMSdq      gap      omega  full diag
   1  -5198.3179722 -0.519832E+04  0.331E-03    3.89       0.0  T
   2  -5198.3179773 -0.504735E-05  0.200E-03    3.89       1.0  T
   3  -5198.3179768  0.495664E-06  0.903E-04    3.89       1.8  T
   4  -5198.3179779 -0.111902E-05  0.271E-04    3.89       5.9  T
   5  -5198.3179781 -0.186103E-06  0.963E-05    3.90      16.7  T
     SCC iter.                  ...       17 min, 36.414 sec
     gradient                   ...        4 min, 45.231 sec
 * total energy  : -5104.0007317 Eh     change    :  -0.4671524E-02 Eh
   gradient norm :     0.1263200 Eh/a0  converged?    E=F G=F D=F
   time step     :     0.2435896 fs     power     :   0.2379162E-06
   step length   :     0.0351266 a0     speed     :   0.3488130E-02

........................................................................
.............................. CYCLE   17 ..............................
........................................................................

 iter      E             dE          RMSdq      gap      omega  full diag
   1  -5198.2543387 -0.519825E+04  0.392E-03    3.90       0.0  T
   2  -5198.2543456 -0.694462E-05  0.236E-03    3.90       1.0  T
   3  -5198.2543449  0.664699E-06  0.104E-03    3.90       1.6  T
   4  -5198.2543464 -0.146587E-05  0.314E-04    3.90       5.1  T
   5  -5198.2543466 -0.251543E-06  0.110E-04    3.90      14.6  T
   6  -5198.2543467 -0.144573E-07  0.761E-05    3.90      21.1  T
     SCC iter.                  ...       21 min,  5.648 sec
     gradient                   ...        4 min, 47.501 sec
 * total energy  : -5104.0055880 Eh     change    :  -0.4856330E-02 Eh
   gradient norm :     0.1102969 Eh/a0  converged?    E=F G=F D=F
   time step     :     0.2435896 fs     power     :   0.2423569E-06
   step length   :     0.0420297 a0     speed     :   0.4173613E-02

........................................................................
.............................. CYCLE   18 ..............................
........................................................................

 iter      E             dE          RMSdq      gap      omega  full diag
   1  -5198.1810091 -0.519818E+04  0.439E-03    3.90       0.0  T
   2  -5198.1810174 -0.829481E-05  0.265E-03    3.90       1.0  T
   3  -5198.1810164  0.106000E-05  0.114E-03    3.90       1.4  T
   4  -5198.1810183 -0.198215E-05  0.358E-04    3.90       4.5  T
   5  -5198.1810187 -0.346131E-06  0.119E-04    3.90      13.6  T
   6  -5198.1810187 -0.150212E-07  0.792E-05    3.90      20.3  T
     SCC iter.                  ...       21 min,  7.593 sec
     gradient                   ...        4 min, 45.933 sec
 * total energy  : -5104.0102542 Eh     change    :  -0.4666211E-02 Eh
   gradient norm :     0.0962341 Eh/a0  converged?    E=F G=F D=F
   time step     :     0.2435896 fs     power     :   0.2280381E-06
   step length   :     0.0478375 a0     speed     :   0.4750338E-02

........................................................................
.............................. CYCLE   19 ..............................
........................................................................

 iter      E             dE          RMSdq      gap      omega  full diag
   1  -5198.0909760 -0.519809E+04  0.525E-03    3.89       0.0  T
   2  -5198.0909869 -0.108469E-04  0.317E-03    3.90       1.0  T
   3  -5198.0909850  0.187920E-05  0.132E-03    3.90       1.2  T
   4  -5198.0909881 -0.307217E-05  0.424E-04    3.90       3.8  T
   5  -5198.0909886 -0.508044E-06  0.135E-04    3.90      11.9  T
   6  -5198.0909886 -0.162981E-07  0.873E-05    3.90      18.4  T
     SCC iter.                  ...       21 min,  9.641 sec
     gradient                   ...        4 min, 44.815 sec
 * total energy  : -5104.0149104 Eh     change    :  -0.4656182E-02 Eh
   gradient norm :     0.0855220 Eh/a0  converged?    E=F G=F D=F
   time step     :     0.2679486 fs     power     :   0.1998911E-06
   step length   :     0.0582398 a0     speed     :   0.5257552E-02

........................................................................
.............................. CYCLE   20 ..............................
........................................................................

 iter      E             dE          RMSdq      gap      omega  full diag
   1  -5197.9847965 -0.519798E+04  0.608E-03    3.89       0.0  T
   2  -5197.9848091 -0.125444E-04  0.367E-03    3.89       1.0  T
   3  -5197.9848058  0.328252E-05  0.147E-03    3.89       1.1  T
   4  -5197.9848106 -0.474688E-05  0.473E-04    3.89       3.4  T
   5  -5197.9848112 -0.662782E-06  0.147E-04    3.89      11.0  T
   6  -5197.9848112 -0.140535E-07  0.907E-05    3.89      17.7  T
     SCC iter.                  ...       21 min,  8.684 sec
     gradient                   ...        4 min, 47.942 sec
 * total energy  : -5104.0193378 Eh     change    :  -0.4427351E-02 Eh
   gradient norm :     0.0806440 Eh/a0  converged?    E=F G=F D=F
   time step     :     0.2947435 fs     power     :   0.1671972E-06
   step length   :     0.0689486 a0     speed     :   0.5658433E-02
 * RMSD in coord.:     0.0409588 a0     energy gain  -0.6900567E+00 Eh

........................................................................
.............................. CYCLE   21 ..............................
........................................................................

 iter      E             dE          RMSdq      gap      omega  full diag
   1  -5197.8945412 -0.519789E+04  0.521E-03    3.89       0.0  T
   2  -5197.8945485 -0.739105E-05  0.314E-03    3.89       1.0  T
   3  -5197.8945454  0.311886E-05  0.121E-03    3.89       1.3  T
   4  -5197.8945496 -0.416132E-05  0.370E-04    3.89       4.3  T
   5  -5197.8945500 -0.415559E-06  0.117E-04    3.89      13.7  T
   6  -5197.8945500 -0.608088E-08  0.689E-05    3.89      23.4  T
     SCC iter.                  ...       21 min,  8.640 sec
     gradient                   ...        4 min, 43.159 sec
 * total energy  : -5104.0225973 Eh     change    :  -0.3259538E-02 Eh
   gradient norm :     0.0802699 Eh/a0  converged?    E=F G=F D=F
   time step     :     0.2500000 fs     power     :   0.1501759E-06
   step length   :     0.0602125 a0     speed     :   0.5825887E-02

........................................................................
.............................. CYCLE   22 ..............................
........................................................................

 iter      E             dE          RMSdq      gap      omega  full diag
   1  -5197.8081286 -0.519781E+04  0.522E-03    3.89       0.0  T
   2  -5197.8081341 -0.548831E-05  0.314E-03    3.89       1.0  T
   3  -5197.8081302  0.388926E-05  0.118E-03    3.89       1.4  T
   4  -5197.8081351 -0.495840E-05  0.312E-04    3.89       5.2  T
   5  -5197.8081354 -0.290075E-06  0.104E-04    3.89      15.4  T
   6  -5197.8081354 -0.159343E-08  0.562E-05    3.89      28.6  T
     SCC iter.                  ...       21 min,  6.038 sec
     gradient                   ...        4 min, 45.779 sec
 * total energy  : -5104.0256596 Eh     change    :  -0.3062285E-02 Eh
   gradient norm :     0.0802344 Eh/a0  converged?    E=F G=F D=F
   time step     :     0.2500000 fs     power     :   0.1441507E-06
   step length   :     0.0610916 a0     speed     :   0.5910937E-02

........................................................................
.............................. CYCLE   23 ..............................
........................................................................

 iter      E             dE          RMSdq      gap      omega  full diag
   1  -5197.7288974 -0.519773E+04  0.524E-03    3.89       0.0  T
   2  -5197.7289013 -0.384553E-05  0.315E-03    3.89       1.0  T
   3  -5197.7288968  0.446729E-05  0.115E-03    3.89       1.4  T
   4  -5197.7289024 -0.556508E-05  0.249E-04    3.89       6.5  T
   5  -5197.7289025 -0.171743E-06  0.949E-05    3.89      16.9  T
   6  -5197.7289025 -0.936780E-09  0.505E-05    3.89      31.8  T
     SCC iter.                  ...       21 min,  7.592 sec
     gradient                   ...        4 min, 45.928 sec
 * total energy  : -5104.0286856 Eh     change    :  -0.3026062E-02 Eh
   gradient norm :     0.0788675 Eh/a0  converged?    E=F G=F D=F
   time step     :     0.2500000 fs     power     :   0.1454344E-06
   step length   :     0.0616329 a0     speed     :   0.5963314E-02

........................................................................
.............................. CYCLE   24 ..............................
........................................................................

 iter      E             dE          RMSdq      gap      omega  full diag
   1  -5197.6593219 -0.519766E+04  0.528E-03    3.89       0.0  T
   2  -5197.6593245 -0.268285E-05  0.317E-03    3.89       1.0  T
   3  -5197.6593199  0.464415E-05  0.113E-03    3.89       1.4  T
   4  -5197.6593256 -0.571681E-05  0.205E-04    3.89       7.9  T
   5  -5197.6593257 -0.103280E-06  0.938E-05    3.89      17.2  T
   6  -5197.6593257 -0.441742E-08  0.533E-05    3.89      30.2  T
     SCC iter.                  ...       21 min, 12.022 sec
     gradient                   ...        4 min, 45.191 sec
 * total energy  : -5104.0317479 Eh     change    :  -0.3062270E-02 Eh
   gradient norm :     0.0758885 Eh/a0  converged?    E=F G=F D=F
   time step     :     0.2500000 fs     power     :   0.1490601E-06
   step length   :     0.0621902 a0     speed     :   0.6017240E-02

........................................................................
.............................. CYCLE   25 ..............................
........................................................................

 iter      E             dE          RMSdq      gap      omega  full diag
   1  -5197.6010818 -0.519760E+04  0.532E-03    3.89       0.0  T
   2  -5197.6010838 -0.197451E-05  0.318E-03    3.89       1.0  T
   3  -5197.6010794  0.431294E-05  0.108E-03    3.89       1.5  T
   4  -5197.6010847 -0.528679E-05  0.185E-04    3.89       8.7  T
   5  -5197.6010848 -0.762129E-07  0.102E-04    3.89      15.8  T
   6  -5197.6010848 -0.123937E-07  0.635E-05    3.89      25.3  T
     SCC iter.                  ...       21 min,  8.826 sec
     gradient                   ...        4 min, 43.115 sec
 * total energy  : -5104.0348422 Eh     change    :  -0.3094291E-02 Eh
   gradient norm :     0.0718826 Eh/a0  converged?    E=F G=F D=F
   time step     :     0.2500000 fs     power     :   0.1513898E-06
   step length   :     0.0629048 a0     speed     :   0.6086374E-02

........................................................................
.............................. CYCLE   26 ..............................
........................................................................

 iter      E             dE          RMSdq      gap      omega  full diag
   1  -5197.5508482 -0.519755E+04  0.589E-03    3.89       0.0  T
   2  -5197.5508501 -0.191060E-05  0.351E-03    3.89       1.0  T
   3  -5197.5508459  0.422598E-05  0.107E-03    3.89       1.5  T
   4  -5197.5508511 -0.520643E-05  0.200E-04    3.89       8.0  T
   5  -5197.5508512 -0.830660E-07  0.126E-04    3.89      12.7  T
   6  -5197.5508512 -0.281998E-07  0.858E-05    3.89      18.7  T
     SCC iter.                  ...       21 min,  8.997 sec
     gradient                   ...        4 min, 47.247 sec
 * total energy  : -5104.0382379 Eh     change    :  -0.3395673E-02 Eh
   gradient norm :     0.0672951 Eh/a0  converged?    E=F G=F D=F
   time step     :     0.2750000 fs     power     :   0.1498375E-06
   step length   :     0.0704749 a0     speed     :   0.6198930E-02

........................................................................
.............................. CYCLE   27 ..............................
........................................................................

 iter      E             dE          RMSdq      gap      omega  full diag
   1  -5197.5116955 -0.519751E+04  0.647E-03    3.88       0.0  T
   2  -5197.5116975 -0.194825E-05  0.384E-03    3.88       1.0  T
   3  -5197.5116942  0.329232E-05  0.974E-04    3.88       1.7  T
   4  -5197.5116984 -0.418133E-05  0.227E-04    3.88       7.1  T
   5  -5197.5116985 -0.102981E-06  0.155E-04    3.88      10.4  T
   6  -5197.5116985 -0.473019E-07  0.113E-04    3.88      14.3  T
     SCC iter.                  ...       21 min,  6.999 sec
     gradient                   ...        4 min, 45.111 sec
 * total energy  : -5104.0418728 Eh     change    :  -0.3634882E-02 Eh
   gradient norm :     0.0630757 Eh/a0  converged?    E=F G=F D=F
   time step     :     0.3025000 fs     power     :   0.1442552E-06
   step length   :     0.0793071 a0     speed     :   0.6341644E-02

........................................................................
.............................. CYCLE   28 ..............................
........................................................................

 iter      E             dE          RMSdq      gap      omega  full diag
   1  -5197.4865353 -0.519749E+04  0.698E-03    3.88       0.0  T
   2  -5197.4865372 -0.198644E-05  0.412E-03    3.88       1.0  T
   3  -5197.4865355  0.178995E-05  0.803E-04    3.88       2.0  T
   4  -5197.4865380 -0.255964E-05  0.255E-04    3.88       6.3  T
   5  -5197.4865381 -0.125051E-06  0.180E-04    3.88       8.9  T
   6  -5197.4865382 -0.701666E-07  0.132E-04    3.88      12.2  T
     SCC iter.                  ...       21 min,  2.746 sec
     gradient                   ...        4 min, 42.555 sec
 * total energy  : -5104.0456871 Eh     change    :  -0.3814333E-02 Eh
   gradient norm :     0.0596615 Eh/a0  converged?    E=F G=F D=F
   time step     :     0.3327500 fs     power     :   0.1361593E-06
   step length   :     0.0893405 a0     speed     :   0.6494496E-02

........................................................................
.............................. CYCLE   29 ..............................
........................................................................

 iter      E             dE          RMSdq      gap      omega  full diag
   1  -5197.4776667 -0.519748E+04  0.737E-03    3.88       0.0  T
   2  -5197.4776687 -0.204481E-05  0.435E-03    3.88       1.0  T
   3  -5197.4776675  0.116166E-05  0.758E-04    3.88       2.1  T
   4  -5197.4776695 -0.197546E-05  0.268E-04    3.87       6.0  T
   5  -5197.4776696 -0.116087E-06  0.197E-04    3.87       8.2  T
   6  -5197.4776697 -0.980226E-07  0.137E-04    3.87      11.7  T
     SCC iter.                  ...       21 min,  9.305 sec
     gradient                   ...        4 min, 44.850 sec
 * total energy  : -5104.0496466 Eh     change    :  -0.3959453E-02 Eh
   gradient norm :     0.0569849 Eh/a0  converged?    E=F G=F D=F
   time step     :     0.3660250 fs     power     :   0.1272667E-06
   step length   :     0.1005022 a0     speed     :   0.6641710E-02

........................................................................
.............................. CYCLE   30 ..............................
........................................................................

 iter      E             dE          RMSdq      gap      omega  full diag
   1  -5197.4864618 -0.519749E+04  0.760E-03    3.88       0.0  T
   2  -5197.4864641 -0.224822E-05  0.449E-03    3.87       1.0  T
   3  -5197.4864616  0.251999E-05  0.984E-04    3.87       1.6  T
   4  -5197.4864652 -0.359953E-05  0.266E-04    3.87       6.0  T
   5  -5197.4864653 -0.101711E-06  0.201E-04    3.87       8.0  T
   6  -5197.4864654 -0.103754E-06  0.136E-04    3.87      11.9  T
     SCC iter.                  ...       21 min,  7.600 sec
     gradient                   ...        4 min, 44.328 sec
 * total energy  : -5104.0537490 Eh     change    :  -0.4102461E-02 Eh
   gradient norm :     0.0554951 Eh/a0  converged?    E=F G=F D=F
   time step     :     0.4026275 fs     power     :   0.1190709E-06
   step length   :     0.1127848 a0     speed     :   0.6775826E-02

........................................................................
.............................. CYCLE   31 ..............................
........................................................................

 iter      E             dE          RMSdq      gap      omega  full diag
   1  -5197.5133206 -0.519751E+04  0.767E-03    3.87       0.0  T
   2  -5197.5133231 -0.253951E-05  0.455E-03    3.87       1.0  T
   3  -5197.5133189  0.420900E-05  0.117E-03    3.87       1.4  T
   4  -5197.5133244 -0.551514E-05  0.252E-04    3.87       6.4  T
   5  -5197.5133245 -0.927312E-07  0.184E-04    3.87       8.7  T
   6  -5197.5133246 -0.750397E-07  0.124E-04    3.87      12.9  T
     SCC iter.                  ...       21 min, 11.347 sec
     gradient                   ...        4 min, 47.401 sec
 * total energy  : -5104.0580701 Eh     change    :  -0.4321061E-02 Eh
   gradient norm :     0.0559222 Eh/a0  converged?    E=F G=F D=F
   time step     :     0.4428903 fs     power     :   0.1144817E-06
   step length   :     0.1262517 a0     speed     :   0.6895350E-02

........................................................................
.............................. CYCLE   32 ..............................
........................................................................

 iter      E             dE          RMSdq      gap      omega  full diag
   1  -5197.5581736 -0.519756E+04  0.767E-03    3.86       0.0  T
   2  -5197.5581762 -0.254917E-05  0.457E-03    3.86       1.0  T
   3  -5197.5581726  0.355144E-05  0.105E-03    3.86       1.5  T
   4  -5197.5581772 -0.456647E-05  0.226E-04    3.86       7.1  T
   5  -5197.5581773 -0.821592E-07  0.146E-04    3.86      11.0  T
   6  -5197.5581773 -0.356567E-07  0.983E-05    3.86      16.4  T
     SCC iter.                  ...       21 min,  3.996 sec
     gradient                   ...        4 min, 46.204 sec
 * total energy  : -5104.0628312 Eh     change    :  -0.4761169E-02 Eh
   gradient norm :     0.0563159 Eh/a0  converged?    E=F G=F D=F
   time step     :     0.4871793 fs     power     :   0.1166820E-06
   step length   :     0.1412524 a0     speed     :   0.7013297E-02

........................................................................
.............................. CYCLE   33 ..............................
........................................................................

 iter      E             dE          RMSdq      gap      omega  full diag
   1  -5197.6219535 -0.519762E+04  0.793E-03    3.86       0.0  T
   2  -5197.6219562 -0.268106E-05  0.473E-03    3.86       1.0  T
   3  -5197.6219545  0.171739E-05  0.763E-04    3.86       2.1  T
   4  -5197.6219568 -0.228129E-05  0.225E-04    3.86       7.1  T
   5  -5197.6219569 -0.111027E-06  0.108E-04    3.86      14.8  T
   6  -5197.6219569 -0.106857E-07  0.578E-05    3.86      27.8  T
     SCC iter.                  ...       21 min,  9.944 sec
     gradient                   ...        4 min, 45.160 sec
 * total energy  : -5104.0682560 Eh     change    :  -0.5424734E-02 Eh
   gradient norm :     0.0522781 Eh/a0  converged?    E=F G=F D=F
   time step     :     0.5358972 fs     power     :   0.1214270E-06
   step length   :     0.1588372 a0     speed     :   0.7169451E-02

........................................................................
.............................. CYCLE   34 ..............................
........................................................................

 iter      E             dE          RMSdq      gap      omega  full diag
   1  -5197.7083950 -0.519771E+04  0.866E-03    3.87       0.0  T
   2  -5197.7083991 -0.410807E-05  0.518E-03    3.87       1.0  T
   3  -5197.7083916  0.748127E-05  0.139E-03    3.87       1.2  T
   4  -5197.7084005 -0.892320E-05  0.256E-04    3.87       6.3  T
   5  -5197.7084007 -0.174698E-06  0.118E-04    3.87      13.6  T
   6  -5197.7084007 -0.817090E-08  0.569E-05    3.87      28.3  T
     SCC iter.                  ...       21 min,  8.954 sec
     gradient                   ...        4 min, 45.729 sec
 * total energy  : -5104.0741327 Eh     change    :  -0.5876753E-02 Eh
   gradient norm :     0.0440447 Eh/a0  converged?    E=F G=F D=F
   time step     :     0.5894869 fs     power     :   0.1152921E-06
   step length   :     0.1801764 a0     speed     :   0.7393309E-02

........................................................................
.............................. CYCLE   35 ..............................
........................................................................

 iter      E             dE          RMSdq      gap      omega  full diag
   1  -5197.8244027 -0.519782E+04  0.945E-03    3.87       0.0  T
   2  -5197.8244089 -0.619543E-05  0.573E-03    3.87       1.0  T
   3  -5197.8243900  0.189089E-04  0.216E-03    3.87       1.0  T
   4  -5197.8244129 -0.229193E-04  0.292E-04    3.87       5.5  T
   5  -5197.8244131 -0.192253E-06  0.144E-04    3.87      11.2  T
   6  -5197.8244131 -0.127511E-07  0.726E-05    3.87      22.2  T
     SCC iter.                  ...       21 min, 10.180 sec
     gradient                   ...        4 min, 48.868 sec
 * total energy  : -5104.0798044 Eh     change    :  -0.5671655E-02 Eh
   gradient norm :     0.0415324 Eh/a0  converged?    E=F G=F D=F
   time step     :     0.6484356 fs     power     :   0.9538212E-07
   step length   :     0.2047803 a0     speed     :   0.7638999E-02

........................................................................
.............................. CYCLE   36 ..............................
........................................................................

 iter      E             dE          RMSdq      gap      omega  full diag
   1  -5197.9722793 -0.519797E+04  0.977E-03    3.87       0.0  T
   2  -5197.9722862 -0.690310E-05  0.596E-03    3.87       1.0  T
   3  -5197.9722623  0.239209E-04  0.240E-03    3.87       1.0  T
   4  -5197.9722913 -0.290287E-04  0.287E-04    3.87       5.6  T
   5  -5197.9722915 -0.158675E-06  0.140E-04    3.87      11.5  T
   6  -5197.9722915 -0.861382E-08  0.681E-05    3.87      23.6  T
     SCC iter.                  ...       21 min,  6.549 sec
     gradient                   ...        4 min, 45.910 sec
 * total energy  : -5104.0851650 Eh     change    :  -0.5360608E-02 Eh
   gradient norm :     0.0429645 Eh/a0  converged?    E=F G=F D=F
   time step     :     0.7132792 fs     power     :   0.8163796E-07
   step length   :     0.2293840 a0     speed     :   0.7778909E-02

........................................................................
.............................. CYCLE   37 ..............................
........................................................................

 iter      E             dE          RMSdq      gap      omega  full diag
   1  -5198.1383128 -0.519814E+04  0.102E-02    3.87       0.0  T
   2  -5198.1383219 -0.911664E-05  0.609E-03    3.87       1.0  T
   3  -5198.1383054  0.164579E-04  0.225E-03    3.87       1.0  T
   4  -5198.1383256 -0.201364E-04  0.355E-04    3.87       4.5  T
   5  -5198.1383259 -0.333745E-06  0.144E-04    3.87      11.2  T
   6  -5198.1383259 -0.813634E-08  0.791E-05    3.87      20.3  T
     SCC iter.                  ...       21 min, 10.372 sec
     gradient                   ...        4 min, 49.298 sec
 * total energy  : -5104.0905431 Eh     change    :  -0.5378117E-02 Eh
   gradient norm :     0.0400387 Eh/a0  converged?    E=F G=F D=F
   time step     :     0.7846071 fs     power     :   0.7310023E-07
   step length   :     0.2543961 a0     speed     :   0.7842839E-02

........................................................................
.............................. CYCLE   38 ..............................
........................................................................

 iter      E             dE          RMSdq      gap      omega  full diag
   1  -5198.2859664 -0.519829E+04  0.105E-02    3.86       0.0  T
   2  -5198.2859756 -0.927203E-05  0.617E-03    3.86       1.0  T
   3  -5198.2859672  0.839047E-05  0.183E-03    3.86       1.0  T
   4  -5198.2859777 -0.104693E-04  0.351E-04    3.86       4.6  T
   5  -5198.2859780 -0.294801E-06  0.151E-04    3.86      10.6  T
   6  -5198.2859780 -0.119871E-07  0.871E-05    3.86      18.5  T
     SCC iter.                  ...       21 min,  8.604 sec
     gradient                   ...        4 min, 45.908 sec
 * total energy  : -5104.0958606 Eh     change    :  -0.5317526E-02 Eh
   gradient norm :     0.0426922 Eh/a0  converged?    E=F G=F D=F
   time step     :     0.8630678 fs     power     :   0.6432996E-07
   step length   :     0.2815077 a0     speed     :   0.7889700E-02

........................................................................
.............................. CYCLE   39 ..............................
........................................................................

 iter      E             dE          RMSdq      gap      omega  full diag
   1  -5198.3646310 -0.519836E+04  0.104E-02    3.87       0.0  T
   2  -5198.3646355 -0.447376E-05  0.617E-03    3.87       1.0  T
   3  -5198.3646298  0.564570E-05  0.134E-03    3.87       1.2  T
   4  -5198.3646368 -0.701371E-05  0.262E-04    3.87       6.1  T
   5  -5198.3646370 -0.126377E-06  0.134E-04    3.87      12.0  T
   6  -5198.3646370 -0.897307E-08  0.581E-05    3.87      27.7  T
     SCC iter.                  ...       21 min,  6.899 sec
     gradient                   ...        4 min, 45.384 sec
 * total energy  : -5104.1017672 Eh     change    :  -0.5906535E-02 Eh
   gradient norm :     0.0420138 Eh/a0  converged?    E=F G=F D=F
   time step     :     0.9493746 fs     power     :   0.6865056E-07
   step length   :     0.3102249 a0     speed     :   0.7904133E-02

........................................................................
.............................. CYCLE   40 ..............................
........................................................................

 iter      E             dE          RMSdq      gap      omega  full diag
   1  -5198.3407171 -0.519834E+04  0.109E-02    3.87       0.0  T
   2  -5198.3407260 -0.888258E-05  0.656E-03    3.87       1.0  T
   3  -5198.3407112  0.147618E-04  0.201E-03    3.87       1.0  T
   4  -5198.3407294 -0.182236E-04  0.371E-04    3.87       4.3  T
   5  -5198.3407297 -0.287872E-06  0.229E-04    3.87       7.0  T
   6  -5198.3407298 -0.570153E-07  0.151E-04    3.87      10.7  T
     SCC iter.                  ...       21 min,  8.529 sec
     gradient                   ...        4 min, 44.506 sec
 * total energy  : -5104.1084728 Eh     change    :  -0.6705657E-02 Eh
   gradient norm :     0.0392001 Eh/a0  converged?    E=F G=F D=F
   time step     :     1.0443120 fs     power     :   0.6891482E-07
   step length   :     0.3455698 a0     speed     :   0.8004249E-02

........................................................................
.............................. CYCLE   41 ..............................
........................................................................

 iter      E             dE          RMSdq      gap      omega  full diag
   1  -5198.2361701 -0.519824E+04  0.122E-02    3.86       0.0  T
   2  -5198.2361866 -0.164485E-04  0.733E-03    3.86       1.0  T
   3  -5198.2361723  0.142425E-04  0.218E-03    3.86       1.0  T
   4  -5198.2361902 -0.178367E-04  0.527E-04    3.86       3.0  T
   5  -5198.2361910 -0.790348E-06  0.262E-04    3.86       6.1  T
   6  -5198.2361910 -0.628961E-07  0.170E-04    3.86       9.5  T
     SCC iter.                  ...       21 min,  8.742 sec
     gradient                   ...        4 min, 44.727 sec
 * total energy  : -5104.1154648 Eh     change    :  -0.6991980E-02 Eh
   gradient norm :     0.0359371 Eh/a0  converged?    E=F G=F D=F
   time step     :     1.1487432 fs     power     :   0.6168699E-07
   step length   :     0.3871575 a0     speed     :   0.8152294E-02

........................................................................
.............................. CYCLE   42 ..............................
........................................................................

 iter      E             dE          RMSdq      gap      omega  full diag
   1  -5198.1291355 -0.519813E+04  0.135E-02    3.86       0.0  T
   2  -5198.1291448 -0.925574E-05  0.808E-03    3.86       1.0  T
   3  -5198.1291278  0.169569E-04  0.247E-03    3.86       1.0  T
   4  -5198.1291486 -0.208083E-04  0.376E-04    3.86       4.3  T
   5  -5198.1291488 -0.210294E-06  0.195E-04    3.86       8.3  T
   6  -5198.1291488 -0.162190E-07  0.857E-05    3.86      18.8  T
     SCC iter.                  ...       21 min,  9.521 sec
     gradient                   ...        4 min, 48.197 sec
 * total energy  : -5104.1222420 Eh     change    :  -0.6777210E-02 Eh
   gradient norm :     0.0369374 Eh/a0  converged?    E=F G=F D=F
   time step     :     1.2500000 fs     power     :   0.5362579E-07
   step length   :     0.4272793 a0     speed     :   0.8268313E-02
 * RMSD in coord.:     0.0548602 a0     energy gain  -0.1029043E+00 Eh

........................................................................
.............................. CYCLE   43 ..............................
........................................................................

 iter      E             dE          RMSdq      gap      omega  full diag
   1  -5198.1161008 -0.519812E+04  0.232E-03    3.86       0.0  T
   2  -5198.1161011 -0.314351E-06  0.141E-03    3.86       1.1  T
   3  -5198.1160999  0.117743E-05  0.546E-04    3.86       2.9  T
   4  -5198.1161013 -0.141414E-05  0.660E-05    3.86      24.4  T
   5  -5198.1161013 -0.843283E-08  0.354E-05    3.86      45.4  T
   6  -5198.1161013 -0.105956E-08  0.168E-05    3.86      96.0  T
     SCC iter.                  ...       21 min,  5.648 sec
     gradient                   ...        4 min, 44.444 sec
 * total energy  : -5104.1235022 Eh     change    :  -0.1260232E-02 Eh
   gradient norm :     0.0362062 Eh/a0  converged?    E=F G=F D=F
   time step     :     0.2500000 fs     power     :   0.6450722E-07
   step length   :     0.0809765 a0     speed     :   0.7834912E-02

........................................................................
.............................. CYCLE   44 ..............................
........................................................................

 iter      E             dE          RMSdq      gap      omega  full diag
   1  -5198.1115590 -0.519811E+04  0.230E-03    3.86       0.0  T
   2  -5198.1115595 -0.575078E-06  0.143E-03    3.86       1.1  T
   3  -5198.1115581  0.148111E-05  0.643E-04    3.86       2.5  T
   4  -5198.1115600 -0.192961E-05  0.788E-05    3.86      20.4  T
   5  -5198.1115600 -0.170185E-07  0.353E-05    3.86      45.6  T
   6  -5198.1115600 -0.931323E-09  0.183E-05    3.86      87.8  T
     SCC iter.                  ...       21 min, 10.259 sec
     gradient                   ...        4 min, 47.523 sec
 * total energy  : -5104.1249068 Eh     change    :  -0.1404525E-02 Eh
   gradient norm :     0.0326245 Eh/a0  converged?    E=F G=F D=F
   time step     :     0.2500000 fs     power     :   0.7138431E-07
   step length   :     0.0776738 a0     speed     :   0.7515355E-02

........................................................................
.............................. CYCLE   45 ..............................
........................................................................

 iter      E             dE          RMSdq      gap      omega  full diag
   1  -5198.1156086 -0.519812E+04  0.249E-03    3.86       0.0  T
   2  -5198.1156095 -0.883661E-06  0.157E-03    3.86       1.0  T
   3  -5198.1156078  0.168511E-05  0.730E-04    3.86       2.2  T
   4  -5198.1156101 -0.235055E-05  0.957E-05    3.86      16.8  T
   5  -5198.1156101 -0.255977E-07  0.429E-05    3.86      37.5  T
   6  -5198.1156101 -0.135242E-08  0.242E-05    3.86      66.4  T
     SCC iter.                  ...       21 min,  7.327 sec
     gradient                   ...        4 min, 48.013 sec
 * total energy  : -5104.1263460 Eh     change    :  -0.1439247E-02 Eh
   gradient norm :     0.0284536 Eh/a0  converged?    E=F G=F D=F
   time step     :     0.2500000 fs     power     :   0.7175591E-07
   step length   :     0.0754904 a0     speed     :   0.7304103E-02

........................................................................
.............................. CYCLE   46 ..............................
........................................................................

 iter      E             dE          RMSdq      gap      omega  full diag
   1  -5198.1283886 -0.519813E+04  0.268E-03    3.86       0.0  T
   2  -5198.1283895 -0.943221E-06  0.168E-03    3.86       1.0  T
   3  -5198.1283875  0.199981E-05  0.769E-04    3.86       2.1  T
   4  -5198.1283902 -0.269446E-05  0.100E-04    3.86      16.1  T
   5  -5198.1283902 -0.254831E-07  0.485E-05    3.86      33.2  T
   6  -5198.1283902 -0.197906E-08  0.278E-05    3.86      57.8  T
     SCC iter.                  ...       21 min,  7.989 sec
     gradient                   ...        4 min, 47.573 sec
 * total energy  : -5104.1277243 Eh     change    :  -0.1378242E-02 Eh
   gradient norm :     0.0262059 Eh/a0  converged?    E=F G=F D=F
   time step     :     0.2500000 fs     power     :   0.6778505E-07
   step length   :     0.0740890 a0     speed     :   0.7168506E-02

........................................................................
.............................. CYCLE   47 ..............................
........................................................................

 iter      E             dE          RMSdq      gap      omega  full diag
   1  -5198.1493588 -0.519815E+04  0.274E-03    3.87       0.0  T
   2  -5198.1493595 -0.697372E-06  0.167E-03    3.87       1.0  T
   3  -5198.1493576  0.194870E-05  0.705E-04    3.86       2.3  T
   4  -5198.1493600 -0.243341E-05  0.921E-05    3.87      17.5  T
   5  -5198.1493600 -0.187956E-07  0.484E-05    3.86      33.2  T
   6  -5198.1493600 -0.181171E-08  0.276E-05    3.86      58.4  T
     SCC iter.                  ...       21 min, 11.689 sec
     gradient                   ...        4 min, 46.485 sec
 * total energy  : -5104.1290185 Eh     change    :  -0.1294215E-02 Eh
   gradient norm :     0.0262372 Eh/a0  converged?    E=F G=F D=F
   time step     :     0.2500000 fs     power     :   0.6392330E-07
   step length   :     0.0728755 a0     speed     :   0.7051098E-02

........................................................................
.............................. CYCLE   48 ..............................
........................................................................

 iter      E             dE          RMSdq      gap      omega  full diag
   1  -5198.1798315 -0.519818E+04  0.294E-03    3.86       0.0  T
   2  -5198.1798320 -0.476505E-06  0.176E-03    3.86       1.0  T
   3  -5198.1798306  0.133604E-05  0.577E-04    3.86       2.8  T
   4  -5198.1798322 -0.160121E-05  0.879E-05    3.86      18.3  T
   5  -5198.1798323 -0.158152E-07  0.477E-05    3.86      33.7  T
   6  -5198.1798323 -0.151795E-08  0.252E-05    3.86      63.9  T
     SCC iter.                  ...       21 min, 10.724 sec
     gradient                   ...        4 min, 45.384 sec
 * total energy  : -5104.1303872 Eh     change    :  -0.1368772E-02 Eh
   gradient norm :     0.0268299 Eh/a0  converged?    E=F G=F D=F
   time step     :     0.2750000 fs     power     :   0.6204533E-07
   step length   :     0.0787423 a0     speed     :   0.6926124E-02

........................................................................
.............................. CYCLE   49 ..............................
........................................................................

 iter      E             dE          RMSdq      gap      omega  full diag
   1  -5198.2189089 -0.519822E+04  0.309E-03    3.86       0.0  T
   2  -5198.2189093 -0.355236E-06  0.183E-03    3.86       1.0  T
   3  -5198.2189088  0.511576E-06  0.429E-04    3.86       3.8  T
   4  -5198.2189094 -0.649446E-06  0.788E-05    3.86      20.4  T
     SCC iter.                  ...       14 min,  5.269 sec
     gradient                   ...        4 min, 46.972 sec
 * total energy  : -5104.1318747 Eh     change    :  -0.1487421E-02 Eh
   gradient norm :     0.0265191 Eh/a0  converged?    E=F G=F D=F
   time step     :     0.3025000 fs     power     :   0.6177624E-07
   step length   :     0.0851003 a0     speed     :   0.6804885E-02

........................................................................
.............................. CYCLE   50 ..............................
........................................................................

 iter      E             dE          RMSdq      gap      omega  full diag
   1  -5198.2647705 -0.519826E+04  0.325E-03    3.86       0.0  T
   2  -5198.2647709 -0.415423E-06  0.193E-03    3.86       1.0  T
   3  -5198.2647700  0.869873E-06  0.513E-04    3.86       3.1  T
   4  -5198.2647711 -0.107332E-05  0.777E-05    3.86      20.7  T
   5  -5198.2647711 -0.704586E-08  0.457E-05    3.86      35.2  T
     SCC iter.                  ...       17 min, 36.851 sec
     gradient                   ...        4 min, 52.398 sec
 * total energy  : -5104.1334990 Eh     change    :  -0.1624297E-02 Eh
   gradient norm :     0.0250076 Eh/a0  converged?    E=F G=F D=F
   time step     :     0.3327500 fs     power     :   0.6119258E-07
   step length   :     0.0923503 a0     speed     :   0.6713289E-02

........................................................................
.............................. CYCLE   51 ..............................
........................................................................

 iter      E             dE          RMSdq      gap      omega  full diag
   1  -5198.3141717 -0.519831E+04  0.343E-03    3.86       0.0  T
   2  -5198.3141722 -0.574339E-06  0.206E-03    3.86       1.0  T
   3  -5198.3141706  0.160523E-05  0.626E-04    3.86       2.6  T
   4  -5198.3141726 -0.193162E-05  0.887E-05    3.86      18.1  T
   5  -5198.3141726 -0.118125E-07  0.493E-05    3.86      32.6  T
   6  -5198.3141726 -0.150521E-08  0.231E-05    3.86      69.7  T
     SCC iter.                  ...       21 min,  3.489 sec
     gradient                   ...        4 min, 51.314 sec
 * total energy  : -5104.1352344 Eh     change    :  -0.1735430E-02 Eh
   gradient norm :     0.0229153 Eh/a0  converged?    E=F G=F D=F
   time step     :     0.3660250 fs     power     :   0.5877263E-07
   step length   :     0.1008339 a0     speed     :   0.6663629E-02

........................................................................
.............................. CYCLE   52 ..............................
........................................................................

 iter      E             dE          RMSdq      gap      omega  full diag
   1  -5198.3617704 -0.519836E+04  0.364E-03    3.86       0.0  T
   2  -5198.3617711 -0.670063E-06  0.218E-03    3.86       1.0  T
   3  -5198.3617697  0.140035E-05  0.598E-04    3.86       2.7  T
   4  -5198.3617714 -0.170025E-05  0.104E-04    3.86      15.5  T
   5  -5198.3617714 -0.203236E-07  0.544E-05    3.86      29.6  T
   6  -5198.3617714 -0.106320E-08  0.240E-05    3.86      67.0  T
     SCC iter.                  ...       21 min,  7.708 sec
     gradient                   ...        4 min, 50.310 sec
 * total energy  : -5104.1370291 Eh     change    :  -0.1794661E-02 Eh
   gradient norm :     0.0215219 Eh/a0  converged?    E=F G=F D=F
   time step     :     0.4026275 fs     power     :   0.5447427E-07
   step length   :     0.1106413 a0     speed     :   0.6647049E-02

........................................................................
.............................. CYCLE   53 ..............................
........................................................................

 iter      E             dE          RMSdq      gap      omega  full diag
   1  -5198.4003071 -0.519840E+04  0.380E-03    3.87       0.0  T
   2  -5198.4003078 -0.751675E-06  0.226E-03    3.87       1.0  T
   3  -5198.4003068  0.102969E-05  0.587E-04    3.87       2.7  T
   4  -5198.4003081 -0.130993E-05  0.104E-04    3.87      15.4  T
   5  -5198.4003081 -0.175014E-07  0.601E-05    3.87      26.8  T
   6  -5198.4003081 -0.253658E-08  0.277E-05    3.87      58.1  T
     SCC iter.                  ...       21 min,  5.814 sec
     gradient                   ...        4 min, 48.225 sec
 * total energy  : -5104.1388610 Eh     change    :  -0.1831968E-02 Eh
   gradient norm :     0.0222139 Eh/a0  converged?    E=F G=F D=F
   time step     :     0.4428903 fs     power     :   0.5045296E-07
   step length   :     0.1214285 a0     speed     :   0.6631927E-02

........................................................................
.............................. CYCLE   54 ..............................
........................................................................

 iter      E             dE          RMSdq      gap      omega  full diag
   1  -5198.4234692 -0.519842E+04  0.393E-03    3.87       0.0  T
   2  -5198.4234702 -0.916116E-06  0.235E-03    3.87       1.0  T
   3  -5198.4234674  0.278540E-05  0.852E-04    3.87       1.9  T
   4  -5198.4234708 -0.338272E-05  0.111E-04    3.87      14.5  T
   5  -5198.4234708 -0.228547E-07  0.671E-05    3.87      24.0  T
   6  -5198.4234708 -0.390173E-08  0.358E-05    3.87      44.9  T
     SCC iter.                  ...       21 min,  8.535 sec
     gradient                   ...        4 min, 43.713 sec
 * total energy  : -5104.1408055 Eh     change    :  -0.1944454E-02 Eh
   gradient norm :     0.0233950 Eh/a0  converged?    E=F G=F D=F
   time step     :     0.4871793 fs     power     :   0.4959936E-07
   step length   :     0.1326405 a0     speed     :   0.6585706E-02

........................................................................
.............................. CYCLE   55 ..............................
........................................................................

 iter      E             dE          RMSdq      gap      omega  full diag
   1  -5198.4283440 -0.519843E+04  0.417E-03    3.87       0.0  T
   2  -5198.4283452 -0.113982E-05  0.250E-03    3.87       1.0  T
   3  -5198.4283409  0.422936E-05  0.103E-03    3.87       1.6  T
   4  -5198.4283461 -0.512790E-05  0.109E-04    3.87      14.7  T
   5  -5198.4283461 -0.186883E-07  0.657E-05    3.87      24.5  T
   6  -5198.4283461 -0.306409E-08  0.351E-05    3.87      45.9  T
     SCC iter.                  ...       21 min,  7.225 sec
     gradient                   ...        4 min, 45.120 sec
 * total energy  : -5104.1429647 Eh     change    :  -0.2159195E-02 Eh
   gradient norm :     0.0218916 Eh/a0  converged?    E=F G=F D=F
   time step     :     0.5358972 fs     power     :   0.5041375E-07
   step length   :     0.1448810 a0     speed     :   0.6539508E-02

........................................................................
.............................. CYCLE   56 ..............................
........................................................................

 iter      E             dE          RMSdq      gap      omega  full diag
   1  -5198.4150043 -0.519842E+04  0.455E-03    3.86       0.0  T
   2  -5198.4150055 -0.127519E-05  0.271E-03    3.86       1.0  T
   3  -5198.4150022  0.335834E-05  0.989E-04    3.86       1.6  T
   4  -5198.4150062 -0.404755E-05  0.124E-04    3.86      12.9  T
   5  -5198.4150063 -0.312257E-07  0.641E-05    3.86      25.1  T
   6  -5198.4150063 -0.155524E-08  0.291E-05    3.86      55.2  T
     SCC iter.                  ...       21 min,  6.293 sec
     gradient                   ...        4 min, 50.343 sec
 * total energy  : -5104.1452905 Eh     change    :  -0.2325779E-02 Eh
   gradient norm :     0.0191747 Eh/a0  converged?    E=F G=F D=F
   time step     :     0.5894869 fs     power     :   0.4818724E-07
   step length   :     0.1595629 a0     speed     :   0.6547461E-02

........................................................................
.............................. CYCLE   57 ..............................
........................................................................

 iter      E             dE          RMSdq      gap      omega  full diag
   1  -5198.3874056 -0.519839E+04  0.489E-03    3.86       0.0  T
   2  -5198.3874067 -0.104016E-05  0.290E-03    3.86       1.0  T
   3  -5198.3874050  0.169070E-05  0.774E-04    3.86       2.1  T
   4  -5198.3874071 -0.209957E-05  0.123E-04    3.86      13.1  T
   5  -5198.3874071 -0.185528E-07  0.714E-05    3.86      22.5  T
   6  -5198.3874071 -0.398995E-08  0.374E-05    3.86      43.1  T
     SCC iter.                  ...       21 min,  8.060 sec
     gradient                   ...        4 min, 46.354 sec
 * total energy  : -5104.1476599 Eh     change    :  -0.2369490E-02 Eh
   gradient norm :     0.0192357 Eh/a0  converged?    E=F G=F D=F
[...]
  3613   6 C     3614   6 C                                       1.3829110
  3608   6 C     3615   6 C                                       1.5390930
  3617   6 C     3618   6 C                                       1.3904704
  3618   6 C     3619   6 C                                       1.3823205
  3619   6 C     3620   6 C                                       1.3844815
  3620   6 C     3621   6 C                                       1.3833300
  3617   6 C     3622   6 C                                       1.3885697
  3621   6 C     3622   6 C                                       1.3836758
  3616   6 C     3623   6 C                                       1.5370849
  3623   6 C     3624   6 C                                       1.5350825
  3625   6 C     3626   6 C                                       1.3887662
  3626   6 C     3627   6 C                                       1.3834640
  3627   6 C     3628   6 C                                       1.3829918
  3628   6 C     3629   6 C                                       1.3840788
  3625   6 C     3630   6 C                                       1.3900844
  3629   6 C     3630   6 C                                       1.3818603
  3624   6 C     3631   6 C                                       1.5366333
  3631   6 C     3632   6 C                                       1.5357312
  3633   6 C     3634   6 C                                       1.3909982
  3634   6 C     3635   6 C                                       1.3823131
  3635   6 C     3636   6 C                                       1.3842323
  3636   6 C     3637   6 C                                       1.3835955
  3633   6 C     3638   6 C                                       1.3895951
  3637   6 C     3638   6 C                                       1.3843667
  3632   6 C     3639   6 C                                       1.5375970
  3639   6 C     3640   6 C                                       1.5383356
  3641   6 C     3642   6 C                                       1.3906502
  3642   6 C     3643   6 C                                       1.3830427
  3643   6 C     3644   6 C                                       1.3847910
  3644   6 C     3645   6 C                                       1.3847478
  3641   6 C     3646   6 C                                       1.3892246
  3645   6 C     3646   6 C                                       1.3844790
  3640   6 C     3647   6 C                                       1.5362497
  3647   6 C     3648   6 C                                       1.5339726
  3649   6 C     3650   6 C                                       1.3905901
  3650   6 C     3651   6 C                                       1.3824770
  3651   6 C     3652   6 C                                       1.3847963
  3652   6 C     3653   6 C                                       1.3839034
  3649   6 C     3654   6 C                                       1.3895478
  3653   6 C     3654   6 C                                       1.3847524
  3655   6 C     3656   6 C                                       1.5368476
  3657   6 C     3658   6 C                                       1.3876915
  3658   6 C     3659   6 C                                       1.3840025
  3659   6 C     3660   6 C                                       1.3835184
  3660   6 C     3661   6 C                                       1.3848881
  3657   6 C     3662   6 C                                       1.3911011
  3661   6 C     3662   6 C                                       1.3833183
  3665   6 C     3666   6 C                                       1.3889462
  3666   6 C     3667   6 C                                       1.3845160
  3667   6 C     3668   6 C                                       1.3834768
  3668   6 C     3669   6 C                                       1.3854614
  3665   6 C     3670   6 C                                       1.3908101
  3669   6 C     3670   6 C                                       1.3827009
  3664   6 C     3671   6 C                                       1.5404781
  3671   6 C     3672   6 C                                       1.5373089
  3673   6 C     3674   6 C                                       1.3893482
  3674   6 C     3675   6 C                                       1.3836884
  3675   6 C     3676   6 C                                       1.3838959
  3676   6 C     3677   6 C                                       1.3846223
  3673   6 C     3678   6 C                                       1.3902768
  3677   6 C     3678   6 C                                       1.3832075
  3672   6 C     3679   6 C                                       1.5332378
  3679   6 C     3680   6 C                                       1.5351975
  3681   6 C     3682   6 C                                       1.3904471
  3682   6 C     3683   6 C                                       1.3826676
  3683   6 C     3684   6 C                                       1.3837316
  3684   6 C     3685   6 C                                       1.3841068
  3681   6 C     3686   6 C                                       1.3893020
  3685   6 C     3686   6 C                                       1.3840903
  3680   6 C     3687   6 C                                       1.5357650
  3687   6 C     3688   6 C                                       1.5336689
  3549   6 C     3689   1 H                                       1.0972177
  3551   6 C     3690   1 H                                       1.0929374
  3551   6 C     3691   1 H                                       1.0917578
  3552   6 C     3692   1 H                                       1.0949093
  3559   6 C     3693   1 H                                       1.0924416
  3559   6 C     3694   1 H                                       1.0916711
  3560   6 C     3695   1 H                                       1.0965261
  3567   6 C     3696   1 H                                       1.0922037
  3567   6 C     3697   1 H                                       1.0921337
  3568   6 C     3698   1 H                                       1.0958111
  3575   6 C     3699   1 H                                       1.0909231
  3576   6 C     3700   1 H                                       1.0969064
  3583   6 C     3701   1 H                                       1.0938550
  3583   6 C     3702   1 H                                       1.0894613
  3584   6 C     3703   1 H                                       1.0961381
  3591   6 C     3704   1 H                                       1.0907111
  3591   6 C     3705   1 H                                       1.0884670
  3592   6 C     3706   1 H                                       1.0963431
  3599   6 C     3707   1 H                                       1.0897607
  3599   6 C     3708   1 H                                       1.0922626
  3600   6 C     3709   1 H                                       1.0945317
  3608   6 C     3710   1 H                                       1.0922031
  3615   6 C     3711   1 H                                       1.0933436
  3615   6 C     3712   1 H                                       1.0925329
  3616   6 C     3713   1 H                                       1.0953380
  3623   6 C     3714   1 H                                       1.0887760
  3623   6 C     3715   1 H                                       1.0875868
  3624   6 C     3716   1 H                                       1.0972228
  3631   6 C     3717   1 H                                       1.0914482
  3631   6 C     3718   1 H                                       1.0919240
  3632   6 C     3719   1 H                                       1.0965817
  3639   6 C     3720   1 H                                       1.0904633
  3639   6 C     3721   1 H                                       1.0917670
  3640   6 C     3722   1 H                                       1.0950319
  3647   6 C     3723   1 H                                       1.0910993
  3647   6 C     3724   1 H                                       1.0915406
  3648   6 C     3725   1 H                                       1.0937746
  3655   6 C     3726   1 H                                       1.0925564
  3655   6 C     3727   1 H                                       1.0918070
  3656   6 C     3728   1 H                                       1.0949093
  3663   6 C     3729   1 H                                       1.0909139
  3663   6 C     3730   1 H                                       1.0910377
  3664   6 C     3731   1 H                                       1.0941856
  3671   6 C     3732   1 H                                       1.0923320
  3671   6 C     3733   1 H                                       1.0932400
  3672   6 C     3734   1 H                                       1.0923649
  3679   6 C     3735   1 H                                       1.0922547
  3679   6 C     3736   1 H                                       1.0914097
  3543   6 C     3737   1 H                                       1.0805514
  3548   6 C     3738   1 H                                       1.0809122
  3547   6 C     3739   1 H                                       1.0796154
  3546   6 C     3740   1 H                                       1.0816125
  3545   6 C     3741   1 H                                       1.0819402
  3554   6 C     3742   1 H                                       1.0815075
  3555   6 C     3743   1 H                                       1.0808662
  3556   6 C     3744   1 H                                       1.0821838
  3557   6 C     3745   1 H                                       1.0794683
  3558   6 C     3746   1 H                                       1.0791961
  3562   6 C     3747   1 H                                       1.0816528
  3563   6 C     3748   1 H                                       1.0812097
  3564   6 C     3749   1 H                                       1.0805993
  3565   6 C     3750   1 H                                       1.0810229
  3566   6 C     3751   1 H                                       1.0800233
  3570   6 C     3752   1 H                                       1.0808959
  3571   6 C     3753   1 H                                       1.0812637
  3572   6 C     3754   1 H                                       1.0819592
  3573   6 C     3755   1 H                                       1.0801093
  3574   6 C     3756   1 H                                       1.0811221
  3575   6 C     3757   1 H                                       1.0924207
  3578   6 C     3758   1 H                                       1.0815200
  3579   6 C     3759   1 H                                       1.0808943
  3580   6 C     3760   1 H                                       1.0801581
  3581   6 C     3761   1 H                                       1.0795958
  3582   6 C     3762   1 H                                       1.0793860
  3586   6 C     3763   1 H                                       1.0798127
  3587   6 C     3764   1 H                                       1.0820041
  3588   6 C     3765   1 H                                       1.0814574
  3589   6 C     3766   1 H                                       1.0812138
  3590   6 C     3767   1 H                                       1.0797468
  3594   6 C     3768   1 H                                       1.0785182
  3595   6 C     3769   1 H                                       1.0807888
  3596   6 C     3770   1 H                                       1.0808327
  3597   6 C     3771   1 H                                       1.0805580
  3598   6 C     3772   1 H                                       1.0807312
  3602   6 C     3773   1 H                                       1.0805042
  3603   6 C     3774   1 H                                       1.0802589
  3604   6 C     3775   1 H                                       1.0811931
  3605   6 C     3776   1 H                                       1.0811534
  3606   6 C     3777   1 H                                       1.0799209
  3607   6 C     3778   1 H                                       1.0894637
  3607   6 C     3779   1 H                                       1.0922724
  3610   6 C     3780   1 H                                       1.0812057
  3611   6 C     3781   1 H                                       1.0796343
  3612   6 C     3782   1 H                                       1.0799233
  3613   6 C     3783   1 H                                       1.0809956
  3614   6 C     3784   1 H                                       1.0812730
  3618   6 C     3785   1 H                                       1.0801934
  3619   6 C     3786   1 H                                       1.0810312
  3620   6 C     3787   1 H                                       1.0803314
  3621   6 C     3788   1 H                                       1.0815056
  3622   6 C     3789   1 H                                       1.0819093
  3626   6 C     3790   1 H                                       1.0821488
  3627   6 C     3791   1 H                                       1.0815902
  3628   6 C     3792   1 H                                       1.0811542
  3629   6 C     3793   1 H                                       1.0812129
  3630   6 C     3794   1 H                                       1.0805509
  3634   6 C     3795   1 H                                       1.0799090
  3635   6 C     3796   1 H                                       1.0795045
  3636   6 C     3797   1 H                                       1.0804367
  3637   6 C     3798   1 H                                       1.0817576
  3638   6 C     3799   1 H                                       1.0823451
  3642   6 C     3800   1 H                                       1.0796358
  3643   6 C     3801   1 H                                       1.0816453
  3644   6 C     3802   1 H                                       1.0810688
  3645   6 C     3803   1 H                                       1.0814207
  3646   6 C     3804   1 H                                       1.0817648
  3650   6 C     3805   1 H                                       1.0787502
  3651   6 C     3806   1 H                                       1.0803341
  3652   6 C     3807   1 H                                       1.0809493
  3653   6 C     3808   1 H                                       1.0813995
  3654   6 C     3809   1 H                                       1.0824194
  3658   6 C     3810   1 H                                       1.0808207
  3659   6 C     3811   1 H                                       1.0792537
  3660   6 C     3812   1 H                                       1.0812979
  3661   6 C     3813   1 H                                       1.0816282
  3662   6 C     3814   1 H                                       1.0812824
  3666   6 C     3815   1 H                                       1.0818497
  3667   6 C     3816   1 H                                       1.0807051
  3668   6 C     3817   1 H                                       1.0804549
  3669   6 C     3818   1 H                                       1.0807648
  3670   6 C     3819   1 H                                       1.0800167
  3674   6 C     3820   1 H                                       1.0802780
  3675   6 C     3821   1 H                                       1.0807876
  3676   6 C     3822   1 H                                       1.0806149
  3677   6 C     3823   1 H                                       1.0809427
  3678   6 C     3824   1 H                                       1.0804177
  3686   6 C     3825   1 H                                       1.0815615
  3685   6 C     3826   1 H                                       1.0809535
  3684   6 C     3827   1 H                                       1.0797708
  3683   6 C     3828   1 H                                       1.0795517
  3682   6 C     3829   1 H                                       1.0805838
  3550   6 C     3830   1 H                                       1.0882416
  3550   6 C     3831   1 H                                       1.0863170
  3550   6 C     3832   1 H                                       1.0881723
  3680   6 C     3833   1 H                                       1.0959787
  3687   6 C     3834   1 H                                       1.0925097
  3687   6 C     3835   1 H                                       1.0910192
  3688   6 C     3836   6 C                                       1.5383711
  3837   6 C     3838   6 C                                       1.3890130
  3838   6 C     3839   6 C                                       1.3833287
  3839   6 C     3840   6 C                                       1.3838256
  3840   6 C     3841   6 C                                       1.3845526
  3837   6 C     3842   6 C                                       1.3900906
  3841   6 C     3842   6 C                                       1.3834339
  3838   6 C     3843   1 H                                       1.0807097
  3839   6 C     3844   1 H                                       1.0796954
  3840   6 C     3845   1 H                                       1.0810701
  3841   6 C     3846   1 H                                       1.0811516
  3842   6 C     3847   1 H                                       1.0804813
  3836   6 C     3848   6 C                                       1.5322718
  3836   6 C     3849   1 H                                       1.0931495
  3836   6 C     3850   1 H                                       1.0926025
  3851   6 C     3852   6 C                                       1.3893378
  3852   6 C     3853   6 C                                       1.3839198
  3853   6 C     3854   6 C                                       1.3844539
  3854   6 C     3855   6 C                                       1.3843308
  3851   6 C     3856   6 C                                       1.3895316
  3855   6 C     3856   6 C                                       1.3825819
  3852   6 C     3857   1 H                                       1.0814275
  3853   6 C     3858   1 H                                       1.0811190
  3854   6 C     3859   1 H                                       1.0807030
  3855   6 C     3860   1 H                                       1.0803996
  3856   6 C     3861   1 H                                       1.0805057
  3688   6 C     3862   1 H                                       1.0953847
  3848   6 C     3863   1 H                                       1.0909222
  3848   6 C     3864   1 H                                       1.0923083

 * 2 distinct bonds (by element types)

   Z      Z             #   av. dist./Å        max./Å        min./Å
   1 H    6 C        1944     1.0852547     1.0988645     1.0765373
   6 C    6 C        1860     1.4195844     1.5405815     1.3805567


optimized geometry written to: xtbopt.xyz


           -------------------------------------------------
          | TOTAL ENERGY            -5104.238479672912 Eh   |
          | GRADIENT NORM               0.000769925870 Eh/α |
          | HOMO-LUMO GAP               3.819644360303 eV   |
           -------------------------------------------------

------------------------------------------------------------------------
 * finished run on 2024/07/21 at 21:34:13.775     
------------------------------------------------------------------------
 total:
 * wall-time:     8 d, 23 h, 17 min, 19.327 sec
 *  cpu-time:    58 d, 15 h, 50 min, 53.164 sec
 * ratio c/w:     6.539 speedup
 SCF:
 * wall-time:     0 d,  0 h, 16 min,  6.788 sec
 *  cpu-time:     0 d,  1 h, 44 min,  1.616 sec
 * ratio c/w:     6.456 speedup
 ANC optimizer:
 * wall-time:     8 d, 23 h,  0 min,  2.413 sec
 *  cpu-time:    58 d, 14 h,  5 min, 19.928 sec
 * ratio c/w:     6.540 speedup

