3864
 energy: -5104.238479672912 gnorm: 0.000769925870 xtb: 6.6.1 (8d0f1dd)
C           42.72951820530102       63.13904997762629       35.46716033856343
C           43.39395987340123       61.94330952844265       35.70777776231427
C           44.52924944767932       61.66129021346184       34.95792928253096
C           44.98539671933733       62.54531167089338       33.99691666454076
C           44.31118612760478       63.73200585322396       33.76751732927262
C           43.17974271473017       64.02815659637038       34.50757284962982
C           42.88800507172349       60.98273514980977       36.75387141017556
C           42.71032849130368       59.57768465134551       36.17275246548013
C           43.82602647739754       60.92942540413566       37.96688679907597
C           43.92682881564592       62.25098293886236       38.74467258515539
C           42.57097847869596       62.76820091729096       39.14834439005939
C           41.70795168312085       62.00951339186544       39.92952233136192
C           40.45541211516267       62.48711673907466       40.27133572374437
C           40.04660236039465       63.73905866739936       39.84508694348888
C           40.90224240721544       64.51214474557774       39.07882893364093
C           42.15214784231221       64.02735833047880       38.73662564607568
C           44.83133237867236       62.01736858566309       39.96453619527783
C           44.88139299115029       63.17731455570352       40.96904210267052
C           45.04350347496433       64.51863619885064       40.30134599673835
C           46.05858799135255       64.75105804347706       39.38097563154972
C           46.20703510930539       65.99101197910115       38.78781359263125
C           45.34069137544273       67.02322932870440       39.10443485709987
C           44.32995924018369       66.80765998392596       40.02559542698110
C           44.18708867765590       65.56572082769826       40.61914789211861
C           46.03703278900799       62.96965983578887       41.96590371186576
C           45.77882006807140       61.84133764801613       42.97844662058363
C           47.08054836571959       61.41410720968969       43.61021103536086
C           47.81552259888909       62.29028575442526       44.40070636515870
C           49.00818066755308       61.89225601542300       44.97698619953432
C           49.48507542711172       60.60811490748684       44.77401377930598
C           48.76578166314324       59.72743192472907       43.98634912134791
C           47.57415618882566       60.13115548721898       43.40977875537649
C           44.73701926059415       62.25599996875442       44.03900136281680
C           43.50523995167436       61.33727299178707       44.04927699066464
C           42.37002389133078       62.00331123993805       44.78542868964188
C           42.40889877901905       62.19893222589915       46.16135099864172
C           41.35643485485127       62.80406345301571       46.82396504641122
C           40.24801260857157       63.23949098047216       46.11749753881360
C           40.20689145462461       63.07256421560678       44.74380385280531
C           41.25807784595187       62.45737572457759       44.08626795041027
C           43.83300700167791       59.96494897084258       44.65040949750760
C           42.65420819837708       58.99480269450095       44.49288094189437
C           42.41682264013897       58.71755374598038       43.02993275119024
C           43.37958435385087       58.07774473613647       42.25760548442306
C           43.16919493482500       57.84188628023276       40.91181375618024
C           41.98768832113169       58.24459093257136       40.31240570378637
C           41.02111844067672       58.88376500406521       41.06921877516506
C           41.23567010812836       59.11537181550842       42.41783126700381
C           42.87466414118465       57.67827402685344       45.25623267907358
C           42.70628283890574       57.80032399569171       46.78018918124986
C           43.30933742243122       56.59904478627075       47.47028657285902
C           44.40983517174667       56.75038144145926       48.30622141601673
C           44.94185730342110       55.67026585913577       48.98881297308195
C           44.39199633358524       54.41079451932721       48.82886006471636
C           43.32300555897940       54.23611510508145       47.96675699613750
C           42.78677952429063       55.32209791405171       47.29651408624926
C           41.23190058694706       57.97986107064202       47.17282788810454
C           41.04946315193877       58.23578256676417       48.67644812808592
C           39.60287123037703       58.11102316799037       49.08064759390646
C           38.61372332494657       58.86368993747574       48.45672429872941
C           37.28850424037528       58.74864152066323       48.83519646282378
C           36.93086389090949       57.89106101943162       49.86213304185335
C           37.90975794582188       57.15478586667759       50.50590747809484
C           39.23238864452610       57.25964900336363       50.11369136946826
C           41.60641506569017       59.61365265202619       49.09837940090340
C           42.67785932805088       59.47296007372714       50.18452725386252
C           42.07799031559762       58.98061648107913       51.47813381263181
C           41.17086632878372       59.75716628148134       52.19003557519332
C           40.68564118948704       59.33841479965820       53.41503309557021
C           41.08855405152757       58.12548881618155       53.94690317093639
C           41.95847624178325       57.32374623508287       53.22914153837384
C           42.45112425427830       57.75163937179516       52.00833147161005
C           43.44422954907248       60.78271533012897       50.42157232376917
C           44.61883439284136       60.52875095959643       51.37368020352177
C           45.72450089664442       59.73045438035835       50.72975339700535
C           46.31302719441108       60.13788936708606       49.53812572127416
C           47.37334827101439       59.43577410256363       48.99269208194302
C           47.87934937691309       58.32571446984556       49.64705940300556
C           47.29909211694852       57.90514568343210       50.83094420657962
C           46.22517756455619       58.59810210799368       51.36150319952201
C           45.21025508887469       61.81982743532709       51.96118583514642
C           46.02099311355605       61.51175138985951       53.23324515741017
C           47.04393449140825       62.58686769763526       53.48621771422592
C           48.38693176280757       62.32979835279221       53.23682597204505
C           49.35173405861416       63.29403412823565       53.46727671626171
C           48.98246746580423       64.53773158061837       53.94700700558256
C           47.64735053285170       64.81069759340343       54.18367791064224
C           46.68515718695924       63.84566205358077       53.95218412042521
C           45.08117248112830       61.30887084507210       54.42742726254605
C           45.81300685628138       60.93087237644087       55.72254888686967
C           46.65645987793958       59.70095731308423       55.49688262214958
C           48.04166541693196       59.79506331468074       55.47551036212162
C           48.83029791127686       58.67602098954258       55.27101542322556
C           48.23901321621018       57.43989054746623       55.08251686551098
C           46.85822540879554       57.33271231247911       55.09624066125426
C           46.07330531686829       58.45345335611968       55.30241973341582
C           44.81212031735892       60.70553940681773       56.87513264491458
C           44.74891387290243       61.86538548948516       57.87603309331890
C           44.45779766188667       63.18808490248175       57.21202061013904
C           45.31560321591778       64.26684707320385       57.38312334310970
C           45.03842341125977       65.49490565519507       56.80703341014228
C           43.89831327822791       65.66290570878536       56.04134945318796
C           43.03209011752175       64.59628978871399       55.86654491574363
C           43.30742419840603       63.37353752505066       56.45155345642973
C           43.68742016148364       61.63204392126109       58.96645291624854
C           43.95023630962184       60.40391664717731       59.85123948144255
C           43.45399592355857       59.13132801434723       59.20326062996551
C           44.32446684008335       58.06575456854369       59.00383921267650
C           43.90487948809056       56.91397374701558       58.36347624195733
C           42.59569265023497       56.79794225060711       57.93026541769986
C           41.70689658452934       57.83367021669556       58.16076933464620
C           42.13382350542928       58.98843439535724       58.79244570608784
C           43.29115330575703       60.52849407209202       61.23760211968174
C           43.81771886783455       61.65585828170619       62.14250008935059
C           42.98125507847256       61.72001063135624       63.39703239103670
C           42.87970485969998       60.62820384392433       64.25299879894412
C           42.11723820641017       60.69734579611400       65.40407575862091
C           41.43792216805102       61.86142926237437       65.72201242747062
C           41.52674900709217       62.95353745286361       64.87676510987703
C           42.29216568834890       62.88061379879161       63.72549576393948
C           45.30439895666085       61.48567903194759       62.47823926382131
C           45.88430601998920       62.68118334941567       63.26959285112392
C           47.19014188633547       63.10349441150584       62.64089229035370
C           47.19522560040103       64.13251256079852       61.70551299717163
C           48.36097009310839       64.50827745952036       61.06263794384386
C           49.54984196269368       63.85997294040198       61.34930720051311
C           49.56011358826733       62.83652241861827       62.28037918080400
C           48.39074698067369       62.46054787192895       62.91784949747910
C           46.01932405053946       62.34712662414284       64.75802672775467
C           46.62244639103916       63.49786474974582       65.57261489552117
C           45.84361919778144       64.77068585394746       65.35029231694580
C           44.50089335729069       64.86609807233401       65.69817977416886
C           43.79728709554854       66.03743467465576       65.48612079291199
C           44.42289838090596       67.13556115433609       64.92016070825673
C           45.75831242240652       67.05144100146701       64.56650254749023
C           46.46010167191515       65.87826714585630       64.78173227270747
C           46.66263245396132       63.17819668849069       67.07609441109196
C           47.55952584255169       61.99565465616821       67.48278377525524
C           47.29843543968069       61.68261897361187       68.93761827277166
C           47.66742453377016       62.56611219238837       69.94576366807250
C           47.40957228949151       62.27559083747185       71.27345984992964
C           46.76709457017545       61.09813276149838       71.61668384086772
C           46.38594944776757       60.21465258734838       70.62247895014701
C           46.65420585466277       60.50460375718102       69.29636294838491
C           49.04660522203376       62.26779351011779       67.22707384751642
C           49.91819112693580       61.07523990802251       67.64624636288809
H           41.91016281193890       61.33729018309115       37.10200012586844
H           43.46346301008182       60.14985703269335       38.64042585395975
H           44.82734271269990       60.64805812426528       37.63583441102296
H           44.39602411418512       63.00011980451706       38.09673011851280
H           44.47184176493909       61.12939367306208       40.48798001198836
H           45.83807751922939       61.80686621233134       39.59989055689709
H           43.93656456078278       63.19796566822809       41.52276018914876
H           46.94385293066573       62.74220286866311       41.40173038214577
H           46.21317822268972       63.90321330228455       42.50582513827391
H           45.38685407669529       60.98545600168618       42.42328416883318
H           44.40173074310949       63.27739488110292       43.84371436286474
H           43.18387447428396       61.19145338757528       43.01153868903950
H           44.71460844516312       59.55633073413234       44.15590185984454
H           44.08003137095318       60.07990469904759       45.70569773057954
H           41.75841154533511       59.48478600120696       44.88833834252812
H           42.16382555603555       56.93875763916677       44.88046265492730
H           43.88066439557912       57.30708753094629       45.04802001734923
H           43.26006293948134       58.68211734522661       47.11431482423270
H           40.80981495431155       58.81592690208497       46.61304359870069
H           40.66876976682542       57.08384020017428       46.90019103592930
H           41.60403479998705       57.45658535649359       49.20962377972052
H           43.40515176898899       58.72891001412066       49.84346701394466
H           43.79782466447852       61.17906672133171       49.46864426151421
H           42.77834730034122       61.52863277369699       50.85980523394778
H           44.22015576746794       59.94218536002963       52.20749331420694
H           45.85905975149996       62.29807324282021       51.22319358809469
H           44.40943357110047       62.52181240228597       52.20546250261638
H           46.56609356722102       60.57690007189499       53.06139808653035
H           44.50820053743882       62.22062095007818       54.60124662419159
H           44.36960126609268       60.51526871189886       54.18751290231727
H           46.47971608665902       61.75993561187965       55.98819107956694
H           43.81560274986517       60.51641674753539       56.47120382411006
H           45.10897298701639       59.81283430251634       57.42478858267547
H           45.72708784232271       61.94085158728260       58.36715865582667
H           43.66853965617618       62.52823236236423       59.58979074347045
H           42.70627931637911       61.54550418101907       58.49783371303729
H           45.03124846095096       60.30454795614468       59.99168498812860
H           42.21665468291181       60.67779584531149       61.10368463133412
H           43.42902509567480       59.57657677028314       61.75476098381326
H           43.70240736916983       62.61083411690473       61.61841222443400
H           45.44753387806199       60.56221436230834       63.04027342531632
H           45.85697754054053       61.39240908235314       61.54330238180503
H           45.19023854025770       63.52416512788946       63.17911158265746
H           45.02826134635597       62.10647598353047       65.14743161076363
H           46.65080980651089       61.46514742611175       64.86931879029362
H           47.64387233986427       63.67185599747698       65.22125050900959
H           46.99750174524780       64.07317865207992       67.60692867565558
H           45.64685027787854       62.96157699309731       67.41642696127883
H           41.84893831268405       63.38035509524874       36.04758644360594
H           42.64819313058454       64.95333784731277       34.33297843623355
H           44.66456689663588       64.42274306808071       33.01493983901614
H           45.86698183700322       62.30494670981264       33.41838817694128
H           45.06561606290282       60.73778440250518       35.11809470338687
H           42.01014038417032       61.03230452577121       40.27405510328083
H           39.79520197995013       61.87749731550760       40.87282925939471
H           39.06881307636601       64.11540157515438       40.11207334367006
H           40.59722701495079       65.49475687726607       38.74550104040839
H           42.82202154360118       64.63712975979504       38.14540416226374
H           46.73788821812693       63.95780983764797       39.11314191019466
H           47.00377247120552       66.15097045688202       38.07548294989090
H           45.45585503040916       67.99079202280777       38.63472254066026
H           43.64696412274118       67.60706996944215       40.27954144882641
H           43.38869163342448       65.40697126701924       41.33175316783552
H           47.44924736273636       63.29255804283569       44.57005101327098
H           49.56390410064019       62.58224195996178       45.59595312408669
H           50.41703569651767       60.29690755536080       45.22103406935418
H           49.12800717848936       58.72136580120650       43.83059866181308
H           47.01804258525106       59.43647278521441       42.79563207930732
H           45.19218300824796       62.25109537800940       45.03116650787013
H           43.27256323003203       61.88057730533869       46.72653213827955
H           41.39948376490874       62.93922227556411       47.89539707591879
H           39.42367220233706       63.71121170243413       46.63380026357454
H           39.35235936520789       63.42554620518919       44.18233772651062
H           41.21454491488420       62.33048462587308       43.01308384205534
H           44.30213095672165       57.75505616698084       42.71693334413062
H           43.92647635150032       57.34295053975750       40.32634073651182
H           41.82229615545749       58.05765873563202       39.26053367282520
H           40.09765523562510       59.20888666773845       40.61211729250248
H           40.47121823292650       59.61077764318117       43.00086418566675
H           44.86140111113724       57.72558862590497       48.43147555316495
H           45.78465140563945       55.81623182045089       49.64870352331351
H           44.79541157440390       53.56769210163055       49.37066286931995
H           42.89915605187289       53.25059179328374       47.83108385617155
H           41.94571616493132       55.17111801808725       46.63404380222806
H           38.88031287459136       59.55610383235985       47.67089346476194
H           36.53165499724179       59.33255957108790       48.32999209899648
H           35.89597407911055       57.80211961271332       50.16164408354992
H           37.64251550295526       56.49577260627019       51.31970542766359
H           39.98513599223438       56.67435568287277       50.62161435502586
H           42.03633168236384       60.12120661101745       48.23340989870402
H           40.79339219802560       60.24393099614654       49.46502773814863
H           40.84545044065875       60.70864798194840       51.79306321316758
H           39.99562442426560       59.96496412077310       53.96382835669205
H           40.72908538820597       57.81359182363591       54.91647544558814
H           42.26102093897896       56.36731250524993       53.62945219986220
H           43.14828003833335       57.12996870098119       51.46088534808511
H           45.95114593045017       61.02177473718690       49.03140144314041
H           47.80824088881651       59.76420132910005       48.05882678437710
H           48.72302459240355       57.79156153048356       49.23692649405547
H           47.68295656405891       57.03696233670482       51.34772918789562
H           45.77718144836344       58.26254582140621       52.28734151427708
H           48.68222153935537       61.35849111726696       52.86321488337133
H           50.39148128388869       63.06926462721189       53.27510198280257
H           49.72605190803984       65.29672167040331       54.14178144489932
H           47.35462985178748       65.78275995050456       54.55324388451746
H           45.64821425214357       64.07831735439308       54.14694560604196
H           48.50393028349724       60.76255811488450       55.61967539277824
H           49.90618819730400       58.77329488892410       55.26456571869356
H           48.85085297929982       56.56259205337515       54.92932342925060
H           46.39326147188806       56.36881797915537       54.94564603937740
H           44.99606151459781       58.35842675274660       55.31865386239504
H           46.21015341041835       64.14691027342288       57.97979203760586
H           45.71176547778893       66.32715637620306       56.95919368035876
H           43.68220357102797       66.61937670252988       55.58666687374438
H           42.13716548348359       64.72030457941231       55.27268767759843
H           42.61723287026081       62.55399688872933       56.31202422729439
H           45.34989218964507       58.14849164962337       59.33641714771532
H           44.60820950601077       56.11179111392557       58.19402914685954
H           42.26957530118661       55.90519479355289       57.41884927345241
H           40.67619383059913       57.74771080517643       57.84705247364008
H           41.42157012749944       59.78455551386902       58.95971383245283
H           43.40644280216606       59.71275311497103       64.02956979159687
H           42.05867100627687       59.83875751358814       66.05706387153685
H           40.84433251135342       61.91923593180995       66.62331010813951
H           41.00025312832047       63.86715645250811       65.11445562830376
H           42.35624770930961       63.74417460902508       63.07682721829079
H           46.27070295776391       64.64732021807069       61.48029017825738
H           48.34854553341185       65.30636752382377       60.33338103274704
H           50.45611226902235       64.15468988285713       60.84218359096656
H           50.48426377572014       62.32426414066796       62.50779870709822
H           48.42167154636754       61.65832781944205       63.64022786225915
H           43.99246172658855       64.01717004250079       66.13091761067541
H           42.75436529806645       66.09462101426141       65.76329880988007
H           43.87257591627998       68.05058250907338       64.75475146782662
H           46.25499847357290       67.90142091721366       64.12047405233538
H           47.50116313017962       65.81959549259723       64.49502351837091
H           46.36376077519672       59.80118184356179       68.52904145576537
H           45.88601680311670       59.29371566192154       70.88426056841577
H           46.56446938756817       60.86880165533024       72.65287334277262
H           47.70942821104560       62.97204469879633       72.04392841459415
H           48.16419524821983       63.49278598426900       69.69809141839272
H           42.03810540418169       59.59771134446526       35.31674235881251
H           43.66422613565558       59.16416187887599       35.85590954904094
H           42.29158192182486       58.91302187555777       36.92544685305916
H           47.27346854535648       61.11423711363940       66.90182785171628
H           49.20340870182265       62.46891251707060       66.16638285577140
H           49.35319805788849       63.15520967516321       67.78169864546052
C           51.41422168666537       61.42919296038613       67.63244448670110
C           49.65140793091545       59.87585351261514       66.76872444473784
C           50.00229347690480       59.87220926591325       65.42348419757174
C           49.78723296815220       58.75359655215246       64.63758296098852
C           49.21354609201329       57.62061231778929       65.18749729407331
C           48.84171344342334       57.61615185628551       66.51993930448720
C           49.06353556148905       58.73531513880747       67.30292968535122
H           50.46193823236732       60.74729993579459       64.98638047037895
H           50.07712745412250       58.76440935079202       63.59656663246964
H           49.06145584423460       56.73928606231709       64.58267899841772
H           48.38374666967291       56.73500831576305       66.94765538289043
H           48.77989787646570       58.72862183704129       68.34683670340860
C           51.82902930817676       62.27928096355245       68.83958982728029
H           51.99230700457493       60.50135785547426       67.64870390330154
H           51.66909348379186       61.95987726053797       66.71294487873456
C           53.32399258347272       62.38487683729925       68.94663387187016
C           53.99370654358174       63.56370153796117       68.64827949166020
C           55.37291392759597       63.63893571168491       68.74942774454800
C           56.10201425636164       62.53487999474366       69.15406563064424
C           55.44483106607968       61.35426501948734       69.45709395977286
C           54.06911157806503       61.28226507234289       69.34889840056424
H           53.43056810941767       64.43494959415261       68.34199412347861
H           55.87885826690727       64.56458831690752       68.51439343229777
H           57.17754585913046       62.59283738756764       69.23937945600890
H           56.00156578495484       60.48984771078420       69.79004415618125
H           53.56053325970304       60.35882474477722       69.58749517752369
H           49.64888400746925       60.80543638088562       68.67459138211825
H           51.39484146549224       63.27699899294404       68.76132291026296
H           51.43844703242345       61.81190784863691       69.74808106616527
C           56.13586767916061       33.84260060185815       65.10361804776014
C           55.44538954466065       32.91549662321542       65.87617429317508
C           55.58117574146217       31.56804285514959       65.56502278908701
C           56.37313226830669       31.15566257141299       64.50738273033353
C           57.05020768267418       32.08996397985752       63.74324502111840
C           56.93108572206692       33.43543107576581       64.04792276599586
C           54.58281354953470       33.34384878207045       67.03803820049562
C           55.46198870480811       33.90211287179338       68.16017493720345
C           53.52917917285384       34.37541876946504       66.61732709143197
C           52.63878103010347       33.85966608169541       65.47935740360634
C           51.80534637706320       32.69245870704264       65.94352619887405
C           52.02116222959305       31.42247044402409       65.42307054910674
C           51.27051968347871       30.34113977620590       65.85029621760677
C           50.28054659913808       30.51619350666087       66.80167363538450
C           50.04960413164511       31.77960569346470       67.31930073496572
C           50.80477090264141       32.85747206917768       66.89488593853564
C           51.73821552238838       34.97192012660729       64.92148942584424
C           52.46736656164105       35.90290275747880       63.93686092726650
C           51.67305758349696       37.17485861766165       63.75321645263411
C           50.34024202576179       37.11687955180640       63.36258920129796
C           49.60921854642892       38.27104909947976       63.14998483363389
C           50.20069374622868       39.51063509682472       63.31634952698617
C           51.52240424270764       39.58410675194004       63.71496174831373
C           52.24595986371290       38.42655156257308       63.94364370222691
C           52.68723838117389       35.19395510929704       62.58435667279156
C           54.00931702099195       35.54609033771744       61.88147304708443
C           54.18825353084542       34.64826153847705       60.68156596422708
C           55.27811617793967       33.79046666263336       60.60255675798761
C           55.44753468541984       32.95424400565759       59.51305382460495
C           54.52282442527984       32.95853623196956       58.48256727780701
C           53.42878330054484       33.80324905035451       58.55282084178261
C           53.26519611338044       34.63864891082468       59.64214840663052
C           54.04848389447652       37.02509139389213       61.48443652093426
C           55.37041958946472       37.48471277975946       60.85103674720657
C           56.54386261836643       37.16564634944714       61.74022409563981
C           57.58536190286042       36.37868291962693       61.26449374532366
C           58.68146198033237       36.09063572747014       62.05893294704388
C           58.75017981095309       36.57974634621366       63.35289618879433
C           57.71291421042502       37.35519115589744       63.84202550986243
C           56.62291340717882       37.64729131149943       63.04244492684190
C           55.27803592394052       38.99540806728428       60.57475352563193
C           56.56638971006217       39.62335897056468       60.02784969628267
C           57.01647417754558       38.96234931790634       58.75029617748060
C           58.26914340883322       38.36699133045758       58.67122509057540
C           58.70976373267628       37.79062623588527       57.49308928701107
C           57.90145266900134       37.80225805225565       56.36923490309695
C           56.64916092085347       38.38708448984803       56.43647921118709
C           56.21254986214630       38.95969766921998       57.61681788472627
C           56.35074444093677       41.12771945744345       59.79448269983516
C           57.64757704181547       41.84282731973947       59.39391198482272
C           58.64968393199502       41.78848576231508       60.52004971209987
C           59.87970677527241       41.16841757018511       60.34095704408313
C           60.80434804885783       41.11076336349784       61.36935393887399
C           60.51546261104110       41.68358631959749       62.59613090282132
C           59.29868100887266       42.31715123123529       62.78325088012257
C           58.37590510195991       42.36716824240364       61.75460344459251
C           57.39736615096030       43.30823455388713       59.00091363145741
C           56.75488078488425       43.47005998318478       57.61625996235396
C           57.66748207926912       42.95234087549793       56.53357982833946
C           57.31504998082172       41.83313384385557       55.79061582480382
C           58.14387299482978       41.34898268422030       54.79473093695536