3795
 energy: -5103.648366633668 gnorm: 0.000870670214 xtb: 6.6.1 (8d0f1dd)
C          114.65672398824705      121.09361873249948      106.78843464886417
C          115.38810840292341      122.34842822399487      106.37167339783196
C          113.41860812947485      120.86017384299190      105.91014109146259
C          112.43746832941936      122.02868313429062      105.95848312359131
H          113.73210729120127      120.68812626814061      104.87893630053772
H          112.91385731039334      119.95612531799780      106.25396183802218
C          111.15924002291453      121.72546575933528      105.17188432036141
H          112.16804691045488      122.24269342678811      106.99509513084026
H          112.91555859698879      122.92013922779832      105.54959911246152
C          110.26998731238872      120.77087885588628      105.95376852172411
H          110.58998601756556      122.64444700563757      105.01460925600669
H          111.41652815261975      121.29176783164566      104.20637624458281
N          110.24612298741529      119.52012542310759      105.48810453628866
O          116.32424026735931      122.12063361198736      105.48145251688979
O          115.12835316701390      123.45558868942445      106.79928339383979
H          116.84242847379882      122.95570687542600      105.22417436866776
H          114.35082140595233      121.20238719141480      107.82997070172313
H          115.33979920116505      120.25004976213107      106.69114153025983
C          109.42715794259574      118.48699870613842      106.08548262511205
H          110.81238252187440      119.26668459047131      104.68363002419176
C          109.78902437838859      117.09103060697532      105.59001340669623
H          109.52565937598470      118.55634037196648      107.17390870390305
H          108.37803906364890      118.68187667829369      105.83541582239488
C          111.27043578297349      116.72741209219129      105.69574899323308
H          109.19023272792701      116.38006266044228      106.16334025523835
H          109.48892853542091      117.00708786343462      104.54374235226874
C          111.84881897749806      116.91327465954781      107.09650317072838
H          111.37981848592287      115.68010390117112      105.40673493224331
H          111.83082717640066      117.33350180868041      104.98626452116360
C          113.23033339694065      116.27761704332276      107.24536153908647
H          111.91565541001583      117.97835710832126      107.32652250427198
H          111.17913748475404      116.45405673136121      107.82663555877305
C          114.28141966396873      116.91595685820299      106.33587582533535
H          113.56340718010478      116.38385563513120      108.28051434333318
H          113.15790769304502      115.20925816536517      107.03048552227888
N          115.56565311852120      116.28663117910838      106.53585149960625
H          114.01804601312224      116.79494792852786      105.28430849582806
H          114.35113718349417      117.98622344623847      106.55669615917193
C          116.32609939518551      115.78694664826052      105.55865507194056
H          115.92524225007250      116.29418142004280      107.48327862144538
O          109.63939040683111      121.13699180766311      106.94452275649721
C          117.52191700190697      114.99755822373157      106.05735007556572
C          118.75632988302301      115.08723334537454      105.16123525127989
H          117.75491040239602      115.29793425261381      107.07825250128568
H          117.19085847621845      113.95536851364631      106.09105554241197
C          119.85567168190617      114.17089495164517      105.69219086042551
H          118.48076123438325      114.78758424731289      104.15039250811564
H          119.11700251281631      116.11519289738911      105.11477665175889
C          121.07538620625320      114.07477859403497      104.77170080312986
H          120.17825972523502      114.51792797037622      106.67348262951425
H          119.44465000748539      113.16639291258329      105.81504059651418
C          121.94592136531031      115.31672440669836      104.80919419358126
H          121.68416791626895      113.22583409975623      105.08644643557669
H          120.74132086428122      113.92105831303166      103.74417682617837
N          122.80358846853498      115.36758114669802      105.82806118634312
C          123.80899872659826      116.39819511672096      105.96936205849968
H          122.78877217483472      114.64920041119159      106.54570089216756
O          116.04985728253725      115.90605299802985      104.36688196532987
C          123.98239373379094      116.83492754010432      107.42014565839017
H          124.76731569271793      116.01196955585300      105.59704124902591
H          123.50838147624202      117.24139196038313      105.34224101259321
C          125.15484278639757      117.80579145041185      107.55140667497255
H          123.06559285633929      117.31731863434447      107.76167141882615
H          124.14562608531061      115.95050676554612      108.03832582569511
C          125.34099293901058      118.30866434550522      108.98179807480869
H          126.07212809002473      117.32237090992145      107.21055783986148
H          124.96970188112789      118.65791749981602      106.89648761352863
C          126.35526214299291      119.44964316230438      109.05806701002835
H          124.38083145797378      118.67324586036209      109.35406890902368
H          125.66239503641401      117.48141167228411      109.61684944140588
C          126.40694051429834      120.10423767891352      110.43582763112013
N          127.09314181112016      119.29267584082248      111.42233072670930
H          126.95570085697966      121.04775349232601      110.38144988849379
H          125.38696348580125      120.32117969943440      110.77131084396093
C          127.80497420163942      119.83110073619189      112.41598032407715
H          126.91579915970202      118.29757434502073      111.43590333190204
O          121.88603417929133      116.18894717602747      103.94276645190958
C          128.54574786562870      118.85247040873612      113.29840275587135
C          129.98385376704218      118.69486660369688      112.79029807830655
H          128.56698155191023      119.24281277661731      114.31614857903881
H          128.04131749455246      117.88887084556841      113.28888153833371
C          130.85226203927775      117.90862426033169      113.76837405477856
H          129.96874182265870      118.17530087056242      111.83219096042879
H          130.42093329054504      119.68297421220575      112.62485528418370
C          132.17826309154916      117.47898374873513      113.13506504267370
H          131.05374399960107      118.50204530291877      114.66006582525988
H          130.31994429504863      117.00969842175289      114.08014305188061
C          132.99319467607660      118.64731052272123      112.61264593425419
H          132.77499112597275      116.95341314094983      113.88131580167138
H          131.98711556890791      116.80327122426296      112.29944932139689
N          133.51212089763396      119.43425135329235      113.55403819924609
C          134.36257362553067      120.57052731774348      113.27897927667006
H          133.27159347499733      119.27384540322228      114.52786087404947
H          127.34986449190447      119.10002340018445      108.77969920777421
H          126.06459450763207      120.22284096527113      108.34506362946462
O          127.89629935788474      121.04819640578512      112.57980154275691
O          133.17391479314256      118.82862923330325      111.40601693118143
C          133.87753437244677      121.82731104779820      113.99960706691863
H          135.38508462008016      120.33773617021416      113.59881067721001
H          134.36727090747468      120.72331245838785      112.19664810680118
C          134.78415347228744      123.01811315417098      113.69085620402836
H          132.85536660031198      122.03852084057753      113.68507358770407
H          133.86823450753982      121.63617785595609      115.07436591835231
C          134.39530319945803      124.30055211074368      114.43078864597337
H          135.80927661225064      122.75753072338865      113.96116543965759
H          134.76692713522542      123.20993304755264      112.61564612117924
C          133.00001023099659      124.79156043882418      114.05358548636148
H          134.44164312743052      124.13239967063670      115.50814723578189
H          135.12148303988693      125.07712360024333      114.18317953093560
C          132.70387651409845      126.20521300412409      114.55392807369705
H          132.89937383864319      124.79241495219357      112.96578799372607
H          132.25000874467892      124.12034096126177      114.47639997906820
N          131.30671102996519      126.52302148254449      114.35230203194332
H          132.90026974800713      126.29038065203098      115.62535667401080
H          133.32043270584848      126.93146716543215      114.01596801395151
C          130.46656269480209      126.83340652059684      115.34430299192671
H          130.96062566134762      126.45207964725067      113.40405063226999
C          129.01704754746586      126.98450678555535      114.93784981693005
C          128.36568954627339      128.19457641576315      115.60538957830148
H          128.94005746264855      127.05998692503452      113.85340959517004
H          128.51223743268153      126.06851344369191      115.25656015590467
C          126.88141816262436      128.33503469555032      115.27309349698351
H          128.49424997048948      128.11547211617503      116.68636700764910
H          128.89145284560544      129.09540127112885      115.27597899068319
C          126.02807922855025      127.20291281600792      115.85094066202313
H          126.52058620836638      129.27759326415105      115.69115385564774
H          126.75098787300479      128.37096920468218      114.18961780166180
C          126.12458512537059      127.18487033292088      117.36567220203713
H          124.99001712462652      127.38694832486252      115.57727967531559
H          126.33463840301035      126.23927311296160      115.45040646208182
N          126.64594949556295      126.05985781511843      117.86684606191483
C          126.89591635612345      125.83566931220896      119.27429165373921
H          126.95477285621153      125.33521423911773      117.22431213448341
O          130.84326633861312      126.96109346267623      116.51050422168724
C          126.91533666255170      124.34422891876912      119.58167691059647
H          127.86182018330010      126.26986800989901      119.55959532075030
H          126.11302759155380      126.34974814780708      119.83718174517115
C          127.35375038574837      124.03884416298359      121.01276041601247
H          125.92578677316398      123.92259681926137      119.40508788779717
H          127.61247631590601      123.86680055396762      118.88851288628412
C          126.35160520653507      124.49912652621239      122.08139298924171
H          127.49427031389871      122.95961200278259      121.09358101518846
H          128.32099705845764      124.51167462438870      121.18615798641039
C          126.74190697883664      125.80378038190138      122.77344042047405
H          125.37034258356243      124.62761029329455      121.62232710586336
H          126.24630541709803      123.72746219683260      122.84628989957731
C          127.98184037095396      125.65404229848447      123.64494623131681
H          126.94438473883416      126.57843371785626      122.03472441707021
H          125.91247435232465      126.14146437861984      123.39867547366688
N          128.27439873469231      126.89554851423671      124.32456097840725
H          127.84219238180332      124.87839985377913      124.40406225475901
H          128.84616025186048      125.38733331624078      123.02717698347776
O          125.74453842384865      128.12164785415877      118.06414733348217
C          128.83463012182244      126.94836632901517      125.52772521342631
H          128.12667269305453      127.74927401478016      123.79482143215976
C          129.17653759572627      128.33889299059157      126.02295314018410
C          128.24973839715810      128.77432685490123      127.16048710729899
H          130.20574152169701      128.31632109974169      126.38634297616164
H          129.10567360418966      129.04234917266470      125.19444766806961
C          126.82015736902511      129.00497028973589      126.68093784609340
H          128.25322651800562      128.00530467982421      127.93803180701843
H          128.63556231168482      129.69791290669838      127.59564800381519
C          125.95252363319422      129.52397937420807      127.82187014190360
H          126.81410660429412      129.71695963365471      125.85459936093054
H          126.40462427627720      128.07035716902433      126.29555143726415
C          124.52487510259390      129.78921893724575      127.42126677800314
H          125.96848229397865      128.80021356723481      128.63923288702216
H          126.35515772195980      130.47073734569355      128.20813074341484
N          123.66734984829212      129.98076295794442      128.43513470837848
O          129.05216800890753      125.93586290111463      126.20323216418329
C          123.97521175545528      129.97816975455143      129.84697393933365
H          122.70585932424690      130.16005839385446      128.17927997985632
C          122.72025453431334      130.13912895507838      130.70249951956595
H          124.47055473057480      129.03843730444569      130.11150674638904
H          124.67118638817485      130.79628295835036      130.06426947677397
C          121.62866678871050      129.09733621697498      130.44056459354402
H          123.03048648680000      130.07555414410007      131.74642892358341
H          122.29779872221519      131.13269874915716      130.54180688998031
C          122.10313321750459      127.64857436947328      130.54104299168571
H          120.83247129807256      129.25634848812453      131.17022800127128
H          121.18616516188980      129.24463503052655      129.45423401939601
C          120.94627201180325      126.68388490392432      130.29098170500117
H          122.87315394339767      127.45921948171504      129.79117951002814
H          122.53302981944364      127.45861811248852      131.52667842253857
C          121.40773746758786      125.23338547330893      130.25652095421077
H          120.19402648871082      126.79976997788100      131.07365412295772
H          120.47779620201680      126.93226617031959      129.33581637136027
N          120.31016749146774      124.37335130706475      129.85974329635346
H          122.22648929374823      125.10596068765030      129.53866543758099
H          121.78446944635539      124.91853385204443      131.23822465975556
C          120.42420692368393      123.05877874200741      129.65357496148226
H          119.39830476396479      124.79794502673349      129.76753947803931
O          124.13364579824777      129.84677698251923      126.25532955522527
C          119.13734921261300      122.40061064765304      129.21044839044799
C          118.81657037684354      122.66678576773430      127.73434236566669
H          119.21214288137379      121.32694313500802      129.38134933604880
H          118.32525636955255      122.81812090046162      129.80620969380081
C          117.39166247390057      122.20480430004608      127.45137778619856
H          118.90451131915597      123.73516856813934      127.52942137040901
H          119.52509173848736      122.14498213225944      127.08967056755417
C          116.95886555273995      122.32616028882904      125.99460425107061
H          117.28347697487528      121.16107997720800      127.75257818880725
H          116.71205286368905      122.79252360623548      128.07023797441161
C          115.50858477132394      121.89492591192224      125.85023794028847
H          117.08414793925409      123.33871876349005      125.61329563321226
H          117.56138879327980      121.65664116409712      125.37428788868290
N          114.89316587321686      122.30788782612601      124.74146486268694
C          113.55962069895318      121.85880522343864      124.39475623271751
H          115.36792305450597      122.94657492811938      124.10855505351773
O          121.47861079336995      122.44197986207716      129.79911338436824
C          112.71092421220118      122.93169681398803      123.72434329267899
H          113.64050215275576      121.00863019991867      123.70913109280737
H          113.09073317452128      121.51129323436341      125.31680502286042
C          112.47616301833919      124.17541069918163      124.58001791810705
H          113.19025528952244      123.23447832694454      122.79378088253483
H          111.75209167246578      122.47555949878455      123.47234216020725
C          111.78090282526449      123.85398274253781      125.90344653312128
H          113.43490416866879      124.66071864756350      124.76926756115206
H          111.86008933641297      124.86607053035601      124.00097003904536
C          111.13133464901387      125.07323941095679      126.55899228361675
H          111.00285523937495      123.11169505559432      125.72075164259235
H          112.50618428188783      123.42404224516328      126.59654841395587
C          112.11532662955489      126.22377197540997      126.73395530858723
H          110.28981888225036      125.41778415987422      125.95533168424690
H          110.74385820400424      124.78567448921086      127.53830715029559
N          111.60824126215522      127.21223685481927      127.66607711887886
H          113.07238595472165      125.85450468572422      127.11457261060305
H          112.30667835254494      126.69446304062264      125.76515660389009
C          112.38403036180206      128.10953990293444      128.26890224859815
H          110.59414343214718      127.28405030734358      127.75487117857939
O          114.96043900422281      121.18454840977111      126.69162107467717
C          111.65521934662844      129.05782901584215      129.19800899167276
C          111.07366655284001      130.25604676158218      128.43721458897116
H          110.84381272095355      128.51880515484621      129.68647547623871
H          112.35643353608187      129.41706676180405      129.95301146695709
C          112.16642697900284      131.17011696824667      127.88995473200438
H          110.44116068034980      129.89408539171561      127.62365502401875
H          110.44256295886511      130.83077646027439      129.11799499616970
C          111.59460516551516      132.34653827207774      127.10192380163365
H          112.75441375458441      131.56419732277075      128.72191398138099
H          112.83036217601826      130.59952100547076      127.24049999942477
C          110.87073965350881      133.33201166670062      128.00751520507634
H          112.41319289485477      132.89036317016968      126.62316533616263
H          110.91261019419157      131.99486968751017      126.32910935018201
N          109.69959032808617      133.75768837970926      127.52571785300731
O          113.60776610256114      128.16022557227470      128.09574754198036
C          108.83670012901666      134.68223889565473      128.23465013482763
H          109.33555442934838      133.33751529056914      126.67875962144831
C          107.45076192723570      134.72237138498812      127.60235241315904
H          108.77959144874168      134.37042146878974      129.28375712385363
H          109.29080939120875      135.68073649343407      128.21705248327058
C          106.72806999292638      133.37984705543641      127.69848640003421
H          106.86487943300345      135.49253229153379      128.10605959060368
H          107.55104287856093      135.00748639275335      126.55320911346844
C          105.34542442899999      133.43285497876752      127.05044040986112
H          107.33342050969611      132.61590554524329      127.21081983795858
H          106.62542070233557      133.10110710876211      128.74927275858624
C          104.62282572643990      132.08538933341748      127.11117765620028
H          104.74209411017614      134.18038386483573      127.56885437416662
H          105.44695443586198      133.75471032361904      126.01239502776282
C          105.15985202291996      131.05980442287051      126.10840745233082
H          104.72467199137751      131.67379318913984      128.11611829368715
H          103.55786071166210      132.22640849389259      126.91591415418952
N          104.69586298157469      131.31940064152579      124.76216015468252
H          106.25208517443123      131.05602894113176      126.11625991890728
H          104.79973758606621      130.06275210159146      126.37121447354080
C          103.76115888378423      130.58003251219569      124.15084254637283
H          105.05788230790665      132.13616137982325      124.29643464741517
O          111.34108563299095      133.72499680220440      129.07311994811923
C          103.36947182040876      131.04737514354073      122.76294692068532
C          104.53059056352940      131.02702319929818      121.76114414528107
H          102.56706038383845      130.39640498940952      122.41480500285842
H          102.97067153022957      132.06079194221101      122.83429061110094
C          105.38135340199831      129.76041517600802      121.82342311706874
H          104.11857433519521      131.12268215221044      120.75526020550909
H          105.19173561551634      131.87999147221856      121.92326782949893
C          104.58417845909506      128.46898070512617      121.61429356866459
H          106.14292875451218      129.83898409611126      121.04369895091330
H          105.88535185746407      129.70159740185272      122.78893095621140
C          105.56259508749241      127.32657138079655      121.43483627276123
H          103.97253402974313      128.27228388948436      122.49450513050978
H          103.95791149130005      128.56274107652703      120.72865570997502
N          105.72604376565081      126.93799033072968      120.16855372813050
C          106.71485193193044      125.96302738386615      119.74483153257354
H          105.28126194552244      127.48854447900899      119.44075622004712
O          103.25386475565402      129.59091598327220      124.67134110737071
C          107.05692157576220      126.17420701073812      118.27541745120665
H          107.60425035269196      126.08406847529928      120.36756351186430
H          106.32609521898850      124.95129417428163      119.90711496448750
C          108.27552942716885      125.38106144323916      117.80284422418708
H          106.19787503220455      125.88610386052062      117.66648480269174
H          107.23064128834390      127.23878677695964      118.10895250305562
C          109.59487622397208      125.75547232232753      118.48372935224646
H          108.09993498930400      124.31225283509731      117.93612446231710
H          108.38663989615800      125.56034092026268      116.73052196823978
C          109.88639472421750      127.25594948802200      118.40283819161633
H          109.59642000235985      125.42843505953883      119.52303415763336
H          110.38998355742903      125.20791623490572      117.97518101440770
C          111.36945643612505      127.59378890616715      118.41127153362314
H          109.49061289211942      127.63986679790851      117.45947941629083
H          109.38633058610336      127.78297449803230      119.21553520764539
N          112.03088375487272      127.38947328851133      119.68369175673404
H          111.87824138126496      126.98939862522516      117.65418132799445
H          111.50401287925106      128.64472400315708      118.13601834275093
C          113.26572619132990      127.85658687410464      119.89174240590359
H          111.60566128239135      126.77689062791143      120.37670662159923
O          106.16848416626132      126.82149029687072      122.38065079080052
C          113.85476624654616      127.48590250561955      121.23661986363592
C          113.60863834278325      128.59171750562416      122.26702037176197
H          113.38352121826291      126.56759754053316      121.58585533643607
H          114.92750826466745      127.32253349246417      121.12546847597463
C          113.88548553378877      128.07438061608494      123.67475214464245
H          114.23464218506706      129.45939022946325      122.05414247728856
H          112.56505444580367      128.90988831947973      122.20979005321152
C          113.64467668522998      129.12942340683890      124.76110928854341
H          113.22967477445388      127.22009824361665      123.85432071252139
H          114.91379836490867      127.71551489780896      123.74048309542553
C          114.83806277831086      130.04694589616602      124.93006833783740
H          112.78028435190777      129.74130650987323      124.49429900375250
H          113.44060016253420      128.64323998645082      125.71362619737208
N          115.28753714195426      130.14233509028506      126.18714470295623
O          113.85739323686769      128.55689237177748      119.07022917901391
C          116.41738313492152      130.95465877820783      126.58266617319831
H          114.84311340134391      129.60755949345941      126.92249828467689
C          116.10850504496382      131.77579859099308      127.83249505489542
H          117.28051878555566      130.30690708878510      126.76069335825420
H          116.64672295217747      131.61442661466850      125.74247550160210
C          116.02520415383776      130.93713291502448      129.10963133240421
H          116.88816566911854      132.53005350090254      127.94937330953556
H          115.16123546702602      132.29817200183317      127.68263798940426
C          117.38368238041181      130.39318889423726      129.55500103976718
H          115.62542069687470      131.57282892639336      129.90328130072149
H          115.32470648901858      130.11378847911374      128.96507625441404
C          117.36443764884140      129.85099095817088      130.98337090272824
H          117.71154731617742      129.59552001153324      128.88635069740585
H          118.11797828538903      131.20089675743799      129.50471754216971
C          116.49761653431310      128.59575647410804      131.13669059067951
H          118.38759279161361      129.60403389987746      131.28093078017901
H          116.99657089554270      130.62613633639600      131.66219672677454
N          116.46903719652344      128.03916656712101      132.48160500742503
H          115.46589387415432      128.82424165180666      130.86013994272710
H          116.86399615904746      127.81628328991893      130.46243422993328
H          116.13796601957036      128.74431684987053      133.13179491251890
H          117.40971450745069      127.78758894169103      132.76661622379589
O          115.36214090823948      130.63918208894015      123.98885117674671
C          104.96303896245981      127.89516589412067      111.55432463429611
C          103.80890798942877      128.70380264709269      112.07333626565094
C          104.60487413120821      126.64383777098942      110.74747250385049
C          104.18230992258019      126.95492454273436      109.31361610017434
H          105.49070760838626      126.00663332832460      110.71817945137366
H          103.81562641724385      126.08324844184261      111.25254648216615
C          104.09069979253171      125.68121378564801      108.46909872856746
H          103.21195740614057      127.45074709827544      109.32504495667956
H          104.90538663620526      127.64009245215850      108.86699819695522
C          103.59667340444564      125.98456559269680      107.06835435290284
H          105.08053949591461      125.22663678464394      108.38684804343043
H          103.42318009052893      124.96288218171699      108.94487439761964
N          102.43272495854440      125.41453189388625      106.75190120814557
O          102.79807578514819      128.84829806418688      111.23249395397625
O          103.80541671031744      129.21918305537338      113.17511632706601
H          102.14391342389879      129.50761984056510      111.57609697599187
H          105.58539590707835      127.63261344047265      112.41143943214624
H          105.53833888416158      128.56925549163165      110.90543567902486
C          101.75456026750362      125.57587737454320      105.48446396502685
H          101.94002587672560      124.87129550482292      107.44921007977668
C          100.33819227159735      126.10798839118046      105.69391931570449
H          102.35193603064923      126.25694059591646      104.87438655127492
H          101.70501852344825      124.60537603232167      104.98010548204461
C           99.50587141479389      126.01339993453384      104.41836898775934
H           99.87468446325516      125.52349668469085      106.49097282937416
H          100.39733723684994      127.14776532368261      106.02017594606292
C           98.11462716380450      126.63420897913372      104.56126299848677
H          100.03136246976095      126.53509946133062      103.61576393973775
H           99.41725805723384      124.96693002251217      104.12592606625543
C           97.23120908035997      126.00501881915241      105.64021698750443
H           98.22279292367365      127.69773254676092      104.78398927693466
H           97.60257270047067      126.55044606640794      103.60067806250441
C           96.94453928229430      124.52587244531217      105.37945778477344
H           97.68323851465385      126.10277876019060      106.62864200705356
H           96.28302388315659      126.54754894847534      105.66426197678130
N           96.08466918809846      123.98618998643632      106.41352513161087
H           96.44786798985020      124.40433303260619      104.41164926656273
H           97.86877805778289      123.95374001357280      105.37208252435072