3864
 energy: -5104.222211801583 gnorm: 0.000985745880 xtb: 6.6.1 (8d0f1dd)
C           66.94127904769690       51.67383268402765       51.69529177743464
C           68.13554688178513       52.38004596289404       51.78510195433556
C           69.32891468545691       51.66868769012738       51.70741843097921
C           69.32649987808290       50.29574848501138       51.54014724155526
C           68.12978932187968       49.60300268256293       51.46406051149830
C           66.93455940901701       50.29709614156950       51.54423257451180
C           68.12674291477582       53.86896326358733       52.03296604395717
C           68.71382386923585       54.15101182436932       53.42187279122322
C           68.88933628986460       54.68393959111658       50.97862463133212
C           68.20963208103940       54.71784857084476       49.59928959781200
C           68.58748773558126       55.97921163371825       48.86151918672500
C           69.91280988839290       56.26153910339352       48.55121525035106
C           70.25072097186967       57.41636414108284       47.86918634479212
C           69.26766935610843       58.31391511838269       47.48833271395249
C           67.94494074860978       58.04779344786848       47.79551925299167
C           67.61218688269831       56.88892581991539       48.47429581821313
C           68.55768485826030       53.48572711003703       48.75544448858489
C           67.89423471792566       53.52625380164515       47.37170587424576
C           66.39807082958067       53.66640997586064       47.47706009642285
C           65.64494058905053       52.83087119093506       48.29384336946130
C           64.27623402738072       53.00134641855863       48.40364105147298
C           63.63202219890798       53.98779304677145       47.67736324815034
C           64.36984853445009       54.82225659250288       46.85666894643927
C           65.74269289373927       54.66980698468572       46.77292193826676
C           68.30421069384850       52.28324690255876       46.56714620628396
C           67.93442979630602       52.34612509029051       45.07440883309976
C           68.25673522909223       53.68921840544079       44.47182117052477
C           69.54427553973379       54.21304010528341       44.50445322042058
C           69.81805482005558       55.45438929036499       43.95895478687758
C           68.80871529226600       56.19356924844703       43.36524428329177
C           67.52461401312591       55.67924084011855       43.31812351581536
C           67.25451026030254       54.43865437456895       43.86803991076051
C           68.66723446838263       51.21921276071351       44.32686154986934
C           68.48979788162532       51.27363001824334       42.80209211500758
C           67.03950741829698       51.16890464427297       42.41404240254678
C           66.43760802536382       52.18240674129277       41.68003026225342
C           65.10271063460169       52.10614914655748       41.32779921810268
C           64.35499691827245       50.99888491931534       41.68737808967987
C           64.94280663955482       49.98030901003236       42.41700712375148
C           66.27454116217760       50.06750691343416       42.77993458039781
C           69.33544697801911       50.17793911665701       42.13590126328017
C           69.31852998008461       50.25085982144755       40.59469167751342
C           70.70449851698314       50.05125332566175       40.03389668041789
C           71.42556024058761       48.89576141399406       40.31399243290498
C           72.69518619673597       48.70905913885311       39.79966709406961
C           73.26689220012763       49.67504601951013       38.98914979099460
C           72.55884803863852       50.82809852187903       38.69974277264276
C           71.29034586985763       51.01295236447528       39.22133856273762
C           68.35962585321626       49.21569019044022       39.98971953902053
C           68.20136095523210       49.40254480402088       38.47664860985066
C           67.38118675770505       50.61942370073346       38.13288244309515
C           67.91724837371073       51.62018876442765       37.33242124657681
C           67.15522235190501       52.71014472803208       36.94912614275232
C           65.83264793081409       52.80627185555685       37.34626123252641
C           65.28569197811355       51.81316321722394       38.14022694108775
C           66.05769406250982       50.73763575521598       38.53856131790430
C           67.57115717742879       48.16062666516979       37.81680331953239
C           68.61571171993594       47.14084076216010       37.34756000622099
C           69.61675626237744       47.79380108809064       36.42753274326628
C           69.21616514400941       48.40371342906736       35.24367332107243
C           70.13988220918063       49.00887316795995       34.41162646290326
C           71.48344305681272       49.01429726806401       34.74787307432047
C           71.89495507774942       48.40469145266546       35.91992071557883
C           70.96791558030225       47.79936481221346       36.74944450875766
C           67.94607259219922       45.95641758583120       36.62909204615469
C           67.31858090132479       44.93867934852170       37.58990804277499
C           68.38004651920032       44.29964378129164       38.45143249115138
C           68.34377148928768       44.45076100512185       39.83161421293924
C           69.30783610098584       43.87352620836744       40.63895963331574
C           70.33102640965809       43.13363549085262       40.07405209986315
C           70.37651986578462       42.97066803075145       38.69966914927840
C           69.40881034007523       43.54729781195739       37.89664735646286
C           66.55185223619402       43.84685528008777       36.82745896176744
C           65.21286850235462       44.28725255937144       36.21194278746849
C           64.81545720582184       43.27215186984492       35.16801274584116
C           64.61202504197671       43.65230394163414       33.84818472918165
C           64.24841162595172       42.72332927658771       32.88847622735055
C           64.08799730329218       41.39361749606360       33.23497167882149
C           64.29303504356203       41.00268097974995       34.54757281912585
C           64.64470207758306       41.93400918986516       35.50740205531357
C           64.07207437113904       44.42729753294186       37.23968457208220
C           63.82635335688268       45.85246738048904       37.75367533795621
C           63.64018802310093       46.87262411607713       36.65709496942310
C           64.13052950916425       48.16129734139739       36.83134430102984
C           63.98203827448425       49.12831690333258       35.85366539004926
C           63.32877370443771       48.82049164931853       34.67303311329485
C           62.81455552374313       47.54739421221597       34.49461478580717
C           62.96321007305038       46.58508554748688       35.47714578163677
C           62.59858853319796       45.86124081284666       38.69281784933909
C           62.80515247559675       46.74596494768266       39.92927013602301
C           63.91111413976365       46.18705038559965       40.78956924625978
C           63.76740690291610       44.94915859887485       41.40703996047682
C           64.77349607963767       44.43034898679250       42.19933712424950
C           65.94163061876149       45.14693804337686       42.39462579953871
C           66.09465963643532       46.38648667368496       41.79711237250401
C           65.08640985412484       46.89693042761340       40.99662155276438
C           61.51511229815158       46.84967867103880       40.75984400763271
C           60.50990134215590       47.89072125904584       40.23690552381701
C           59.15666278387398       47.55257792123375       40.81063816995065
C           58.17707470634220       46.99517650414914       39.99904301559190
C           56.96837064572921       46.57618750118171       40.52813375533349
C           56.71365367378696       46.72621583073883       41.87982331097259
C           57.67353796444444       47.30220505929049       42.69524563103395
C           58.88738913528791       47.70364614605094       42.16664436437937
C           60.96460432142545       49.31415211934824       40.58049141659038
C           59.97199808193582       50.38366758388367       40.11324696008782
C           59.63012647654437       50.24322095891205       38.64906417772705
C           58.30171501983131       50.20325146113105       38.24374464425666
C           57.96681485367575       50.12546658772125       36.90316603467086
C           58.96184005766825       50.07545509313167       35.94258142379641
C           60.28979035238228       50.10089398424514       36.33422942089114
C           60.62019143302005       50.18954332430459       37.67387331758844
C           60.50557712468833       51.81025345649186       40.34408998267793
C           60.68353172597806       52.22977742979190       41.81257088653980
C           61.35483418003522       53.58197712433147       41.89808881697953
C           60.81673190349896       54.69902816941834       41.26744252856983
C           61.40611854589179       55.94284765253613       41.40132965899832
C           62.53958619712480       56.09838114093144       42.18069842630727
C           63.08648025649246       54.99593880269492       42.81161613110252
C           62.50090246630526       53.75065488206754       42.66587768116115
C           59.34330371244463       52.28624924229357       42.55510414629846
C           59.51143189335450       52.69081713933063       44.02297786322531
C           60.19581760226029       51.61967120841771       44.83179719893096
C           61.38642315385534       51.89684248105480       45.49252613776115
C           62.03073236892600       50.92491226412724       46.23757185147147
C           61.48683082679863       49.65687635787830       46.34549486019734
C           60.29119721591753       49.37527557814592       45.70533987663423
C           59.65251773687050       50.34564386966387       44.95445093946812
C           58.15388014490203       53.04765435977959       44.64174622880427
C           58.32347217238028       53.81369242260929       45.95627066617130
C           59.19520358835523       55.03901299483494       45.79085045012503
C           60.08336386922179       55.37970640137672       46.80390038261764
C           60.94337802422501       56.45541405641755       46.67409924239207
C           60.92466412216049       57.22335630929396       45.52264783510395
C           60.02199151467710       56.91891569707284       44.51886163865381
C           59.16809163495676       55.83841174505194       44.65367260665360
C           56.96723089017900       54.22217257963003       46.55453049058958
C           56.07788743044546       53.04419146227580       46.99608809262709
C           54.67953436216074       53.56985120452383       47.21912518007818
C           53.75787436965152       53.50652051500610       46.17958194120282
C           52.48099989923722       54.01476707176604       46.33105513814395
C           52.09366957755552       54.57631914000396       47.53554204074062
C           52.99917547889223       54.63974692937946       48.57947435485153
C           54.28512950241899       54.15468023244312       48.41515552276495
C           56.65744935299623       52.32680005236933       48.22068780447351
C           55.75018261744555       51.19374906552936       48.72322031621604
H           67.08481008875354       54.21079887148477       52.02975770090664
H           68.96212756218368       55.71117645650649       51.34703672818369
H           69.90618863377847       54.30149106240537       50.87866766353144
H           67.12516280261192       54.73052881116331       49.75345113452726
H           69.64061054765135       53.43950190728977       48.61851102732994
H           68.25642640560285       52.58428364700762       49.28900093953763
H           68.27804346551629       54.40932833890727       46.84783464394433
H           69.38781049153381       52.17070303222523       46.65687446664718
H           67.84411693331764       51.39473443998698       47.00647777958789
H           66.85522682567145       52.18514058651427       44.97549950869499
H           68.30591087593535       50.26213206714570       44.70807078617967
H           68.86828262034813       52.24250604606598       42.45493916220653
H           70.36453774394549       50.29147358828934       42.48549004137043
H           68.98323800806828       49.19991833604347       42.46304700854679
H           68.96844771266517       51.24523256503780       40.29542130794385
H           68.74942315234404       48.21328485742346       40.17841875010388
H           67.38901823998890       49.30751843985392       40.47812070219681
H           69.19940008326498       49.54215870694224       38.04786223640089
H           66.89152676968065       47.68021310818948       38.52090496631814
H           66.98586002591070       48.47796537730304       36.95147753524117
H           69.15863270439863       46.75686301747005       38.21799929362772
H           66.61858494014852       45.45557235661378       38.24931935775936
H           67.18920405287295       43.47351028369673       36.02112096652873
H           66.37099518941888       43.01288053831718       37.50939314239873
H           65.35228787842884       45.24829603714446       35.70855822260095
H           63.15080966784738       44.05690142201631       36.78504521303735
H           64.28744657023992       43.78727968817068       38.09695967855040
H           64.69785298287833       46.15522015224654       38.34118299862420
H           61.72230998827811       46.20464103387100       38.13927975213713
H           62.40123510844550       44.84174678919227       39.02921148727923
H           63.09468772900340       47.74613922859539       39.59341945032526
H           61.02905050189877       45.87114805705431       40.77799877380001
H           61.77363330919414       47.10139429886345       41.79143202571916
H           60.44835775670428       47.80507453089611       39.14668613852582
H           61.09687700223601       49.40052473484106       41.66040695664102
H           61.93477324925811       49.49412466589828       40.11422706722723
H           59.04468103824667       50.25700129357264       40.67929667341586
H           61.46837309451981       51.91203734285902       39.83483321971697
H           59.81595209192029       52.50657819121160       39.86028700744708
H           61.32362737760264       51.50440923339813       42.32376784979148
H           58.70670530141306       53.02527722942253       42.06518367577716
H           58.84660367111709       51.31862545923019       42.50186028644170
H           60.14130316170549       53.58589634457865       44.04749490372249
H           57.57514722154832       53.64792998319143       43.93702295942531
H           57.58946049056707       52.13195754867237       44.82045978176276
H           58.83150740302632       53.15450867295952       46.66904174391293
H           57.14967508238358       54.86182833180028       47.42248085087698
H           56.42271496315862       54.82112483864865       45.81819201902661
H           66.00060703348305       52.20453910254913       51.74718371423766
H           65.99254722612841       49.76842929031280       51.49310439929103
H           68.13642349051815       48.52907983796468       51.34526320360770
H           70.26178861181269       49.75706009639312       51.47667914814661
H           70.27245743358873       52.19108754016946       51.77751882360105
H           70.69236594422976       55.57349983205171       48.84393313845073
H           71.28609907026397       57.61869294765192       47.63379168669051
H           69.53166747866186       59.21614441924918       46.95548662869010
H           67.17112884918276       58.74383618282142       47.50347569928383
H           66.57643398428719       56.68077563317053       48.70088881873020
H           66.13079672708412       52.05183887321524       48.86415222087228
H           63.70978116717064       52.36638473514056       49.06989008198358
H           62.56180649470743       54.10771753527926       47.74642119858191
H           63.87402679609798       55.59799500496509       46.28890009837755
H           66.32207954259954       55.34175052904327       46.15411525159974
H           70.34331855012802       53.65051473421832       44.96481988880856
H           70.82323051015189       55.84983509684252       43.99769042890238
H           69.02334282375868       57.16467090643924       42.94232585836946
H           66.72996546839836       56.24635802213434       42.85290217133816
H           66.24961088928855       54.04183002422549       43.82844381735163
H           69.73587703524503       51.28107931004124       44.54716144371628
H           67.01958408712940       53.04541708608559       41.38503334205708
H           64.64599720864065       52.91602284317534       40.77738175930945
H           63.31796473370026       50.93322987755685       41.39950907625816
H           64.36162904077493       49.11434691783146       42.70104077443026
H           66.72120061030814       49.26993198243146       43.35464007469947
H           70.99444597273632       48.13392804599442       40.94549606978003
H           73.24181649150549       47.80535111284841       40.03016044447211
H           74.25955716569737       49.53127084119598       38.58704122632354
H           72.99665407707111       51.58665681016127       38.06620212778986
H           70.74554234462538       51.91952805626011       38.99434374324061
H           68.94332275457866       51.53841835382001       36.99878459778848
H           67.59232625072698       53.48168080686524       36.33038240625018
H           65.23173016954102       53.64935995251911       37.03614154385771
H           64.25129580747486       51.87786800465569       38.44508886337962
H           65.62077045087300       49.98157921044433       39.17288156182797
H           68.17204780775248       48.41254949814194       34.96777318140611
H           69.81118376459203       49.48170662566291       33.49685617750217
H           72.20444855151099       49.49093628731989       34.09940143165573
H           72.94028345703020       48.40442562734624       36.19285443147458
H           71.29870665301048       47.33288852212998       37.66677278052803
H           67.18014622020388       46.33985350895916       35.95326312475744
H           68.69641356750292       45.44916678625527       36.01794473596534
H           67.54825340896855       45.02925709279436       40.27818216651366
H           69.26567756216853       43.99956199714119       41.71149765719748
H           71.08673064709727       42.68548340641372       40.70190350976176
H           71.17114826106527       42.39115391626139       38.25011050275450
H           69.46047898856168       43.40727100064735       36.82659738683527
H           64.74052463995221       44.68907392347597       33.56719655790528
H           64.09716325493778       43.03830171279839       31.86580311366454
H           63.80379241538000       40.66608989009260       32.48832139611524
H           64.18521519961840       39.96222701641263       34.82169847478860
H           64.78876367543735       41.61594365006641       36.52970170200634
H           64.64804340544002       48.41573879838472       37.74301914197116
H           64.38514765007275       50.11946212091560       36.01288956931273
H           63.22145468009492       49.56638599496944       33.89705907590881
H           62.29816274575303       47.30269713742234       33.57660138434156
H           62.55822817627938       45.59971328830039       35.31072952354444
H           62.85699926742914       44.38497397111491       41.27462940828713
H           64.65086425540771       43.46538206620538       42.66872500857993
H           66.73028619907591       44.72784979857023       43.00265913335664
H           66.99965669576181       46.95955407338217       41.94708821545034
H           65.21648721741491       47.86623379075659       40.53451109142028
H           58.36836185582847       46.87639909878098       38.94108353510026
H           56.23326143420259       46.11695789055650       39.88280923748789
H           55.77637328483471       46.38830083417649       42.29654290179691
H           57.47758574080537       47.43566112999299       43.74904567159226
H           59.63231503423756       48.13386473287720       42.82025943486400
H           57.51277639782644       50.22579060433420       38.98323534793492
H           56.92557223284643       50.10225763565041       36.61447436528000
H           58.71110941255815       50.01951721535300       34.89298394889015
H           61.07470711950314       50.04933483979334       35.59284142031348
H           61.66420435879429       50.21145883645330       37.95218567020214
H           59.92463504983384       54.60647523409365       40.66446729034593
H           60.98303988022406       56.80222211314701       40.89942966599504
H           62.98571112820123       57.07630088210619       42.29345232692212
H           63.97105582960562       55.10446085426890       43.42425212871179
H           62.93971728391688       52.89849262712508       43.16503883306249
H           61.81413289960275       52.88847733306635       45.42427398481397
H           62.96165002885544       51.16409308719642       46.73286890083495
H           61.99087038118747       48.89886810295290       46.92887135183764
H           59.85058739707264       48.39173649861157       45.79181981833881
H           58.71796026058450       50.10671132808650       44.46648362932481
H           60.10127764758801       54.77868675813075       47.70217509162671
H           61.64051919921739       56.69295572209743       47.46632420884742
H           61.61260572431797       58.04970148973378       45.40836258596054
H           59.99643434811914       57.51806372765824       43.61838920776791
H           58.49537880262654       55.60172460038532       43.84330773065842
H           54.98323362586552       54.24304415365177       49.23275288532803
H           52.71279493745384       55.08216143203060       49.52335260698921
H           51.09677265318103       54.97715245478643       47.64714979344387
H           51.77865215487572       53.98213065707074       45.51163013909472
H           54.05221486588007       53.05703133253051       45.24036923774185
H           69.77234156544775       53.90327318335323       53.45007819594191
H           68.60093920552205       55.20285730210092       53.67559173139928
H           68.20752068212097       53.55824203690096       54.18116677519303
H           56.02216646501315       52.32062167762545       46.17643156789361
H           57.63270480654546       51.90899931982960       47.96352407769427
H           56.82173137200279       53.04159539536840       49.03054914645213
C           56.25778362222011       50.67392141781092       50.07497042703058
C           55.64795323027133       50.08828574149929       47.70289256967601
C           56.74206668264951       49.28856234110190       47.39293848525902
C           56.62293774430940       48.24831419890283       46.48993305324896
C           55.41164842111927       47.99701585349544       45.86883422025110
C           54.32220452098294       48.80205790951524       46.15012376440851
C           54.44215370138365       49.83809301804879       47.05895644378818
H           57.69687151558866       49.47091862307892       47.86537937246879
H           57.47954675421395       47.62306428952657       46.27853627746736
H           55.31891715860468       47.17627022890643       45.17176678755313
H           53.37212524083596       48.61664374101179       45.66963975722451
H           53.58337967795205       50.45753425347129       47.27693209666290
C           55.35717636391391       49.57994769555437       50.65590225995984
H           57.27290417579565       50.28900693399967       49.96293334607839
H           56.30837499244706       51.51119563424292       50.77371336224816
C           55.83672899675052       49.08802822561993       51.99255993250009
C           55.91941711574847       49.95243057232533       53.07956816909271
C           56.37051753920857       49.50248823391887       54.30596814481144
C           56.73004731765135       48.17657418468535       54.47548545248809
C           56.64044604168119       47.30552273477072       53.40562654287911
C           56.20433459208500       47.76225675503493       52.17317340119393
H           55.62399155192246       50.98665891205490       52.96371273904351
H           56.45207224303676       50.18410276083483       55.13978211991571
H           57.07608911351901       47.83368302107931       55.43998640048711
H           56.91566452250874       46.26628553111251       53.52644483012966
H           56.15302211517467       47.07660048671046       51.33819167765148
H           54.74581012482805       51.60493754911689       48.87379427781156
H           54.34599386130431       49.97921182292123       50.76992302557638
H           55.30546782877854       48.74502151240181       49.95307778345893
C           33.92944136830820       38.69714453877928       46.74818072325080
C           33.30731583340005       37.78977651472746       47.59639878466470
C           32.61650793467430       36.72403480100102       47.03104433771926
C           32.53688186848372       36.57910031983380       45.65756072855174
C           33.14597888095511       37.50150348827079       44.82338267520530
C           33.84982676522932       38.55804104289199       45.37330197411389
C           33.34433859901495       37.99598638303391       49.09021626235910
C           31.93270270807744       38.30235860736551       49.60109594621275
C           33.93602155864223       36.79098754562960       49.83200671273624
C           35.34966625189791       36.43282321132377       49.35495842572123
C           36.29723474943521       37.60307923323947       49.43015101724860
C           37.02952992667545       37.99215606194662       48.31466698834593
C           37.97786149697747       38.99728005162458       48.39941332338316
C           38.19831658218979       39.64582680991201       49.60226111030472
C           37.44544962219903       39.29274767302699       50.70858075699451
C           36.50688111087759       38.27962829339706       50.62608923770901
C           35.90799350835718       35.27064899843576       50.19491455578097
C           37.24566720652554       34.75386010407997       49.64796982617674
C           37.04362713118400       34.10292705280639       48.29933410062407
C           37.63302042746518       34.63682899131091       47.15999514339037
C           37.41108990517629       34.07850781720095       45.91340749658988
C           36.62235513908468       32.94930166269406       45.78846606248693
C           36.05016216854506       32.39085600896178       46.91837394678163
C           36.25058534122292       32.96977900351861       48.15811467272611
C           37.93451437562917       33.76505395726107       50.60162949548474
C           38.33859392580029       34.31786120251061       51.98253799009250
C           39.02227114258942       33.20073501247537       52.73321002121848
C           38.38438536973439       32.57422133649234       53.79582306182320
C           38.98643322321551       31.52433397577385       54.46787826221452
C           40.23730929504369       31.07725896103552       54.07953539810763
C           40.88133884482788       31.68815763644399       53.01725945563925
C           40.27854325250690       32.74115487399012       52.35565078832984
C           39.21616869231452       35.57144788953824       51.88219248645453
C           39.73579725879836       36.06150208695980       53.24385963368400
C           38.59477031227235       36.27274563727688       54.20641593807508
C           38.49206793992128       35.50449907524593       55.35943276174405
C           37.44315071108760       35.68862984261497       56.24403410690513
C           36.47498426730566       36.64477089959523       55.98745496637513
C           36.56482713746672       37.41712822431461       54.84135571938999
C           37.61811431025818       37.23223421635024       53.96439154968362
C           40.54354948269481       37.35213311736877       53.03783996888429
C           41.04764672761634       37.96459139477174       54.35265052237035
C           42.19166970157625       37.16226772163242       54.91718747785691
C           42.03345683569239       36.43222306937255       56.08790609564411
C           43.08655668265490       35.71315072211335       56.62706871481828
C           44.32348672680434       35.72324839208957       56.00690015370625
C           44.49325133704293       36.45082514675188       54.84132745460988
C           43.43680367790820       37.15719969240976       54.29675808083063
C           41.47919100473857       39.42670688216313       54.15011687392057
C           40.29418951278704       40.40514342189486       54.09239594729927
C           40.66160371609281       41.64188789880910       53.31222988234378
C           39.83055209622552       42.12513996298032       52.30911484146969
C           40.15161268470558       43.27174017761881       51.60395680150357
C           41.32358864155280       43.94881977915945       51.88714109272985
C           42.16651787418350       43.47092714709272       52.87531777252150
C           41.83618242017207       42.33290583162405       53.58663827837055
C           39.82116448608652       40.78244012449596       55.50694335092562
C           38.63207214953555       41.75807850229423       55.52133282095377
C           38.35887608023533       42.24252007450596       56.92359020473990
C           37.95391836057578       41.36307922280239       57.92180982310365
C           37.66534149325305       41.81956076547748       59.19483751846217