3536
 energy: -3716.266666956084 gnorm: 0.000810951827 xtb: 6.6.1 (8d0f1dd)
C           67.94189511056423       49.85413877395825       73.41967944951415
C           67.63618229089221       49.84248718562092       71.92372921483607
C           67.93149151236446       51.21668293717651       71.32324164113992
C           66.17615062886989       49.46981318800008       71.64226194310768
C           65.72933601304641       48.08058314544451       72.11247043093546
C           66.59124626270845       46.97783865542423       71.49515881881851
C           64.26226746454920       47.82553388412600       71.73428848410471
C           63.21070672718688       48.70722102591126       72.41697501932141
C           63.19705346650237       48.48229472915786       73.92912504879415
C           61.81282574379171       48.40592155378337       71.85316069810483
C           61.56459921719880       48.83437176186177       70.40173169351833
C           61.67399451041916       50.35093559660325       70.25558493289525
C           60.17206440489475       48.39014250982206       69.92781879158893
C           59.93588973409147       46.87775543482133       69.83616965824106
C           60.92456791758960       46.22040283982246       68.87212996301143
C           58.50979626775320       46.57018525913039       69.35235624502751
C           57.36095229855096       47.07855493592050       70.23082553382901
C           57.48887024214498       46.57471089513681       71.66904719761249
C           55.99895476383779       46.62874464157701       69.67805973068496
C           55.67975210539009       47.03386888366013       68.23454941388286
C           55.85388854097855       48.53579778861142       68.01675252917001
C           54.23786595192151       46.66112577670992       67.85913342104810
C           53.83774829137752       45.18852179996855       68.00707715221610
C           54.77633408844405       44.27207371459776       67.22423311268732
C           52.40251441810677       44.97206467024667       67.50001583708968
C           51.29553372449048       45.60344527021845       68.35210125280166
C           51.11207682970610       44.83028783784677       69.65894097724500
C           49.95281737500476       45.63168778972584       67.60659517143903
C           49.90952164652588       46.44510236054105       66.30714514126679
C           50.39098045996518       47.88010854659393       66.52136095596254
C           48.48547142985691       46.49103523265147       65.73362221666329
C           47.80612564023108       45.14372443367576       65.46085448298594
C           48.66546620531901       44.25815829909597       64.55913853393682
C           46.44717332509600       45.36077451790997       64.77629825510536
C           45.34422132540849       46.00190610281476       65.62550736164675
C           44.93337294705713       45.07556246213789       66.77098463190217
C           44.10311146611795       46.34394910378977       64.78055430781423
C           44.17373589544491       47.66762799859880       63.99700675339307
C           42.78275856749771       48.30118594858584       63.93764367736500
C           44.70947330622910       47.49213420563188       62.56810759256216
C           45.45367848416403       48.71324369175392       62.00412912490052
C           45.58441480672090       48.56383900492803       60.49029125567399
C           46.83023092502359       48.84496608919532       62.66805816929035
C           47.73966857152733       49.99071366213236       62.19639015108754
C           49.06551627861622       49.87862839740956       62.94972956936548
C           47.10242734041685       51.36573490669775       62.42370263563143
C           47.87092861736769       52.54740602900332       61.81216854435435
C           47.38369152097102       53.84661046221716       62.44980951706824
C           47.69845051238822       52.60288030906788       60.28921267496737
C           48.77879113739034       53.42158016831888       59.56669784585498
C           48.27330561568613       53.86433869156027       58.19621666327912
C           50.07103644802159       52.60673757131537       59.43626883744533
C           51.31214965540671       53.43099752226422       59.04814815332936
C           51.71022391417018       53.16277273345435       57.59713240640809
C           52.52097635627043       53.12549896809598       59.94529907613013
C           52.37457760499498       53.46321815595299       61.43373233276961
C           51.99198516943249       54.92853879567853       61.63777121082411
C           53.68492151293221       53.18463184287452       62.18646715951870
C           54.17784929968062       51.73331697495151       62.20490641716339
C           53.17008714564535       50.80920558233863       62.88759160320415
C           55.52713609367464       51.62454577304632       62.93393097835734
C           56.71088986253759       52.35011190517590       62.28173034907950
C           56.87237424275905       51.93827570977294       60.81810623514527
C           58.02484043564478       52.03939903649938       63.01526946406943
C           58.13407112823940       52.47880974358219       64.47936467451501
C           57.99978854133765       53.99466650913887       64.61828410374129
C           59.48870741009749       52.05932497853476       65.07460384288389
C           59.77826333134231       50.55532770549681       65.11027817830625
C           58.72304974483852       49.82391654801119       65.93863800772758
C           61.16538403608182       50.25953743309999       65.70270869424492
C           62.36373009971007       50.90977415228823       64.99883711991194
C           62.32600506761325       50.68817850922492       63.48657645714119
C           63.69226251001422       50.33898824395007       65.52156565255997
C           63.92142661162770       50.39006888147220       67.03521069734572
C           63.79111545992722       51.81202169598635       67.57916429966781
C           65.32290709581775       49.87671298530967       67.39959521506860
C           65.70588107430085       48.46990558367025       66.92526513871600
C           64.75753917343714       47.41385811372254       67.48859109772185
C           67.14708874988713       48.14740417072190       67.35321732216728
C           68.23185959901903       48.87651830813120       66.54971167757198
C           68.38856016892649       48.26588587599628       65.15829441706408
C           69.57996164327454       48.85861665089649       67.28789495284038
C           70.44525295300151       50.09836034106009       67.00550280801616
C           71.91231969321578       49.78695353619754       67.29520056052911
C           69.94785839456154       51.27029505775838       67.86168614127726
C           70.54046017457694       52.65447729592309       67.55993026872500
C           70.12804966774304       53.61475999512683       68.67689323764894
C           70.08541964158212       53.17269868970306       66.19170358840991
C           70.72448315963914       54.50130776301663       65.78889368087646
C           70.40307600148469       54.86476209871019       64.34393991748469
H           67.26324618030991       50.52820295738729       73.93893735760479
H           67.84011120402732       48.86162500489583       73.85110346899228
H           68.96066327523205       50.19411891087125       73.59491455628127
H           70.80161478242930       54.11623706314079       63.66185629669926
H           69.32695309509143       54.92227445615399       64.19791246380534
H           70.83470118686957       55.82919056322648       64.08474248554685
H           70.33792224495359       52.43149075647784       65.43110803855447
H           68.99891560705977       53.28547297110359       66.19645468258886
H           68.86239091141329       51.34417527829329       67.76413962547251
H           70.16165630046015       51.02784858723327       68.90595859766005
H           70.35063598624009       50.35205256425763       65.94525266023555
H           72.25341302242363       48.95553963969922       66.68163201424377
H           72.54527243259010       50.64402288436688       67.08002328382416
H           72.04310733677939       49.51689568102586       68.34132642847392
H           69.41482544115362       48.79834439104712       68.36615855582454
H           70.12721533564654       47.95930640650921       66.99725734853124
H           67.25274501334167       48.40555707337506       68.41046180763787
H           67.31659939384954       47.07089050162327       67.26478064684463
H           71.63351565135481       52.58491456530594       67.55878149647556
H           70.59954305911599       54.58588943822962       68.55445968188405
H           69.04860443567537       53.75040258367038       68.67955151893422
H           70.42390551736761       53.21942844084236       69.64622679735689
H           67.92797605263398       49.92029584609774       66.42990224333430
H           68.62431747286706       47.20570483807428       65.23343861214268
H           67.47695244351775       48.37416599571153       64.57634761382184
H           69.19287220212969       48.75624945991571       64.61523489049578
H           65.65408504115526       48.43160267427992       65.83384341068415
H           63.73538488199625       47.59090696797585       67.16457307921591
H           65.05360174463546       46.42082379635013       67.15551181755008
H           64.78087699318003       47.42462157365690       68.57656064040955
H           66.04941095981462       50.58781808112796       66.99858381892115
H           65.41585869336949       49.90269084588726       68.48957552672911
H           63.17854781685336       49.76159384791320       67.53345779733979
H           62.79249317945206       52.20920146609944       67.42253811834053
H           63.99809700997135       51.82857243902834       68.64752696771201
H           64.50798581318831       52.46745994871470       67.08768089233392
H           63.74963032023028       49.29673168715743       65.19943279847978
H           64.51017716743105       50.87808669361674       65.03416135487377
H           62.34903021932865       51.98692787077369       65.18707999309569
H           63.23869642923587       51.07055205697997       63.03241758962471
H           62.25333299630671       49.62571165151787       63.26098374396284
H           61.48253408144155       51.19717841264792       63.02850164434709
H           61.16074506914130       50.57302105645557       66.74915696683038
H           61.31140148663831       49.17463747313320       65.68843346941117
H           59.75527500095203       50.15316295443204       64.09569751378282
H           58.61719234371342       50.29346998543479       66.91460077612655
H           57.75462773340746       49.84108033479153       65.44665026168457
H           59.00451181559900       48.78473241714220       66.08695398641099
H           60.27122021292969       52.56072922718461       64.50104034164866
H           59.53970663096336       52.43452381138268       66.10108103376741
H           57.33643458087101       52.00855749004199       65.06061247360449
H           58.76882358137601       54.49913125404347       64.03663995371141
H           57.03017459350148       54.33744160770183       64.26902144510042
H           58.10782561133468       54.29244388318082       65.65963816319407
H           58.17730223267420       50.96081021046194       62.96104773003807
H           58.84128643925305       52.51220333306706       62.46330061858832
H           56.53556429769514       53.42935253990132       62.31647923095060
H           57.78383513658230       52.36046346386621       60.40172021932305
H           56.93281733782930       50.85535723517221       60.73093535349716
H           56.03759693228058       52.28954286054744       60.21849829268115
H           55.39388345861708       52.00287739866891       63.94924168942148
H           55.78421669913264       50.56361322896414       63.01006801805916
H           54.30975982247283       51.37937061034756       61.17973820164082
H           52.95095577716900       51.15618923992069       63.89479793530782
H           52.23976048063987       50.76330604281400       62.32754203886778
H           53.56627520666091       49.79744520519085       62.95166551246871
H           54.45958007311844       53.81309954134026       61.74197195227749
H           53.55859899458660       53.50863549077631       63.22288524816540
H           51.58199179235655       52.85143335695817       61.87451551336365
H           51.00575120957772       55.13416817481878       61.23277338784223
H           51.96952688775419       55.17279438634201       62.69729407993123
H           52.71030846039068       55.58430285997250       61.14863264923165
H           52.74852882477148       52.06213069374243       59.84364777398243
H           53.37880585221067       53.68388398783223       59.55811812946852
H           51.07538014560461       54.49586737948150       59.13468998429909
H           50.88702053819225       53.37580273823720       56.92127554854779
H           52.55654130370356       53.78486029794563       57.31243567614430
H           51.99376902829693       52.12047646548722       57.46811380408577
H           50.25653864288412       52.10726442278153       60.38675879889872
H           49.90997757875726       51.82252343434392       58.69359354433075
H           48.98821045610248       54.32010094475653       60.15802503147130
H           48.99794342316421       54.50832686523570       57.70501611540258
H           48.08855392237370       52.99900802559200       57.56330773101730
H           47.34163323015790       54.41808507208898       58.28993666311999
H           47.70652714882165       51.59270372319360       59.87680014128776
H           46.71578500163194       53.03151482190881       60.07359201254972
H           48.93305742887477       52.44394384543764       62.04716588902205
H           47.84467742457993       54.71219704660804       61.98001181891858
H           46.30424224548891       53.93642149734121       62.35086975823106
H           47.63630720843176       53.86822553719001       63.50784659355192
H           46.09232767442321       51.37387333853486       62.00977704382573
H           47.01291054724630       51.52368351888914       63.50200946734248
H           47.94513723480615       49.85753768794161       61.13010891510238
H           48.91315810963851       50.05763811615602       64.01283894657159
H           49.49414646705354       48.88613166097475       62.82818871865154
H           49.79231796892913       50.59793424283369       62.58309684790701
H           46.69269411102172       48.94773922937516       63.74716486068307
H           47.36957539586714       47.90742509546197       62.49840496369482
H           44.85892485572586       49.60732087690774       62.21736984753501
H           44.60887926050868       48.37857731374658       60.04458317069437
H           45.99540348690088       49.46296434923051       60.04186093970872
H           46.23227310829262       47.72489600724590       60.24342466775842
H           45.37795799253286       46.63394293197294       62.51914631761915
H           43.86183691251911       47.26177470781509       61.91712972333677
H           44.82921045789902       48.35195318130908       64.54490810581730
H           42.42974724317173       48.56305162195861       64.93308975336906
H           42.79882618317536       49.20571609587805       63.33577123055937
H           42.06926814581037       47.60774209272333       63.49528848476763
H           43.89000202269282       45.52180057293278       64.09368585553680
H           43.25449812429218       46.41228369695252       65.46610181506816
H           45.72015236097985       46.93426482875894       66.05907072939004
H           44.15790133643750       45.53838247071687       67.37784526549561
H           44.54616419670288       44.13688665384458       66.37879110133366
H           45.77600395730610       44.85506259575591       67.42081619444041
H           46.62501686782848       45.98625610887927       63.90230181686406
H           46.07581491888561       44.39476059969952       64.42256579959142
H           47.65007098246810       44.61919454160770       66.40745273236878
H           49.60577561986712       43.99963703281135       65.03861361995457
H           48.14218646608517       43.33216771169010       64.32705494683910
H           48.88232060478165       44.77190090114367       63.62606835557276
H           47.86540686200696       47.06100797581547       66.42833319450691
H           48.51889906070835       47.05033166790631       64.79493399496313
H           50.56094884958962       45.97763777947765       65.56363935001905
H           50.25096818346253       48.46102108353785       65.61222923025102
H           49.82838272046685       48.35512187586840       67.32274040022494
H           51.44644416127525       47.90749950526051       66.77572073584008
H           49.67233666686925       44.59916515099013       67.38750510263105
H           49.19823817734385       46.03907731042059       68.28570988970819
H           51.57086513841811       46.63009688404807       68.60420278281782
H           50.81780287420025       43.80196838507135       69.45504052975704
H           52.03160058977603       44.81239687116036       70.23871986693581
H           50.33769963851596       45.28961547424586       70.27040711438755
H           52.34963036045966       45.37018269989116       66.48557617119627
H           52.20862050059745       43.89745997717750       67.43662478478275
H           53.88613711949694       44.90831407386415       69.06355698956291
H           54.45570999869003       43.23671460933214       67.32363809436889
H           54.76852487207825       44.53256207200288       66.16773718717134
H           55.79780064361467       44.34153016955770       67.58840323913448
H           53.56980121540498       47.26757596606176       68.47475898874411
H           54.07700414518717       46.95221435546893       66.81697544449165
H           56.36004925704425       46.50795540857457       67.55894696509741
H           56.88916949457747       48.83678118883109       68.14197306347481
H           55.54863566081660       48.80799097216250       67.00929556006129
H           55.24093440748776       49.09548870480362       68.71972307245092
H           55.95003063148365       45.54023330186019       69.75776188252087
H           55.21757289158971       47.03597193227418       70.32672345386457
H           57.38063537226969       48.17141175342081       70.25078411393318
H           58.36800824520015       46.98809158737677       72.15687451294524
H           56.61548980566690       46.86274162202025       72.25173765426179
H           57.56506107006869       45.48887179335946       71.68721283943350
H           58.40360015446328       46.99500979137094       68.35302383659221
H           58.40975349144099       45.48463881815973       69.25985188694911
H           60.07317201479078       46.42460994991451       70.82178000834158
H           60.88093448768075       46.69938302235641       67.89636439844526
H           61.94301578097905       46.28475716867251       69.24481402688905
H           60.68436438227639       45.16716229688027       68.74253452981669
H           59.43644085572599       48.82704247672562       70.60608724791651
H           59.99884298004227       48.81438077365843       68.93498057444343
H           62.31502835626828       48.37779363101598       69.75212232780078
H           60.99413360635465       50.85019072765066       70.94197687850190
H           62.68414011538940       50.69323989490592       70.46128575866422
H           61.41986390745247       50.65413139225402       69.24352496223609
H           61.64378171093294       47.33104800445635       71.94593095461418
H           61.07135154639182       48.90747208152964       72.48217020419416
H           63.44422318034383       49.75902335126914       72.23530625052152
H           62.41483238208311       49.07829380579900       74.39538257534731
H           63.00894273790309       47.43468139079246       74.15718357177184
H           64.14524309899183       48.76656850333030       74.37799753676531
H           64.17356626261291       47.95028267375526       70.65358710398834
H           64.02451707368525       46.78255703789290       71.96299530323309
H           65.82892048525952       48.01942024568038       73.19955671489824
H           66.21023794846641       45.99789091398080       71.77582604001387
H           66.58223586291889       47.04814154593620       70.40930496107022
H           67.62104625173825       47.04391533402086       71.83607604124241
H           65.54466750693609       50.22406378232220       72.11667410064595
H           66.00982996820608       49.53368672085228       70.56332011472213
H           68.29433452847614       49.11484391333143       71.43762557002300
H           68.97329412006265       51.48710667357491       71.48130835912322
H           67.73686076905940       51.21980809429814       70.25342690687405
H           67.30749701108978       51.97665342312273       71.78833703625430
H           70.36542159352560       55.29957344696436       66.44077311912186
H           71.80868911751143       54.43397703274766       65.91210963960884
C           62.70570224640502       70.69453348475666       59.15254304633326
C           62.12974676383622       70.57224163540604       60.55977405076545
C           62.61159097437733       69.26945983753410       61.19717244743514
C           60.59706908768754       70.58952355270203       60.56655535316859
C           59.90413744946149       71.83792212234137       59.99963945083408
C           60.38941393410166       73.10466777556690       60.69981267911257
C           58.38954512199848       71.64689457956331       60.17298267937394
C           57.48761129266636       72.72774964681578       59.56057689078817
C           56.07245007107532       72.55618737192198       60.11745246094385
C           57.47340930729517       72.68808578292446       58.02043651192886
C           57.67225115849603       74.05182795122001       57.34620599347794
C           56.63634597887305       75.07728241657885       57.81147944210808
C           57.56194011025416       73.94494822411261       55.81709328838986
C           58.51659786016290       72.97658250998161       55.11141426711969
C           59.97617624188822       73.30352190464338       55.42579746431159
C           58.32155067964655       73.03217167183544       53.58719622685091
C           56.90761148100551       72.74841768556111       53.06434201419462
C           56.38434997134448       71.40494616571851       53.57026724696029
C           56.88136255357137       72.73255112552476       51.52811583844485
C           57.29292826527646       74.02571720623335       50.81639334157038
C           56.46387061558454       75.22095331454550       51.28831292810989
C           57.12394836507605       73.88846184703195       49.29481192007186
C           57.94026551567274       72.79012038533617       48.59640073347541
C           59.43471791954173       72.96890781486378       48.84481655814075
C           57.61773131544521       72.83887988755106       47.09549573397045
C           58.14378050205952       71.68123075609707       46.23157367056229
C           57.94399482075251       72.05201701184164       44.76125631087716
C           57.42742265568650       70.37338290766375       46.58150284261316
C           57.87859505940789       69.12489742599017       45.81194343646608
C           56.91681033393459       67.97996998065406       46.13191248247313
C           59.32697832504766       68.70717671030454       46.13850291867359
C           60.33141011537607       68.89759566372875       44.99536448617761
C           59.96066218648929       68.03769444160477       43.78440560023572
C           61.76389167522175       68.51003911682196       45.40436694599681
C           62.36802997532020       69.19764534500872       46.63574237511534
C           62.36705053532461       70.71769090298999       46.47295890863496
C           63.81374127617624       68.71404080185023       46.87218099000812
C           64.03294427213316       67.56202800807587       47.86845767300446
C           63.40286266123447       66.25337915327268       47.39439359631017
C           63.54155215331726       67.86894591747199       49.28793135534341
C           64.25173187452629       69.01734720713299       50.01472032544181
C           65.64252029347035       68.59861045659721       50.48708006587459
C           63.40195214066524       69.47070491752065       51.21038761338767
C           62.26496115768015       70.42610183737284       50.81782773787304
C           62.76904403789322       71.86868792159767       50.82496837033078
C           61.06510650615324       70.26880249323810       51.75941517863748
C           60.21543395323931       69.02620483080136       51.45230663731114
C           59.15839524989796       69.36081067771040       50.40174530535884
C           59.54485626916706       68.47232392548550       52.71624821291373
C           60.48983516032884       67.68597068349636       53.63221635274429
C           60.82184193578330       66.32002275070633       53.03014038292442
C           59.88662782737281       67.47545497045741       55.02848366811109
C           59.64934586765042       68.73300179636469       55.87476527375465
C           60.91436022228911       69.58311301584040       55.98152417601249
C           59.17874773672558       68.35344257557290       57.28852066521303
C           57.74531950539652       67.81874096932860       57.38259174767918
C           56.73443601425093       68.95021639328854       57.20563349865942
C           57.49541868918815       67.13250093256870       58.73363427219736
C           58.09703785301034       65.72996662381605       58.88793003134281
C           57.34493181692038       64.71951407533915       58.02447137800004
C           58.03820160458580       65.28603749676489       60.35683153213288
C           59.10693004631165       65.92093719130871       61.25702584095739
C           60.41400867934177       65.13735097642505       61.15850097822732
C           58.63431786193514       65.96524480567690       62.71637493629942
C           57.61787405232476       67.07813354172082       63.00600037035466
C           58.33753437695081       68.40199062680921       63.25810165678673
C           56.73587330822543       66.72310871764532       64.21168411284920
C           55.63564490330922       65.69889312441364       63.90309369455030
C           54.50475239925593       66.34419658314202       63.10548551524286
C           55.08508324763181       65.07916210879965       65.19540021355513
C           54.38011669421820       63.73393747914715       64.97504597917238
C           53.47076801740862       63.41255588635720       66.15932789964305
C           55.40147866300452       62.60788079581992       64.76321993925976
C           54.89335019852803       61.46695318539724       63.87021465516057
C           55.74360740553791       60.22196956990317       64.10069171244183
C           54.93680838556194       61.88756482264362       62.39570460207197
C           54.14016455424241       61.00670151373124       61.42391662002107
C           54.46569811213212       61.41055901731241       59.98611159646855
C           52.62759577707217       61.02416795605784       61.69023974935060
C           51.92410875144265       62.38100963891146       61.49390312537025
C           50.99507579189564       62.65694801551771       62.67453486576373
C           51.13250247922948       62.40432684982135       60.17981981487254
C           50.75222667855665       63.79894702984732       59.66018639998508
C           49.61275103478774       63.66351093364522       58.65234697290101
C           51.97810801210166       64.47973481557831       59.04091541850104
C           51.75276283774838       65.85245379219010       58.39727715452775
C           53.07859258041297       66.35508434135419       57.82524226704216
C           51.12410887419554       66.89672649761791       59.33085012540743
C           51.88077716518401       67.14983866716670       60.63311885100380
C           51.37600607385433       68.40724458194373       61.33086186298173
H           63.79248500232018       70.65012011384674       59.18492657368524
H           62.34873309506221       69.87722189854496       58.53191182233789
H           62.42164487544409       71.63491942421547       58.68732726968985
H           51.57576013448853       69.28812811627857       60.72358560325619
H           50.30181597358503       68.35024352493097       61.49679931452034
H           51.86674377438517       68.53780092118434       62.29313442627485
H           51.05798698841162       67.83997631980651       58.77942670563494
H           50.10056700675288       66.59922850712843       59.57173314496529
H           52.74624754237384       64.58666563280832       59.80964813120962
H           52.38074197446227       63.81977183966891       58.26718448897986
H           50.39590244791412       64.40393837260834       60.49959868638736
H           48.77508439235093       63.12822429421659       59.09558241116726
H           49.24990940836772       64.63762095020958       58.33489534832624
H           49.94413266887523       63.11408528194453       57.77466682722493
H           51.70633370567953       61.90014563836608       59.40043571648817
H           50.21615982926433       61.82902141539227       60.33498324793482
H           52.15864930518439       60.28234001436223       61.03872631553298
H           52.46134012854138       60.68028517580700       62.71227653287945
H           51.06467241247699       65.72876784397481       57.55288057625914
H           53.42358294311996       65.69347161357092       57.03419489354170
H           52.96009067645863       67.35518394781417       57.41275664188744