3258
 energy: -3427.553418331200 gnorm: 0.000827051592 xtb: 6.6.1 (8d0f1dd)
C          125.18076814352358      110.22096110705884      119.19585719247942
C          123.83589227523332      110.90846248715468      118.99832994940886
C          123.85016080270772      111.85527654632372      117.80096454713953
C          122.52840477473069      112.60043291655384      117.63890801377924
C          122.52872934810158      113.52339434582949      116.42286370488348
C          121.23538635549792      114.32595533064071      116.31185712266912
C          121.20270647403653      115.21063896402843      115.06823558954582
C          119.92984132445611      116.04983406826810      114.99613992790789
C          119.83884703345917      116.86327085128647      113.70787482289114
C          118.60688918327332      117.76553609981322      113.67907708075055
C          118.41044849700033      118.41040882537762      112.30967925669249
C          117.34947912386401      119.50982598448864      112.28608948723219
C          115.97425164442338      119.04764264986672      112.75779862139585
C          114.89766854811236      120.09895996871343      112.49950108882857
C          113.53959495608923      119.66508813323451      113.04657533631311
C          112.49214016493939      120.77729892090379      113.03949276307642
C          111.94260411626091      121.12272547371714      111.65802039005153
C          110.91413096183585      122.24797231377427      111.75185252280518
C          110.17150666430983      122.49583487387942      110.44160818867879
C          109.01812917669787      123.48027285304890      110.62834019585931
C          108.06633434267411      123.56008074346640      109.43424023862076
C          107.35057967686123      122.23776175814534      109.15742664176877
C          106.11593686499553      122.41255400388673      108.27819081615941
C          105.40521218847817      121.09241632488994      107.97226982429956
C          106.12902615861395      120.24027533627742      106.93162063534604
C          105.51882776526716      118.84881446241077      106.75811485316491
C          104.10250704370752      118.88817095199926      106.19115881286673
C          103.56322710469631      117.51375898787936      105.79472192898429
C          103.40087632913661      116.51463760166099      106.94253597381704
C          102.55090506519753      117.00177018381363      108.11724288380344
C          101.14366409303426      117.43826314480188      107.72129764609365
C          100.29244666921267      117.86206743046394      108.91951027243732
C           99.78239338135717      116.69074682762506      109.75471723757350
C           99.11538137082067      117.16085356660815      111.04514749570653
C           98.63410359805223      115.98915439329210      111.89888197181970
C           98.28999105945145      116.37555215063412      113.33813766885110
C           99.52725658143392      116.73749615061719      114.15797319447123
C           99.19991683963163      116.98770208566022      115.62815163360892
C          100.43923454847763      117.26778264067165      116.48109717420694
C          101.17718989045029      118.53678845067729      116.06314998837661
C          102.33259120570537      118.88818044764459      116.99787515683437
C          103.08511075744106      120.11587187477406      116.49197639681785
C          104.24361049669899      120.53712263857403      117.39223988189882
C          105.00217454198786      121.71265015925704      116.78191007701041
C          106.21397902279746      122.14818357973316      117.60164498939932
C          107.03912276688455      123.18463907981113      116.84156592798782
C          108.37367336071026      123.50180393443323      117.51161857687144
C          109.14107504422097      124.62096286817967      116.80387357213735
C          109.59347826224131      124.24463984493063      115.39390264639924
C          110.28590492200512      125.39543603035908      114.66120145192720
C          111.72514293611759      125.67060266439177      115.10175621439656
C          112.70380439703993      124.61270211866180      114.59948377640292
C          114.16092066811603      124.96090891709407      114.89211680444437
C          115.10620458171464      123.91273961940418      114.31076576220126
C          116.57717426524719      124.21632964053657      114.58430668211901
C          117.48458961915922      123.12341387593305      114.02453999089788
C          118.95717402588170      123.33487854158803      114.36700581432964
C          119.82312785363511      122.18730274265933      113.85136377591185
C          121.30539039267846      122.38700238033668      114.15600252331288
C          122.14304634311701      121.13348166143687      113.89247148236963
C          122.08563582629959      120.60767029599714      112.45746270428624
C          122.63584064714375      121.58444846517463      111.42146320573117
C          122.62851628525159      120.98235776357573      110.01772014907706
C          123.20655542084252      121.94539088834614      108.98253844285860
C          123.07266092666977      121.44646934215093      107.54309419097808
C          123.89556001516964      120.19294360180098      107.25295988152324
C          123.78748485614408      119.77916251306293      105.78700244476217
C          124.58251949184519      118.51856723391518      105.44400301413219
C          124.02919269305079      117.26450672828680      106.11624278666885
C          124.70808929490777      115.98793963286718      105.62772524879732
C          124.16085472337852      114.75397094176552      106.34065351897951
C          124.84331684753408      113.46600555604256      105.88832383099734
C          124.29870179979034      112.24192661992073      106.61996877914810
C          125.00839557058718      110.95562472046021      106.20353839596176
C          124.40010432350613      109.72164173230692      106.86617519025994
C          125.12168110216336      108.43193878917073      106.48110428074372
C          124.54858183568345      107.21772503367919      107.20842140419305
C          125.30618761713669      105.93088133118707      106.88782065357593
C          124.76953023820636      104.74391881434633      107.68417971511640
C          125.57313196598203      103.46508354966606      107.45582675581399
C          125.01297111345133      102.29666588156573      108.26422228211185
C          125.86683247364972      101.03269042069815      108.16995064840687
C          125.27729603934561       99.90385670231676      109.01302653209835
C          126.14116246545862       98.64378443466592      109.04426529354626
C          125.48301962909864       97.55232410206750      109.88819983452116
C          126.34472406206577       96.29893372793450      110.03735405932241
C          125.61537539111357       95.14480782964429      110.73466428162624
C          125.22417006345023       95.47196072934112      112.17326859792614
C          124.49734162841625       94.33615608623853      112.89659993838278
C          123.85147473724030       94.87226126337339      114.17209360593661
C          123.08706671880024       93.85396199687278      115.01638098116622
C          123.97520627095841       92.82405339921247      115.71983473432171
C          123.32380668397361       92.31506297798715      117.00677203079688
C          124.13697051901073       91.21314357062437      117.68319345304707
C          123.73647411322222       90.95912342211166      119.13877103138461
C          122.31057491288824       90.43736926291294      119.31947499230313
C          122.07745633100191       89.92280074681234      120.74108920733777
C          120.65642116905543       89.38384244327446      120.95800104392197
C          119.68324210871478       90.40214639075511      121.55810343623413
C          119.88728294805398       90.60370743198996      123.06064321378837
C          118.73550102016891       91.34319743968479      123.74769055202599
C          118.62852922791531       92.81463237512794      123.35722355666404
C          117.53639116412175       93.54585985542474      124.13656283428291
C          117.44389039065656       95.02996972744494      123.76787725824222
C          118.50224621540495       95.88208899236751      124.46934417341471
C          118.66073433115373       97.27647833747560      123.86362347339853
C          117.41559754257545       98.15390805517887      123.96633335135193
C          117.66715361897103       99.53454170468743      123.36238165000975
C          116.39051618836608      100.36183840738927      123.22204762301773
C          116.56986894598450      101.55762869749671      122.29007700497863
C          115.26135268405370      102.31069116223006      122.06883036049237
C          115.40563620925518      103.43996323868633      121.05251108148408
C          114.11227122251320      104.23473375951738      120.89650523302365
C          114.22972086379326      105.35152554129826      119.86282853718797
C          112.96853361687361      106.20912925798841      119.81146295742793
C          113.02867139760471      107.28542210430251      118.73090619050639
C          111.78134038852285      108.16456755717135      118.74631091109104
C          111.71559413406244      109.12761812557878      117.56527448928983
C          110.40554294573066      109.91092066985607      117.53901409315424
C          110.32370939206908      110.84404322274528      116.33874232308540
H          109.56680942095858      109.21037449201880      117.50905618290122
H          110.31142578887821      110.49344829175648      118.45966796672117
H          112.55658240299357      109.82317422267080      117.61384893239726
H          111.80499072786155      108.55937779439930      116.63555200478569
H          110.89813231812380      107.52125532355775      118.72548234787750
H          111.75031407262482      108.73058872032762      119.68104027087358
H          113.91618064128254      107.90414551383529      118.87977793604151
H          113.11800974636324      106.80501423927907      117.75263689643923
H          112.10308294267355      105.56571873297381      119.62683193146603
H          112.81969329039818      106.68410304704615      120.78459932872401
H          115.08627331438113      105.98291145248071      120.10909950306423
H          114.41284664850157      104.91410344543328      118.87758295597247
H          113.30375766321913      103.55782482115171      120.60512974261218
H          113.84100503969654      104.66798782038187      121.86241786394619
H          116.20455952708724      104.11237167366335      121.37228577657997
H          115.69499800306744      103.01996983138589      120.08513723215326
H          114.49895724751380      101.60867768121206      121.71989570960652
H          114.91335616084669      102.72155610619903      123.01916291435167
H          117.31839619813360      102.23563524566974      122.70458621217995
H          116.94150606275657      101.20696885306046      121.32333771578199
H          115.59372667391550       99.72859014497314      122.82396218351062
H          116.06444605162174      100.70662110777322      124.20504107204394
H          118.39275608695225      100.07562560418789      123.97253031275913
H          118.11445217360988       99.39792942162640      122.37470082772731
H          116.59493041668918       97.67556660396168      123.42865081799896
H          117.11152481992261       98.25316262555123      125.01138695155367
H          119.49261149063668       97.78276562780702      124.36017278463960
H          118.92689665238250       97.17154588729443      122.80949885700353
H          118.24941485241186       95.96915484279675      125.52932601557946
H          119.46754301823152       95.37485651650073      124.40492045131984
H          117.55468917858551       95.13391461275809      122.68570480958385
H          116.45316134147099       95.40207734796901      124.03649656536336
H          116.57902085913481       93.06232082993901      123.92820035862975
H          117.72325770368859       93.45155502176871      125.20930604503707
H          119.59096941075970       93.29888233189978      123.53354530753022
H          118.40585091357900       92.89097155240326      122.29241294320272
H          117.79436515771135       90.83891489666864      123.51348109978117
H          118.88051580784517       91.27862414866486      124.82980314716951
H          119.98529236037659       89.62071538475998      123.52974757829278
H          120.81845223941659       91.14508896909983      123.24116156899733
H          119.79283858996004       91.35234854295744      121.03591923817375
H          118.66353935000384       90.04636523151179      121.39332099990564
H          120.26373734749104       89.04102767457714      119.99790913616809
H          120.69346626796951       88.51440590808481      121.61882130161847
H          122.79915063153784       89.12590998969092      120.93715226731409
H          122.28050385603194       90.72416624149548      121.45355579663271
H          121.59173781617186       91.22709105417174      119.09521568366083
H          122.13933300792912       89.61805820134231      118.61617185323063
H          124.42904489811207       90.22397491628483      119.55851049477704
H          123.85948389523392       91.88345158101227      119.70939429029696
H          124.04207499789565       90.28501407820931      117.11376996472708
H          125.19252432193873       91.49881266508250      117.66793998425636
H          123.22766827988244       93.15606296649332      117.69791913084966
H          122.32026008326162       91.94717457791369      116.78202192626696
H          124.18092826145956       91.98332499278821      115.05340847633767
H          124.93400435313251       93.28324238267658      115.97401871120186
H          122.54044204753762       94.41154210339663      115.78157435447014
H          122.34847412763666       93.34286157963193      114.39590617901962
H          124.62441223506195       95.33249368061938      114.79223364698785
H          123.15031709540590       95.65626142190446      113.87701401459837
H          123.72103548690488       93.92770242963205      112.24744340418572
H          125.19752665916552       93.53126940778216      113.12949823281232
H          126.12187432019903       95.74010508481946      112.73658361606846
H          124.56646932640022       96.34193038592299      112.16811786686391
H          124.71623892210654       94.89644728149869      110.16634882385615
H          126.26273853076201       94.26362239387802      110.72863254099543
H          126.65671965275132       95.96412929053731      109.04425170697543
H          127.25044080892248       96.54597965360877      110.59796948771198
H          125.27066794523950       97.96511410135618      110.87620110120423
H          124.53255230145830       97.27584511961909      109.42823582306046
H          126.29807011086844       98.27862488560586      108.02618098248587
H          127.12209810055832       98.88736974275071      109.46100019000487
H          125.15101561344191      100.26557688868289      110.03655593708986
H          124.28755421511703       99.64824088668760      108.62579083531666
H          125.94159282757494      100.71435626326405      107.12692929751834
H          126.87894330628971      101.25367550277491      108.51863254618209
H          124.94123340740147      102.59564720927347      109.31307076408511
H          124.00081163317296      102.07302015610225      107.91715056323662
H          125.56753522244290      103.21343916600576      106.39224247113194
H          126.61316365914844      103.63803776243833      107.74521029941943
H          124.79503591648862      104.99041610852954      108.74856537576004
H          123.72511102895757      104.57257322107388      107.41369157753661
H          125.23158505019001      105.71830538720258      105.81831237637498
H          126.36560226802311      106.07032784263025      107.12010185661963
H          124.59556453912228      107.39656302923221      108.28515210589906
H          123.49671281959979      107.09504103329493      106.93856849332704
H          125.04649294253555      108.27797450277785      105.40178923570802
H          126.18357657241077      108.52828058179948      106.72427372590441
H          124.44401523036566      109.84339355581078      107.95092737455423
H          123.34659865568152      109.64260065212734      106.58736288929838
H          124.95421454115188      110.85184188617880      105.11668254230882
H          126.06648670230737      111.02551345909380      106.46999864151257
H          124.41550186884017      112.38619501669622      107.69752957113943
H          123.22996566160415      112.14802232579343      106.41263361334887
H          124.69880983152618      113.33745260763435      104.81256983358337
H          125.91885975057178      113.54532261215201      106.06764019358094
H          124.29623208312546      114.87322867459083      107.41825350329572
H          123.08767562944644      114.67940833065903      106.15083717329365
H          124.55733472748180      115.88305174644536      104.55017704045277
H          125.78504948124342      116.05989162119657      105.80182183001821
H          124.16551266478919      117.33733256994850      107.19621292347092
H          122.95720056363160      117.19818664528182      105.92039309770533
H          124.55725880564088      118.37699757405237      104.35987719941332
H          125.62838141651409      118.65622991771477      105.73041081199493
H          122.73745983980342      119.61050456335133      105.54173977184608
H          124.14269423808429      120.60264355804534      105.16141356699950
H          124.94290681319100      120.38119610331886      107.50214034638395
H          123.54161444216084      119.37833902346385      107.88434985896411
H          122.01970469646002      121.24065971309587      107.33309825464083
H          123.39071858956119      122.24287900963186      106.86468230206680
H          122.68594675742803      122.90316204539647      109.06695620717078
H          124.26175307489586      122.12608903233632      109.20502820696149
H          123.20772238756669      120.05712347393744      110.02580354383636
H          121.60272320792043      120.72953715406501      109.74044628523957
H          122.03561992061005      122.49628058050148      111.41840804094802
H          123.65829099519375      121.86121274703018      111.69240729870103
H          122.66709370877260      119.68245062037261      112.40997614079301
H          121.05488157210777      120.35600383673723      112.20308964377904
H          123.18381130467412      121.34993175266209      114.14824979326535
H          121.79820667064776      120.34096098175419      114.56219819931839
H          121.69155698770649      123.22429946843077      113.57165290445785
H          121.41696618232464      122.65257376809396      115.21118211880383
H          119.49410773982541      121.25434800521754      114.31485974375717
H          119.67920111553195      122.09494284498405      112.77331995370278
H          119.30176328021695      124.27713816950393      113.93322903290399
H          119.06695922614561      123.41259259463831      115.45190321402109
H          117.16395982035299      122.15942828022817      114.42824891651090
H          117.36839219797784      123.07857658860098      112.93833339950373
H          116.84323307006467      125.17819162019214      114.13864085092864
H          116.73430774642026      124.30009450944446      115.66297934353454
H          114.85931567553899      122.93862265689336      114.74146060428210
H          114.94722953949264      123.84514323180115      113.23130009316384
H          114.39521346755724      125.93919925078418      114.46334970963184
H          114.31308049867557      125.03097822478861      115.97212588713138
H          112.47025109407674      123.64919895529013      115.05678272379363
H          112.58338475698270      124.50702464763535      113.51896173742941
H          112.02864921919587      126.64247581869586      114.70328675173766
H          111.77831195592640      125.73520830047831      116.19017456208043
H          110.29275234926880      125.17162228354063      113.59144660747235
H          109.69185388951229      126.30247727826773      114.80152321071554
H          110.25809115598183      123.38094578113667      115.44464509720741
H          108.71943785875143      123.95596576219262      114.80850831433477
H          108.50460115309939      125.50850898766410      116.75008802717043
H          110.01448636508019      124.88014502450653      117.40661062389199
H          108.19056946936418      123.80052553186265      118.54741843021489
H          108.99010820261222      122.60028075020843      117.53139567060484
H          107.22662865345580      122.79986164955649      115.83848904310675
H          106.45859482554958      124.10547067407367      116.74184124153840
H          105.88858469182402      122.55672755083779      118.56122624541725
H          106.83340899369223      121.27419311444294      117.81168385004908
H          105.34336259671886      121.42321487880393      115.78431300815194
H          104.32178853618814      122.55998900359546      116.66148659258641
H          103.86508651938509      120.81037381496218      118.37986596087761
H          104.92773144279778      119.69545693904804      117.52251397513322
H          103.47708475708805      119.90059135888666      115.49425008781003
H          102.38512253689363      120.95032458978271      116.39528906629583
H          101.95071291083043      119.07776613832300      118.00398888444455
H          103.02072445005919      118.04171704653116      117.06046911868040
H          101.57606163231640      118.40867484940192      115.05532076738069
H          100.47128590721121      119.37125462275424      116.03708911360765
H          100.13307233668417      117.36295073885232      117.52678097875555
H          101.12289078166722      116.41830519916971      116.41421855530308
H           98.50927447074170      117.83181656141856      115.70806140469728
H           98.69047547953572      116.10840710192174      116.03214719809193
H          100.25134178350052      115.92343568289722      114.08831021314877
H           99.98795355858203      117.63178355285064      113.73905099295479
H           97.58960561884355      117.21487355243067      113.33620151486633
H           97.78774975492271      115.53101438185986      113.81679576106221
H           97.75382652981374      115.54567814240568      111.42588164768506
H           99.41253773347817      115.22443196232042      111.92314888968365
H           99.83810269731860      117.75311429793126      111.60983113312518
H           98.27079233158628      117.81365748782596      110.80890537593147
H           99.07272967836057      116.10368665155056      109.16617961750138
H          100.61696243754641      116.03556961395165      110.01399343005411
H          100.88307278062148      118.52865248049180      109.55391782663555
H           99.43106455316521      118.43390813351695      108.56443863769427
H          101.22063959331719      118.28634240986470      107.04056931404398
H          100.63997861432617      116.62794804421497      107.18868962861067
H          102.48722050488261      116.18746324390936      108.84154030834742
H          103.05007456336385      117.83910633541461      108.60844492009731
H          102.94868971859103      115.60603868694207      106.53421494277532
H          104.38929918367121      116.24163989273217      107.32081489177627
H          102.59711120077414      117.64851436173946      105.30348987246343
H          104.23709614980127      117.07411923242773      105.05439093012738
H          103.42732497942849      119.35068552242544      106.91159141864702
H          104.10746048794839      119.52002125159238      105.29789857864468
H          106.15269172614342      118.27171380992490      106.07872970785168
H          105.51951578000755      118.33953327971344      107.72325532329788
H          106.11673765977577      120.76088039847993      105.96929760583969
H          107.17292616413704      120.12501773110591      107.23040787046540
H          105.30846509670752      120.52080462132118      108.89873223969384
H          104.39827874235728      121.31570643482284      107.61227223009331
H          105.41622594290978      123.07274950197048      108.79517456088863
H          106.39642969311758      122.89966649176262      107.34195057225595
H          108.04108040338174      121.54881010969818      108.67177130599133
H          107.04246880689327      121.79390239554010      110.10734429435321
H          107.32004210643679      124.33190505786641      109.64277077535176
H          108.61714726708367      123.87421933432348      108.54399826800247
H          108.44074111479509      123.18100453088782      111.50683980912251
H          109.42387036786116      124.47553293124980      110.82921552179558
H          110.86494647743623      122.87714155017773      109.68781219262301
H          109.77942597589610      121.54276507069346      110.08316881860367
H          110.18484755855229      121.99258655529680      112.52606334266412
H          111.40973878801056      123.16636040592694      112.07415919787742
H          112.75379089711615      121.42256441621039      110.99118844120756
H          111.46901394304281      120.23607170490722      111.22812184159054
H          111.65302270367337      120.46525216358224      113.66607485936386
H          112.92319997886828      121.67572765538755      113.48826602794315
H          113.16869632494225      118.80974247751843      112.47559032520876
H          113.67596863721758      119.33327714015472      114.07927004515247
H          115.19353434104055      121.03772481957516      112.97440640689791
H          114.82571208483643      120.28224944193605      111.42526921132421
H          115.70690316616917      118.12284057130360      112.24297971075404
H          116.01204239901638      118.83381224904765      113.82837134303708
H          117.67842915391678      120.34332264970804      112.90992537209483
H          117.26246990555119      119.88193620531821      111.26270971837056
H          119.36236289710197      118.84140808583406      111.98659146338993
H          118.14208712688485      117.63649690499065      111.58852969842980
H          117.72704031540404      117.17214312715673      113.93168854366104
H          118.71166511958148      118.54365078555161      114.43852687491525
H          120.73847940678449      117.47571367369429      113.59749770949409
H          119.80245003892230      116.17882341469084      112.85785538032344
H          119.06369970529707      115.38874534504920      115.06271833067282
H          119.89366403835731      116.72436329713882      115.85612226078763
H          122.07427849546639      115.87159970420049      115.06885492512018
H          121.26914530162053      114.58067848182827      114.17865742399394
H          120.38874801758877      113.63726932023168      116.28441603144782
H          121.12304436540981      114.95017084395573      117.20302749020290
H          123.37668725215687      114.21108226992818      116.49010292712337
H          122.66147728180749      112.92611969115558      115.51799692779875
H          121.71721568158893      111.87619302868107      117.54115376309383
H          122.33680946818949      113.19041509279992      118.53976081482409
H          124.66087151208308      112.57931383828515      117.92277579529684
H          124.05486076763238      111.28266926415262      116.89299411677037
H          123.06165503767937      110.15351802292648      118.84984266733282
H          123.58155360725674      111.47048488457347      119.90096786793744
H          125.46371473437947      109.67765662154521      118.29639315637027
H          125.95871203112452      110.95175449112989      119.40940889624510
H          125.13479181180635      109.51621326138334      120.02311385620949
H          110.37381355322279      110.27421026424345      115.41278436328292
H          109.38683816047498      111.39671794118716      116.34686878510088
H          111.14789457385955      111.55452508568020      116.35043323740095
C          106.01964074871849      114.62022665961152      103.46881519541782
C          107.34749895986663      114.08209806464680      103.98653496872217
C          108.23181043419540      113.55291560867408      102.86040608871278
C          109.64840476662238      113.18680988502855      103.30469348372560
C          109.68336782867635      112.12811106936633      104.40358613157471
C          111.08724429371814      111.57790374145775      104.64193547126401
C          111.10796638865318      110.57734368656887      105.79398986942309
C          112.47659869040315      109.93677867632728      106.00328189855799
C          112.45754885794132      108.94410708870366      107.16192068266240
C          113.79390969445917      108.23561707630363      107.35851292962933
C          113.73089706014083      107.22732560485177      108.50168168193609
C          115.03038923055469      106.44690405919427      108.67146792036591
C          114.91469306327748      105.39151444932268      109.76672224545366
C          116.16744495262363      104.52927092930716      109.88860711287445
C          115.97878535787950      103.41353986128534      110.91096208873775
C          117.15553950259834      102.44359632634034      110.96242353785780
C          116.91160178265766      101.33116761849378      111.97734768877531
C          117.95002416922507      100.21563496354929      111.92467267680303
C          117.60896640643202       99.09714833271470      112.90596100044385
C          118.51224198314681       97.87586209310300      112.76340300607218
C          118.04294806712612       96.73297088913452      113.65994298383993