3795
 energy: -5103.651499273365 gnorm: 0.000892438175 xtb: 6.6.1 (8d0f1dd)
C          118.78245471867788      121.89477677138227      130.36506157309563
C          117.38672343013694      122.24896905831103      130.81327751259332
C          119.01869492094683      120.38280490819967      130.42411912587411
C          119.17600426466815      119.85163601884102      131.84576455077882
H          118.19290423894746      119.87211387808951      129.92574306289870
H          119.93081138239599      120.16416172005033      129.86545473159563
C          119.41121778898592      118.33742031544897      131.82122032190605
H          120.02827638244686      120.34054194700582      132.32164509892056
H          118.28903350558286      120.08368595336196      132.43630757469032
C          119.99568364688569      117.84014380154559      133.12768240000867
H          118.48062769148494      117.81417734603782      131.60672985478772
H          120.13533895949645      118.11435267033504      131.03648885184327
N          119.13653556376552      117.21740821006259      133.93316006596862
O          116.58241296617219      122.50506496090861      129.79824344018022
O          117.02514473928476      122.30054730304269      131.96965303131719
H          115.64903747906364      122.73779815419752      130.11445775380361
H          119.49614443997224      122.40835795808366      131.00939178502969
H          118.90941349019748      122.24052483509547      129.33991574127705
C          119.52422368364259      116.59231887367767      135.17681661499486
H          118.17376880985502      117.08582775256340      133.63786663273825
C          119.48791633422826      115.06527883829952      135.07668870333018
H          120.53733619325132      116.93059707158754      135.40866296802477
H          118.84561021356524      116.92735036351579      135.96596235147666
C          120.47797947463975      114.53028195334286      134.04190712180736
H          119.73047570217106      114.65542275972930      136.05810731685395
H          118.47591738430548      114.74967216660514      134.81689259715677
C          120.61794596939509      113.01153212099328      134.12472760959389
H          120.14881351420470      114.82125317319340      133.04271991781849
H          121.45441507077471      114.98869555724156      134.21659399881608
C          121.62338840344773      112.44240442948303      133.12054677448944
H          120.94829289626998      112.75359353613119      135.13251798422257
H          119.64399080374037      112.54455688933454      133.96680154953509
C          121.04561877273814      112.30542752282692      131.71540219677357
H          122.50811257861295      113.08156164544404      133.09101010774032
H          121.93340058920214      111.45074372724015      133.45758893132503
N          122.03442670979385      111.74829723509822      130.81383204595653
H          120.16361307977000      111.65402995271263      131.74189353339213
H          120.74058225784349      113.27169903393481      131.30779998331494
C          122.03849537195005      111.94870034951204      129.48506627810499
H          122.71399200817901      111.12492752960851      131.22015628936040
O          121.18291001996468      118.00881049291145      133.41187130508541
C          123.20542880732972      111.29693386275265      128.76804634263647
C          124.47068873428144      112.14984514555938      128.90964194529218
H          123.38652925349299      110.30794565843254      129.18558208611813
H          122.95432712314532      111.18357495436079      127.71403110071422
C          124.38364815985318      113.46246731708040      128.13468536585273
H          124.64650738445907      112.36932414277513      129.96591933839900
H          125.32495595179117      111.57356129016350      128.54676500597327
C          125.61760061506642      114.32553799524817      128.39248857747546
H          124.30535992148775      113.25990536555780      127.06561834082642
H          123.48689583964438      114.01045048440109      128.42923784540181
C          125.62757537468960      115.58696167836422      127.54234019165888
H          125.67829160624574      114.59487115413260      129.44695979559287
H          126.51241888020233      113.75151780616210      128.13449685865925
N          125.70295902480790      116.71291999776292      128.24859269370708
C          125.86041582102186      118.04333086530016      127.70610168890106
H          125.65646463039593      116.65954119559625      129.26476198348897
O          121.19727851445866      112.62775809417855      128.91467047510710
C          127.01581401109148      118.74574484169420      128.42522617631261
H          126.04479238780499      117.94092669330665      126.63606311878095
H          124.92754821486987      118.60195396482118      127.84474863309589
C          127.01065709659284      120.26574664015783      128.27578916646678
H          126.93729903206426      118.50169206442472      129.48792173963514
H          127.96333288130604      118.34110797703401      128.06521708468162
C          127.26311927526577      120.74228708643469      126.84854121554700
H          126.04901098956341      120.65317045233846      128.61491855861456
H          127.78324247895682      120.67827953697272      128.92787223697133
C          127.30818167906895      122.26757358771781      126.77290995080463
H          128.20739808325220      120.33784933167698      126.48217231527789
H          126.46905958687586      120.37133000117485      126.20164352081713
C          127.40726027396806      122.77985963651768      125.34050591348287
N          126.15817196978932      122.53563756229693      124.64291971306208
H          127.60984792933596      123.85747214972280      125.35534154727273
H          128.22741452500614      122.27370794717197      124.82314867543218
C          125.81988809201009      122.90857509015295      123.40813797604784
H          125.39383374616980      122.19102519374712      125.21116470510684
O          125.60489782039276      115.54497804552251      126.31422106613300
C          126.89165755923214      123.49219100214761      122.51971151498726
C          127.72691008110230      122.40310148913079      121.83441098722325
H          126.38776153362494      124.09061048896754      121.75811433730206
H          127.53856258053568      124.14172120899300      123.10920282809650
C          126.90751313603013      121.54351282335423      120.86950318313006
H          128.52831270139768      122.89298692521707      121.27646992285058
H          128.18980811669340      121.76714972476458      122.59040747437300
C          127.82254049360472      120.59200666809384      120.09714224332429
H          126.16361097888539      120.97076554428743      121.42627006944423
H          126.37086247827823      122.19101073169509      120.17454941442152
C          127.10350234585732      119.55365096670336      119.24991611590961
H          128.47138901124964      121.17416208380938      119.43689054517270
H          128.45921581217362      120.04488831847306      120.79607159268228
N          126.15257959863449      120.01631568623984      118.43365363856613
C          125.35607592622245      119.15974820537139      117.58022072840680
H          125.97631254922342      121.01244478231300      118.35217756465644
H          126.41339462962496      122.68800548550122      127.23789644765449
H          128.17124546809200      122.63458998352127      127.32880575677375
O          124.66332981858119      122.76085019412201      123.00657307134418
O          127.41352274954680      118.36564970524459      119.29889957859707
C          123.87631377110351      119.50925374155973      117.69569637003187
H          125.68334149538730      119.27934278419970      116.53920434916827
H          125.53576122265952      118.13087990048170      117.90380840727136
C          122.99261157005823      118.62608993252508      116.81885109165594
H          123.56164235874442      119.41344011746817      118.73441934330259
H          123.74373473470575      120.55498638536737      117.41475256244911
C          121.54351380868654      119.10789633111231      116.87051562187305
H          123.36422664553596      118.64074095347105      115.79223640449229
H          123.04491230322769      117.59793916110637      117.17974020391497
C          120.57987624834676      118.22066127049067      116.08277657776027
H          121.23551229259996      119.14493205380580      117.91529944542565
H          121.48463065916864      120.12853039640719      116.48642129082234
C          120.56741255796226      118.51675372607863      114.58448731777982
H          120.83891307679744      117.17283859486406      116.23595672394733
H          119.56883590590047      118.37636077800116      116.45898232718734
N          119.91458214793687      119.78113474760097      114.31192187959201
H          121.57801411224064      118.56587125168261      114.17339823165987
H          120.02036632680100      117.72226118319851      114.06329850683274
C          120.32165573145383      120.64540136641955      113.38078289811398
H          119.06421131036551      119.96361844153822      114.84085350106145
C          119.44250466210949      121.87502536272777      113.22447117676477
C          119.64946785147968      122.50391036846871      111.84706321324698
H          118.40095001689279      121.58536317077890      113.36343662368810
H          119.70196660456833      122.57821391269373      114.01872542249630
C          118.68102439029894      123.64232307281644      111.53701871646126
H          120.67798877914596      122.86070195526189      111.77193442376809
H          119.52544478181520      121.71673631607067      111.10230846358854
C          119.05468565452414      124.96775563378368      112.21882378555080
H          118.65449855709937      123.81381499968232      110.45852350881944
H          117.67052944818009      123.36487857577799      111.83436822773385
C          120.14097868896386      125.65334348944317      111.42253513646830
H          118.18003739288957      125.61428734512774      112.25100776565630
H          119.39978506280178      124.78307392774389      113.23550793903509
N          119.69240285535116      126.62694493994096      110.62398502171179
C          120.52810380978039      127.40738349222687      109.74075212370403
H          118.70702954782131      126.86877006639800      110.67341531083895
O          121.32089710082337      120.46262914907597      112.68751631932200
C          120.72661049908689      128.84722781490046      110.22852192785018
H          121.49092465076697      126.89897662861001      109.66733996061718
H          120.06549546391211      127.42521764729484      108.74925482169644
C          121.38320480289208      128.94242245347803      111.60531627581597
H          121.33887854779377      129.37212806996880      109.49409396019590
H          119.75427030778246      129.34169226491093      110.28016142993141
C          122.79182761702815      128.35375960393407      111.64697916415538
H          121.42182505781319      129.99294651562107      111.90081588496858
H          120.75938185172454      128.41702244471185      112.33313690496239
C          123.42463046491416      128.47489857402985      113.03888991670013
H          122.73947010757530      127.30006559670244      111.37604789046591
H          123.42204482435908      128.85379382033918      110.91003528332509
C          124.22426698367386      127.22475388262313      113.41479835083882
H          124.08309853314080      129.34179210062240      113.08676565308690
H          122.64407379370645      128.60891536966435      113.79108532654017
N          123.35022278015300      126.09267999017349      113.63036395929237
H          124.94092200590467      126.97824818137477      112.62761203765780
H          124.76451457390607      127.39040378420404      114.34955835581296
O          121.32326392941303      125.30094917968178      111.45786226627345
C          122.99990277522218      125.66599016215267      114.84780929653122
H          122.85253794422036      125.72992582146301      112.82617891014614
C          121.97634904018200      124.54960696695811      114.85864015760292
C          122.62281661859001      123.23535126378364      115.30036327395830
H          121.18818547581621      124.82375835742205      115.56415539731771
H          121.55023010400487      124.43337910321998      113.86323670954494
C          123.54002156930638      122.66209186853305      114.22294352673812
H          123.19386372921348      123.40252599928837      116.21703915230621
H          121.83767085329485      122.50871906230527      115.52210712593151
C          124.08999844873652      121.31043003310930      114.67558667206728
H          122.97999887680704      122.53708320291292      113.29365743024783
H          124.36247953391262      123.35506052070700      114.02706156568496
C          124.89122703793210      120.62520767735158      113.58490473300378
H          124.71931025455319      121.45424284936178      115.55372378940622
H          123.24757210242996      120.67290880091241      114.93780636980793
N          124.12818107097327      120.07775574855157      112.63777063093222
O          123.48173216146772      126.11873227439681      115.88505686532881
C          124.64084835992800      119.48299084481695      111.42446303264296
H          123.12495414580611      120.24679388890648      112.65355870164618
C          123.57604442402364      118.58787116432970      110.80027637428266
H          124.91953096469076      120.27622985735570      110.71827470171742
H          125.55049123039478      118.92711033966297      111.67204409241950
C          124.03194468390906      118.02223488663516      109.45789841252972
H          123.32862123134308      117.77789418858096      111.48633724346067
H          122.67738618905533      119.18996755194243      110.65622702133122
C          122.87653226764287      117.41451730246449      108.66310862003536
H          124.46874677807058      118.83135048785502      108.87026393246967
H          124.81415868802887      117.27989652592223      109.61738619289589
C          123.26737519213728      117.10198594390266      107.21925022888844
H          122.51475287461852      116.51176277086232      109.15624372350057
H          122.05948662647178      118.13717196484710      108.63314250377489
C          124.09715780261359      115.83146349781508      107.05203973127193
H          122.37405633958174      117.02041994418143      106.59920108976368
H          123.85477059433828      117.93499153555916      106.82921389053081
N          124.64171634336391      115.79367354765766      105.71314131453315
H          124.92343388850603      115.82101737375832      107.77185100232791
H          123.49273974345972      114.93300266435418      107.19502060360398
C          124.62555461179406      114.73572620843174      104.90397657102245
H          125.20088298232216      116.60036225428497      105.46167973699978
O          126.11895588660583      120.54866513531519      113.60270408208773
C          125.22075407540848      114.92683071669038      103.52051167216247
C          126.34364451573794      115.94642270259079      103.32736250344020
H          125.54540643783811      113.94355794277614      103.17191504503401
H          124.37188065919344      115.23072221786423      102.89975680432774
C          127.70371920748138      115.50687034905523      103.87559989165450
H          126.46049583244454      116.09420633575840      102.25083980308480
H          126.07258697912054      116.91376527247161      103.74850683578069
C          127.78221702352971      115.33503712359453      105.39399755263676
H          127.97425741126017      114.55187879737888      103.41870880055239
H          128.44979928317309      116.24375500299800      103.56936590695769
C          127.65460940383151      116.62107431497894      106.18766232049310
H          126.97378560970739      114.67594232686506      105.72236381445919
H          128.72469676088943      114.85078240159557      105.65211622942022
N          128.40233581186467      116.66036390336922      107.29750160427764
C          128.31378320322855      117.74206593506088      108.25836123928087
H          129.02855180404521      115.89092944728245      107.49309375069808
O          124.09299193809500      113.66735330352070      105.21531635132330
C          128.03096515595129      117.22572129587977      109.67023215575331
H          129.23715851361655      118.32844059953334      108.24307400649558
H          127.49581614801092      118.37764466269012      107.91449115642247
C          129.29342430506887      116.77811355186482      110.40748577079103
H          127.54366639927377      118.01551099839786      110.24359852735411
H          127.33649997962553      116.38796470210265      109.58827588852550
C          130.05791234429233      117.94220989690091      111.03317587549064
H          129.01525322709497      116.09066845623477      111.20744859541301
H          129.94828915639130      116.24197245717775      109.71923827845151
C          131.36175299607294      117.46962023444679      111.67173357303956
H          130.27643904598440      118.69965437166982      110.27735545254760
H          129.43326174659302      118.40605528191658      111.79957334294200
C          132.07449003060958      118.58294324741900      112.43118095299806
H          131.14872685434349      116.66319761440501      112.37483222430650
H          132.02946856121557      117.08518193834539      110.90012962882182
N          131.32831532218572      118.94150541052194      113.62087537657013
H          133.07561291853091      118.24726208082927      112.72578099423737
H          132.18112503864634      119.47900472871071      111.81477952947348
C          131.17998134980039      120.18890127250081      114.05992062986677
H          130.88820740250114      118.16407392892783      114.10699899286591
O          126.89311122489310      117.53569261520762      105.87636299632710
C          130.38219014194976      120.35898790591726      115.33856786002895
C          129.24386025639143      121.35035736049203      115.09591568050870
H          130.00091648394090      119.40254932113800      115.69156635382674
H          131.05593534531559      120.77078040967011      116.09407478529080
C          128.59411787216823      121.84313719843595      116.38300019662437
H          129.65311250480585      122.21278878342738      114.56584853502424
H          128.48218882002539      120.89373145807284      114.46103478270344
C          127.45887425128895      122.81139742363368      116.04361236976726
H          128.20075436144202      120.99564865735842      116.94802485262871
H          129.33609430102368      122.36048649821390      116.99556787961090
C          126.79564942442587      123.35164142302575      117.29240344209408
H          127.86538338890593      123.64293039943719      115.46693501753552
H          126.72348554110779      122.28875304541187      115.43242061024436
N          127.39507720094630      124.42598219389983      117.80643120017970
O          131.65189144166135      121.16676100379399      113.47569162892324
C          126.90560341170358      125.15095949391346      118.95776550876849
H          128.27847072203494      124.73420054650805      117.40141002227712
C          127.01004557508689      126.65685198962203      118.72528841442382
H          125.86739678028965      124.84637339034448      119.11260234535230
H          127.48696585559846      124.87703427751954      119.84584125109754
C          126.33897685697724      127.48058018943297      119.82690582608373
H          128.07018771473838      126.91603804664406      118.68202761871609
H          126.56122485917629      126.89369873607528      117.76006024668472
C          124.81587824181149      127.55789946696171      119.70401422523564
H          126.59831264732648      127.04725403148412      120.79575612443597
H          126.74071361903884      128.49556701032344      119.80174727406452
C          124.35781531003217      128.41837233857487      118.52647570789775
H          124.40460111400827      126.55382953982432      119.59657275316130
H          124.41161488396600      127.97786128074378      120.62829182749468
C          122.83594979944712      128.54538766900330      118.45924991634514
H          124.79189036440116      129.41602656949942      118.60952678421508
H          124.69397633511467      127.97295645221219      117.58947318128756
N          122.22413404797705      127.25320409259065      118.25049206301649
H          122.42931868963817      128.94345226754933      119.39276499974100
H          122.55934997442921      129.21720284193700      117.63930851273776
C          121.33405965137209      126.72208696429389      119.09650115071152
H          122.63417058916545      126.69006693700817      117.51086778796288
O          125.79638060811773      122.83058000572420      117.79219421967832
C          121.03134942109868      125.25635303494154      118.86031949843434
C          122.19751998418648      124.42215688277035      119.40472106763302
H          120.11302443550714      125.00631075238302      119.39196600522706
H          120.88218528366181      125.06124164790708      117.79972388488099
C          121.78990423224884      122.98480461520769      119.70487406176319
H          123.02220460381355      124.43023853128989      118.68870611574050
H          122.55572082369696      124.87755856202421      120.33249598222950
C          122.96407096907218      122.18703939874275      120.27473386546022
H          120.97734670323122      122.99440695983103      120.43584497567129
H          121.42284503437783      122.49937287686349      118.79932378405040
C          122.47553868895673      120.89221869593014      120.88992548420264
H          123.67203633099550      121.96195606316742      119.47511269197821
H          123.48233833338378      122.77089103866656      121.03326860524709
N          122.85781609714469      120.69272700976396      122.15055157636492
C          122.48290632738555      119.52773220861259      122.92671828787299
H          123.42095125288471      121.39745882378121      122.61199832821160
O          120.82261055129119      127.35259800302516      120.01727591046871
C          123.31104515531970      119.43938488768711      124.20181249942128
H          121.41712485425005      119.59387377795169      123.17492926218908
H          122.62125722938968      118.63899636609202      122.30857759438416
C          124.79638211212463      119.19909184034702      123.93249613987143
H          123.19501260456632      120.37868496667258      124.74687875548517
H          122.92442262418147      118.63826034256796      124.83487894937494
C          125.11841216788642      117.77514369397313      123.48688723299891
H          125.14994353433906      119.90736094631804      123.17969289366137
H          125.34642524610206      119.39924305202092      124.85243111209499
C          126.62095000747094      117.59851346064877      123.27069942443474
H          124.76489840976433      117.08069119925651      124.25112234002118
H          124.60243439427212      117.55300517395656      122.55287948516438
C          126.98239226464230      116.22581353173500      122.71907953014554
H          126.96662398666314      118.34668580804619      122.55397204700174
H          127.14883980871399      117.75888289378351      124.21324542661721
N          126.80726390650051      115.17911240268712      123.70423467326812
H          126.35655492268523      116.00932331266432      121.84538857232006
H          128.02457688323665      116.20584235362496      122.38653174926554
C          127.52687806895550      114.06117624817267      123.71371117750397
H          126.16989461155303      115.35530318985003      124.47154769381449
O          121.77308627727436      120.09211165130715      120.27246015781839
C          127.10504791258126      113.03734468713562      124.74610826184839
C          125.73575270908378      112.47056687861351      124.35213829697999
H          127.84825903595163      112.23872050737832      124.77077653109039
H          127.04451903393587      113.50658106605474      125.72708061016451
C          125.42909651904957      111.14834486539775      125.05177607997514
H          124.96758336602298      113.20696989862594      124.59384776358351
H          125.71992983414468      112.30131803115613      123.27272094803463
C          124.00386362175148      110.68033324185924      124.73503720546879
H          126.14213212420559      110.39191824112741      124.71398081182535
H          125.55027056765424      111.25703652927409      126.13015050614450
C          123.84099054201884      109.20775557946614      125.06529072342910
H          123.28186652882965      111.26962170984906      125.30125664957214
H          123.82173170779309      110.81330559537614      123.66829994380655
N          124.29693541091903      108.40541074380324      124.10122451005546
O          128.42736103134601      113.83529957025995      122.90135385751384
C          124.30542026029468      106.96272918765347      124.18980380287339
H          124.74567096502287      108.80923643189814      123.28655778122875
C          124.46856703154189      106.33091784440037      122.81296640069598
H          125.13378597784144      106.63414656126932      124.83137734077506
H          123.36614028385956      106.65082595036655      124.65552924648917
C          123.42288799300290      106.78796842254914      121.80040483366754
H          125.46418079934899      106.58144127489669      122.44005906244773
H          124.41673650954046      105.24625455134792      122.92878011025130
C          123.63193366408893      106.12155212697463      120.44322952490329
H          122.42195222515103      106.55599950713055      122.16633432703684
H          123.50522264440440      107.86716623283019      121.67409392653894
C          122.86539091217350      106.84420892389791      119.33908469577680
H          124.69885085316513      106.13447073307850      120.20377985629040
H          123.32002620310381      105.07598935243035      120.48448931323186
C          122.99758491518969      106.11825192316088      118.00031907022289
H          121.81360797809191      106.92642963582654      119.61456672361582
H          123.26276720233074      107.85710914671893      119.23895210109440
N          122.74245301455292      107.03205391449004      116.89170551825067
H          124.00294278388431      105.67345386792555      117.93917975599160
H          122.28137833664034      105.29575153188676      117.94898886778574
H          122.75031922084091      106.52048974428502      116.01562471061756
H          123.49519301659656      107.71368747612921      116.85255780225265
O          123.32202302903538      108.80008245307883      126.10283401993715
C          103.19778349333433      131.81405751506878      117.03611915222383
C          102.94371832975618      130.32686442626908      117.08530336892153
C          104.03342608183733      132.32592622655335      118.21325837269511
C          105.52170438286812      132.02139777859833      118.07271902271548
H          103.90721003685846      133.40668337129230      118.28638593721101
H          103.65774350555698      131.87769583379284      119.13396753809722
C          105.82506239999852      130.52176080696293      118.11184084587445
H          105.89812031392263      132.43612978606578      117.13612914429571
H          106.05606515193384      132.49218500782700      118.90143106418857
C          107.32489642394036      130.32719545777510      118.09834449327766
H          105.39335064906258      130.08372430814697      119.00866372871209
H          105.39864659851335      130.03654265907105      117.23319388615494
N          107.85993572731941      129.89416345897990      119.23472045373873
O          103.21274121923891      129.72616114067100      115.95349593926373
O          102.50578877263294      129.75312010474599      118.06882692458994
H          102.97646468007612      128.74551212371833      115.96236718984881
H          102.21433561061667      132.28903459048630      117.06379107309333
H          103.67555624811135      132.05185713787250      116.08664966969739
C          109.28250395283582      129.79518014319157      119.46804678098310
H          107.25803804405395      129.68839357420765      120.02538749444341
C          109.69393965989073      128.43033020189682      120.02398967222143
H          109.78370977115937      129.99654301688608      118.51774115292235
H          109.56539963749125      130.58057985425290      120.17900394843350
C          109.96913727622832      127.37916361987588      118.94920870416844
H          110.60782543592278      128.55951856719523      120.60610796756987
H          108.91470316293143      128.08337366458329      120.70450426816942
C          108.72471779002996      126.88549035180394      118.21342225433413
H          110.67522521840039      127.79561934620394      118.23019311241812
H          110.45322059133399      126.52554497690937      119.42603434405437
C          108.97967850402196      125.56218171661622      117.49022025871967
H          107.92137185451411      126.73780456449440      118.93763494446276
H          108.39144601905961      127.64132300518040      117.50100945521918
C          110.03376859253507      125.66795767884815      116.39416338589177
H          109.31420154730689      124.81791408319668      118.21551636711814
H          108.05329267617817      125.19625698628151      117.04245326311296
N          110.23010332443165      124.37816429999938      115.76647049070104
H          109.73417040429487      126.40580198482560      115.64089728197409
H          110.99445911439491      125.98503011407394      116.80515628626426