3795
 energy: -5103.047426376465 gnorm: 0.000922136731 xtb: 6.6.1 (8d0f1dd)
C          118.90757606324418      121.87415700300703      130.42013457174903
C          117.48219933520988      122.21208966757698      130.76929387486084
C          119.13374673640185      120.36079761769382      130.47327279391664
C          119.21574313464372      119.80962251060467      131.89367580274262
H          118.33032221254113      119.86052637425612      129.92776391217799
H          120.06980841765557      120.14039093978346      129.95588595758184
C          119.42196789848093      118.29232229930562      131.84565155380230
H          120.05624550492060      120.27346340163393      132.41308206284614
H          118.30726714217282      120.05024147271158      132.44581464649499
C          119.98847845308683      117.74844174136608      133.14140335429556
H          118.48377083397499      117.79310835389042      131.60783228425683
H          120.14872344568835      118.07468009668673      131.06223611443852
N          119.10895010028206      117.12078287810586      133.92346726839534
O          116.73799504230651      122.41955011374844      129.68883811007447
O          117.04102689191765      122.28978989984500      131.89094859393433
H          115.80270253626978      122.66168385750753      129.94647883312294
H          119.57192730435000      122.37700349539406      131.12262992707142
H          119.10687754554748      122.23494865445558      129.41200844313218
C          119.48853164219632      116.45242750795028      135.14448606218431
H          118.14212451867503      117.03161408487422      133.62510167542973
C          119.46814100951505      114.92878594282233      134.98837138286291
H          120.49821603035956      116.78755889614328      135.39595152569174
H          118.80288221402331      116.75107113546800      135.94257650861383
C          120.43393550427385      114.44753886080379      133.90420382249852
H          119.74654186478965      114.48622405022050      135.94664222281071
H          118.45340449344636      114.60515443337330      134.74887062926925
C          120.66528225303986      112.93956992128597      133.98066606001893
H          120.03935701655746      114.71498682797824      132.92255790737946
H          121.39006599439736      114.96020123773904      134.03065344247548
C          121.60676585247029      112.41572996055737      132.89229450694242
H          121.09574968406267      112.70970565141081      134.95760295722005
H          119.70860668196093      112.41689240255934      133.91354879094862
C          120.89259403941494      112.14564014714611      131.56856194603424
H          122.41542556095214      113.13198433492393      132.73409166110216
H          122.05345222658144      111.47731218059045      133.23183197861556
N          121.81713245371409      111.61595103641712      130.59020981313429
H          120.08173895980472      111.42661916022180      131.73624400399603
H          120.46853965486473      113.05820160339002      131.14633006599925
C          121.86073408466802      111.98080674164765      129.29571021139088
H          122.43882513227955      110.89115716837483      130.91199966395374
O          121.17501058671097      117.87440071362272      133.43278054470409
C          123.00044563688898      111.35650441644641      128.52011498707461
C          124.27524334837257      112.18647780137970      128.71578389072587
H          123.16943471278775      110.33689757954438      128.85892369001556
H          122.74062087909024      111.32996753562959      127.46277124428437
C          124.21268501657987      113.51402326096105      127.96648959173142
H          124.42599679177351      112.37544261230502      129.78256586629257
H          125.13173990536980      111.60754366685867      128.36265511487031
C          125.43166908845372      114.38185161773065      128.26977492841496
H          124.17029325952370      113.32626912211882      126.89284700124811
H          123.30541425747631      114.05177544853971      128.24326997553788
C          125.44587309028969      115.64361220967541      127.41984771522347
H          125.46299630326034      114.64667720409579      129.32632261099567
H          126.34028483336490      113.81876848384390      128.03589605571031
N          125.55674781364485      116.76711770427335      128.12487728364326
C          125.74330429512254      118.09011388141603      127.57548383862741
H          125.53707989267367      116.72225351877819      129.14573170805014
O          121.08685601161793      112.78714972054821      128.80692205450976
C          126.92054647950738      118.76597050092272      128.28617822583064
H          125.91834713931947      117.98095118077215      126.50455853259851
H          124.82859335925001      118.67720611197271      127.72130130191829
C          126.93414214716577      120.28829385248744      128.16106986766187
H          126.85426761636722      118.50816358486756      129.34607062867443
H          127.85776123907827      118.35547108554513      127.90534902638936
C          127.17401513120592      120.78575262580546      126.73912613161680
H          125.98227643750670      120.68325678583146      128.51952625411147
H          127.71947635666950      120.68173838861198      128.81066237709621
C          127.20039381115426      122.31182754086734      126.67350703551968
H          128.12041985668606      120.39469026982133      126.36329727312244
H          126.38054340665808      120.41426963670428      126.09153377482500
C          127.29609835470049      122.82878639663600      125.24269745255882
N          126.06158917737771      122.54404815888213      124.53470440010121
H          127.46588049470118      123.91285859117313      125.25705707294151
H          128.13374052116430      122.34363383333589      124.73268584106464
C          125.75337753176679      122.84970341688329      123.27219465563297
H          125.27630197021523      122.24963971439475      125.10327909224002
O          125.37832992322517      115.60224770657824      126.19514683337322
C          126.84058906516290      123.39107319308974      122.37865177072295
C          127.66292282024145      122.26991022360899      121.72871451642703
H          126.34967337922156      123.97278211509197      121.59698611086870
H          127.49226076387663      124.04736625120367      122.95454101664141
C          126.85071156966298      121.43488168350625      120.73522449579187
H          128.50059372609508      122.72969916319934      121.19852338993789
H          128.07701989057455      121.62517087415847      122.50574108295692
C          127.75546653768454      120.44640781463826      119.99639477644151
H          126.06391651987498      120.89306043010330      121.26284401489978
H          126.36845088795458      122.10428698666260      120.02280545385132
C          127.04777811581798      119.48218682720611      119.05505851130501
H          128.48863298773139      121.00430256242282      119.40620485388085
H          128.30834807724295      119.83659972552857      120.71561633347709
N          126.07393008602183      119.99875856771449      118.30289427398404
C          125.25921865555775      119.19576624261190      117.41889350340874
H          125.89469443533405      121.00073784618907      118.27259093287601
H          126.29737066751549      122.71510719924704      127.13819794775171
H          128.05637113240556      122.68680374846369      127.23583196837725
O          124.60905987156413      122.67550746143777      122.85553209656763
O          127.38216842097357      118.30238891532260      118.97722381475003
C          123.78751111359263      119.53702076480944      117.61980495124226
H          125.54874229757057      119.37881049499426      116.37746587988687
H          125.44388304192863      118.14645666249916      117.66675426139773
C          122.85547240966240      118.69361866922166      116.75632929045958
H          123.52429227777249      119.39533742197409      118.66718822616131
H          123.63925534424587      120.59118768510676      117.38850184138788
C          121.42215515075604      119.20408659069665      116.88979268030693
H          123.18232839592952      118.72697192108735      115.71435201822619
H          122.90148636899409      117.65194691143994      117.08248610469784
C          120.39540493644007      118.33691301069631      116.16616086093832
H          121.17718585839461      119.25041171271954      117.95044314788682
H          121.35963296060453      120.22186865086023      116.50008628036503
C          120.34826015979402      118.58805549457266      114.66046189477953
H          120.60764599594393      117.28140223455588      116.34659771822244
H          119.40506397339462      118.55217988387193      116.56713347368844
N          119.76166520857993      119.87882878313287      114.37540523312377
H          121.34517019334294      118.56925222472802      114.21383806648285
H          119.74185328413154      117.80743081055695      114.18214928494002
C          120.19189967632234      120.68836789754468      113.40112576912155
H          118.91817311480276      120.10154646456974      114.89862118016315
C          119.37589026568955      121.95834287801385      113.23233298656091
C          119.60815327095290      122.56208497962213      111.84761105704668
H          118.32201592103445      121.71555233467930      113.37413522398137
H          119.66505592577570      122.65631346555197      114.02029541241889
C          118.62634043109831      123.67673567497626      111.49388416550779
H          120.63067969608490      122.93579439967138      111.78659322970535
H          119.51547015689101      121.75674687418190      111.11766517628283
C          118.97470688373123      125.02360282797352      112.14612134827814
H          118.61151893096330      123.81823964017798      110.41010593171985
H          117.61541487432231      123.39153406431983      111.78269078384977
C          120.04350980577162      125.70732994093021      111.32528866271011
H          118.08781251318679      125.65283251027756      112.16924195994264
H          119.32900073041766      124.86488644138373      113.16361942928512
N          119.58138678771189      126.70687072840775      110.56376609514936
C          120.39964318329416      127.46992795707685      109.65250566807613
H          118.59809910437713      126.95227501395580      110.63863133872162
O          121.15911882671595      120.42535014370635      112.69657607872504
C          120.63089588362021      128.91005319751960      110.12529186422127
H          121.35352151380202      126.94816969768567      109.55490504854535
H          119.91350317868631      127.48704662067972      108.67011047487834
C          121.31851588464633      129.00129880829718      111.48726420527795
H          121.23556740446313      129.42020519236490      109.37252901978749
H          119.66795583331904      129.42103750175286      110.19239053121503
C          122.70486224713717      128.36117971527085      111.51131895532968
H          121.39884974428296      130.05492234313931      111.76467206594558
H          120.68953428319925      128.50954795609317      112.23308369175334
C          123.38172706380712      128.50996658768122      112.87898044029215
H          122.60189044186554      127.30151989364244      111.28265212581218
H          123.33126434964360      128.80861089582012      110.73726595360007
C          124.19317161076036      127.26623259865876      113.25451345252166
H          124.03784340541102      129.38083783332073      112.88822924859200
H          122.62393775885141      128.65776794734617      113.65168367739473
N          123.32645151456593      126.13620186306167      113.50220112568556
H          124.89434485718358      127.01234544490299      112.45777001352998
H          124.74535174838564      127.45014771558360      114.17850972986054
O          121.21718870287592      125.33971505697311      111.31048530247435
C          122.89927919251843      125.82350353053130      114.73372321193790
H          122.86471966691322      125.71732625725623      112.70520885165210
C          121.87480810809798      124.70881459215762      114.78096470660223
C          122.51902979660206      123.41250052212818      115.27794963273456
H          121.08107878693052      125.01038080324611      115.46904963579189
H          121.45395311167485      124.55258508809654      113.78843284534501
C          123.45335572753913      122.80001716892964      114.23653479169808
H          123.07641693333952      123.61135670199134      116.19537024840901
H          121.73056186863406      122.69328749216167      115.51551151964742
C          123.94832219093621      121.44328256174441      114.73639263681001
H          122.91996511793515      122.67666156109381      113.29190408772216
H          124.30060219389037      123.46541629826440      114.06063428057504
C          124.75064780212848      120.67660412581202      113.70279648109745
H          124.55600373721448      121.59094110613461      115.62842460707300
H          123.07760700757380      120.84021101222747      114.99413584977972
N          124.01792271723635      120.27822800811779      112.65970968957919
O          123.32296882918602      126.36259567286960      115.74823722198325
C          124.54600904844897      119.59800912958994      111.50304117145247
H          123.02682731677130      120.49437936949569      112.62894462079427
C          123.49609509464096      118.64848731413166      110.93377821770082
H          124.81737096649486      120.33967460118393      110.74116312457731
H          125.45748159937092      119.07210144136839      111.80317036779861
C          123.93416641354703      118.05473578240823      109.59857049848331
H          123.28480001452471      117.85443255533899      111.65237067001935
H          122.57497230760055      119.21782262568770      110.79392108435385
C          122.77485904363279      117.41363760486098      108.83587070634152
H          124.34847753162119      118.85617581814215      108.98521830950573
H          124.73055433712689      117.32732578032315      109.76172530197651
C          123.12565164532418      117.14833713623284      107.37347165892398
H          122.46697925407322      116.48773567829650      109.32689438304156
H          121.92716363381859      118.10155466370250      108.85522503328733
C          124.03673382327891      115.94357750624884      107.15186075866802
H          122.21584739083710      117.01194502965213      106.78939263009089
H          123.63228809422944      118.02943733283504      106.97844487547400
N          124.51600755614002      115.95442647591572      105.79077272488028
H          124.89196390592792      115.98383996092704      107.83728175650846
H          123.50076424110139      115.00506869988007      107.31237078737479
C          124.47758011601837      114.90007713752657      104.96947161399333
H          125.07488709149381      116.76173910858279      105.54062815960799
O          125.94173930420541      120.41743419432740      113.83252281827018
C          125.00528862458683      115.12112318112308      103.56602608279806
C          126.16237365764248      116.09931502424469      103.35859953394836
H          125.27068808980061      114.14103898773878      103.16366204150515
H          124.14148503994849      115.48870329685455      103.00298358885030
C          127.51833206248473      115.58663054582915      103.85011497226928
H          126.24958731049969      116.27254825658781      102.28244760385431
H          125.95056237606357      117.06481078617348      103.81574180229894
C          127.63105716132432      115.36736553892469      105.36044403162290
H          127.73371883512472      114.63406809715478      103.35915990923057
H          128.28702745428023      116.29935869342712      103.54261514228807
C          127.57223554360418      116.63160487072703      106.19217448708696
H          126.80631853145410      114.73125458888630      105.69222472307118
H          128.56171436783706      114.84441574631735      105.58242687452027
N          128.37189550321381      116.61889660617700      107.26998639561005
C          128.35763939474572      117.69372372245854      108.23810174466178
H          128.95309145645237      115.80723041076754      107.44216754521581
O          123.97002982643490      113.83029906891171      105.29630437561146
C          128.00640801602268      117.20000543111294      109.64433872516420
H          129.32550091991524      118.20378392642844      108.24501835647973
H          127.59826764952186      118.39445093962263      107.88628148131504
C          129.22460166896599      116.70801898386101      110.42612458192475
H          127.52681649099499      118.00740223178093      110.20071932788781
H          127.28446353106811      116.38686240935291      109.54238967135213
C          130.00842275148401      117.84397496051260      111.07880302311155
H          128.89518620251468      116.02786392282448      111.21450914847679
H          129.88100059266134      116.14956999827550      109.75734080770398
C          131.27656941952287      117.32659391514083      111.75308412618084
H          130.27271453079516      118.59525182082002      110.33189833266213
H          129.37792256448179      118.32528988127623      111.82942798031628
C          132.00517161067850      118.41406023706335      112.53518418208320
H          131.01642086917067      116.52713003417499      112.44895532536304
H          131.95148321327855      116.91702451729293      110.99979234959339
N          131.24414635345045      118.79914191293778      113.70431418452203
H          132.98784404281736      118.04253354273555      112.85185912636524
H          132.15597700395568      119.30822218679207      111.92527737911857
C          131.09499957068908      120.06636577078832      114.09841930066945
H          130.80725417444557      118.03621007923763      114.21253993687267
O          126.83002293078904      117.57583008695285      105.94050592427982
C          130.30111168552892      120.28584953969848      115.36890301186955
C          129.15806163815125      121.26443983565827      115.09305940765748
H          129.92577051197733      119.34387635199013      115.76643869776241
H          130.97824609895488      120.73185294056751      116.10212112449194
C          128.53008269402616      121.81097890907084      116.36920239197413
H          129.55941895208224      122.10017290393021      114.51784684815701
H          128.38779352865026      120.77481723109008      114.49460217586220
C          127.35556480118640      122.72524069106721      116.01185108458132
H          128.17724580262635      120.98193462268070      116.98502883234653
H          129.27293073307820      122.37970188688831      116.93202893264055
C          126.69358040300880      123.28461128604064      117.25170823946875
H          127.72337403344338      123.54814752616055      115.39828091873839
H          126.63372173371465      122.14881906676176      115.43456504591477
N          127.27828475263202      124.38006723262509      117.73717148138888
O          131.56446544298939      121.01410054671267      113.47419310955843
C          126.79284371269151      125.09937989147730      118.89261321117628
H          128.17116452767212      124.67703248153727      117.33873482781803
C          126.84968252746756      126.60709424570247      118.65162328221707
H          125.76699524496567      124.76774035874402      119.07183930431053
H          127.40268621015366      124.85070394480576      119.76936550013873
C          126.19426264530961      127.41568389520617      119.77431590781386
H          127.90081575532810      126.89413801799151      118.57542887943440
H          126.36512275563354      126.83121130825108      117.70067491907764
C          124.66968945394265      127.49289183201907      119.67262238785162
H          126.46817382471438      126.96955311582560      120.73330118857625
H          126.59496410228277      128.43219152475967      119.75919084393658
C          124.19739095532069      128.40112962404848      118.53702393695629
H          124.26254055603225      126.49321655377355      119.52445699950206
H          124.27279914039623      127.87248137089706      120.61688050828623
C          122.67269929429874      128.50613343520558      118.47859296146439
H          124.61729282742712      129.40124958274663      118.66573150471255
H          124.53820318615089      128.00778325330893      117.57874171259225
N          122.08702768048462      127.21178026485775      118.22729641165208
H          122.26217201682906      128.86352704022255      119.42689690563398
H          122.38333689777110      129.20348611061789      117.68353774790627
C          121.21080575657462      126.64043951390271      119.06332842312568
H          122.48474842565503      126.69979325933323      117.44371763546995
O          125.70531653956371      122.76273564002034      117.77074789874878
C          120.93956025495503      125.17437588524788      118.79251602202631
C          122.12097800533975      124.35393966667777      119.32822057764903
H          120.02587941078284      124.89497352454264      119.31661444910324
H          120.79667737447750      124.99497139810842      117.72822871223818
C          121.73110484555072      122.91090077668463      119.62502895329288
H          122.94283188015241      124.37301912619844      118.61039861212082
H          122.47510967422551      124.80804718951450      120.25728462104601
C          122.91672746380139      122.12219306063237      120.18649241150224
H          120.92397080988989      122.90930500264550      120.36161343051553
H          121.36221431982966      122.42327044313897      118.72108279524483
C          122.43231974060882      120.83299422496334      120.81195303882184
H          123.61693708186463      121.89652240144902      119.38137571659861
H          123.43836391723163      122.71171198541290      120.93765662957757
N          122.79065407915300      120.65691709591697      122.08234573102744
C          122.40607632434855      119.50766245464779      122.87503307125671
H          123.35570912715097      121.36829872166388      122.53577835080580
O          120.70042486479421      127.23169749297180      120.00631413733274
C          123.23889277313287      119.42262565054267      124.14757734823576
H          121.34415131849151      119.58769907536903      123.13432573231906
H          122.52672773741486      118.60836595139446      122.26833629600452
C          124.72173959595801      119.17333607289746      123.87258110775342
H          123.13275240989756      120.36604733059379      124.68587202819997
H          122.83690029511277      118.63117696026096      124.78270771786943
C          125.04281166662821      117.73985038929577      123.45772420676924
H          125.06813352250607      119.86221243493108      123.09949044774588
H          125.28183103812172      119.39771755242170      124.78087484719715
C          126.54723201944191      117.55535693579144      123.25981988364730
H          124.68115513826122      117.05706312810079      124.22818114541268
H          124.53551019204937      117.50301689135839      122.52219123051036
C          126.90966578652819      116.17353606948454      122.73108923379320
H          126.90384472262080      118.29509596009744      122.53974401628628
H          127.06467420414080      117.72375983569052      124.20706379908569
N          126.72085079424421      115.14017291112910      123.72655550528395
H          126.29115934331489      115.94903101845422      121.85310324480488
H          127.95576513788484      116.14277414863308      122.41162696669761
C          127.48361202195844      114.04905754943984      123.78565753545656
H          126.04756440875292      115.31177868395406      124.46582317811743
O          121.74528249558466      120.01790986705188      120.19383077971790
C          127.04006713982169      113.01771126707392      124.80373288640240
C          125.73184875374729      112.38399563269665      124.31716014261580
H          127.81480769468207      112.25457560870828      124.89058644455318
H          126.88716522467864      113.49287957150293      125.77141611006233
C          125.40420582173496      111.07411304446667      125.03185680013810
H          124.92019278652374      113.10026210513108      124.46171930867835
H          125.81427241793359      112.18098924156736      123.24629037201493
C          123.99978787846329      110.59105940643161      124.65137101227525
H          126.13780250546637      110.31648152348684      124.74817896024337
H          125.46677443207685      111.20871386091456      126.11191853471502
C          123.81721707766359      109.11907057357176      124.97942342279879
H          123.24648107370069      111.18151425295287      125.17445077902943
H          123.86990737968833      110.71511567746019      123.57535751754419
N          124.30579620895371      108.31570852954719      124.03475749897186
O          128.43344599551381      113.85191177166668      123.03152025358564
C          124.28486276455347      106.87249374806451      124.11090129735078
H          124.76620209881771      108.72012634294089      123.22652390991625
C          124.41672537231688      106.24646244871597      122.72758569208683
H          125.12175320537703      106.52615049348657      124.72923313606566
H          123.34631479780735      106.57922900127478      124.58934963626695
C          123.39500771463506      106.74916287823800      121.71185390765817
H          125.42116429152669      106.45795684846044      122.35659008208464
H          124.31817943099122      105.16392452125069      122.83307758442642
C          123.60968564120702      106.09730348588673      120.34775791349614
H          122.38214079531200      106.53879957831279      122.05916678277241
H          123.50455238367374      107.82803690197835      121.60216222391182
C          122.88852097683656      106.85675223457304      119.23822562836159
H          124.68081780922316      106.08082309294628      120.12884926503310
H          123.26439177957883      105.06272396290485      120.36333158715686
C          123.07212130427176      106.17128838383876      117.88583138213880
H          121.82573056538587      106.92921636958492      119.47142004580346
H          123.28366318840941      107.87479846496048      119.18454808964371
N          122.71600843675222      107.07770232196920      116.79610819227207
H          124.11429609670647      105.82765634981236      117.80073941572081
H          122.43358753697460      105.28807512001711      117.83069957149078
H          122.71945178913948      106.57358784409919      115.91543867375771
H          123.42386812932867      107.80391903832295      116.73203116295390
O          123.25399293620731      108.71975316996796      125.99558338473534
C          103.22969857153342      131.74153221315404      117.04907749097424
C          102.97422032905202      130.25080003022126      117.09324848856481
C          104.03678488031342      132.24656691585162      118.24822355312254
C          105.52975126474716      131.95299150314861      118.13780092049775
H          103.90114103547079      133.32598103355349      118.33577370394022
H          103.64292319117574      131.78224580882795      119.15260501606416
C          105.82905977976006      130.45160793464800      118.11650328977152
H          105.92868342395776      132.40904642559215      117.22964916908327
H          106.03669861202299      132.39321206826099      119.00298577316278
C          107.32607435627408      130.24828446678629      118.11693979027680
H          105.37850153436040      129.97932548751533      118.98536735886955
H          105.41677882468530      130.00960042769779      117.20886227496176
N          107.85099449386733      129.83169714297605      119.26394997666358
O          103.21527690286207      129.65721916472597      115.95233611679402
O          102.56500319668515      129.67746193962594      118.08444804054879
H          102.97865285253273      128.66928987359569      115.97174768904557
H          102.24513667913513      132.21650695577927      117.05130400561158
H          103.72802669742995      131.98413294301557      116.11000770138048
C          109.27158858014776      129.72408373875777      119.50075254390924
H          107.23902835842928      129.60747396504792      120.04600942843123
C          109.68211550888610      128.34475359439745      120.02248562659730
H          109.77806031113651      129.94991810323103      118.55879790837601
H          109.55402321252056      130.48788453587335      120.23539017201723
C          109.97145036985506      127.32336763677236      118.92264175041569
H          110.59106835082687      128.45783671049438      120.61620044063331
H          108.89830175685867      127.97597358937492      120.68608148915334
C          108.73660630484623      126.84134157532911      118.16351425314267
H          110.68118381767543      127.76061308725052      118.22010900016029
H          110.45694531579886      126.46052740407031      119.38152896435152
C          108.99632657424632      125.52151666200749      117.43534186649779
H          107.92174963433783      126.69003947090413      118.87393596991861
H          108.41815906722887      127.60343400916757      117.45199377362404
C          110.06409436172812      125.62008029442889      116.35138343425568
H          109.31943973341730      124.77239959704254      118.16129682214333
H          108.07385255961935      125.15961723363662      116.97643472838119
N          110.25537377143024      124.32197207531064      115.73613206335570
H          109.77678799758318      126.35124642382500      115.58782354387442
H          111.02234629790526      125.93323001333694      116.77062539244062