      -----------------------------------------------------------      
     |                   =====================                   |     
     |                           x T B                           |     
     |                   =====================                   |     
     |                         S. Grimme                         |     
     |          Mulliken Center for Theoretical Chemistry        |     
     |                    University of Bonn                     |     
      -----------------------------------------------------------      

   * xtb version 6.6.1 (8d0f1dd) compiled by 'stahn@M-Bot' on 2023-08-01

   xtb is free software: you can redistribute it and/or modify it under
   the terms of the GNU Lesser General Public License as published by
   the Free Software Foundation, either version 3 of the License, or
   (at your option) any later version.
   
   xtb is distributed in the hope that it will be useful,
   but WITHOUT ANY WARRANTY; without even the implied warranty of
   MERCHANTABILITY or FITNESS FOR A PARTICULAR PURPOSE.  See the
   GNU Lesser General Public License for more details.
   
   Cite this work as:
   * C. Bannwarth, E. Caldeweyher, S. Ehlert, A. Hansen, P. Pracht,
     J. Seibert, S. Spicher, S. Grimme, WIREs Comput. Mol. Sci., 2020, 11,
     e01493. DOI: 10.1002/wcms.1493
   
   for GFN2-xTB:
   * C. Bannwarth, S. Ehlert and S. Grimme., J. Chem. Theory Comput., 2019,
     15, 1652-1671. DOI: 10.1021/acs.jctc.8b01176
   for GFN1-xTB:
   * S. Grimme, C. Bannwarth, P. Shushkov, J. Chem. Theory Comput., 2017,
     13, 1989-2009. DOI: 10.1021/acs.jctc.7b00118
   for GFN0-xTB:
   * P. Pracht, E. Caldeweyher, S. Ehlert, S. Grimme, ChemRxiv, 2019, preprint.
     DOI: 10.26434/chemrxiv.8326202.v1
   for GFN-FF:
   * S. Spicher and S. Grimme, Angew. Chem. Int. Ed., 2020, 59, 15665-15673.
     DOI: 10.1002/anie.202004239
   
   for ALPB and GBSA implicit solvation:
   * S. Ehlert, M. Stahn, S. Spicher, S. Grimme, J. Chem. Theory Comput.,
     2021, 17, 4250-4261. DOI: 10.1021/acs.jctc.1c00471
   
   for DFT-D4:
   * E. Caldeweyher, C. Bannwarth and S. Grimme, J. Chem. Phys., 2017,
     147, 034112. DOI: 10.1063/1.4993215
   * E. Caldeweyher, S. Ehlert, A. Hansen, H. Neugebauer, S. Spicher,
     C. Bannwarth and S. Grimme, J. Chem. Phys., 2019, 150, 154122.
     DOI: 10.1063/1.5090222
   * E. Caldeweyher, J.-M. Mewes, S. Ehlert and S. Grimme, Phys. Chem. Chem. Phys.
     2020, 22, 8499-8512. DOI: 10.1039/D0CP00502A
   
   for sTDA-xTB:
   * S. Grimme and C. Bannwarth, J. Chem. Phys., 2016, 145, 054103.
     DOI: 10.1063/1.4959605
   
   in the mass-spec context:
   * V. Asgeirsson, C. Bauer and S. Grimme, Chem. Sci., 2017, 8, 4879.
     DOI: 10.1039/c7sc00601b
   * J. Koopman and S. Grimme, ACS Omega 2019, 4, 12, 15120-15133.
     DOI: 10.1021/acsomega.9b02011
   
   for metadynamics refer to:
   * S. Grimme, J. Chem. Theory Comput., 2019, 155, 2847-2862
     DOI: 10.1021/acs.jctc.9b00143
   
   for SPH calculations refer to:
   * S. Spicher and S. Grimme, J. Chem. Theory Comput., 2021, 17, 1701-1714
     DOI: 10.1021/acs.jctc.0c01306
   
   with help from (in alphabetical order)
   P. Atkinson, C. Bannwarth, F. Bohle, G. Brandenburg, E. Caldeweyher
   M. Checinski, S. Dohm, S. Ehlert, S. Ehrlich, I. Gerasimov, C. Hölzer
   A. Katbashev, J. Koopman, C. Lavigne, S. Lehtola, F. März, M. Müller,
   F. Musil, H. Neugebauer, J. Pisarek, C. Plett, P. Pracht, F. Pultar,
   J. Seibert, P. Shushkov, S. Spicher, M. Stahn, M. Steiner, T. Strunk,
   J. Stückrath, T. Rose, and J. Unsleber
   
 * started run on 2024/06/21 at 06:40:04.156     

           -------------------------------------------------
          |                Calculation Setup                |
           -------------------------------------------------

          program call               : /home/abt-grimme/AK-bin/xtb input.xyz --input input.inp --opt --gbsa water
          hostname                   : boar074.thch.uni-bonn.de
          coordinate file            : input.xyz
          omp threads                :                     8

   ID    Z sym.   atoms
    1    6 C      1-90, 273-362, 545-634, 817-906, 1089-1178, 1361-1450,
                  1633-1722, 1905-1994, 2177-2266, 2449-2538, 2721-2810,
                  2993-3082, 3265-3354
    2    1 H      91-272, 363-544, 635-816, 907-1088, 1179-1360, 1451-1632,
                  1723-1904, 1995-2176, 2267-2448, 2539-2720, 2811-2992,
                  3083-3264, 3355-3536

molecular fragmentation (1/2 indicates fragments):
111111111111111111111111111111111111111111111111111111111111111111111111
111111111111111111111111111111111111111111111111111111111111111111111111
111111111111111111111111111111111111111111111111111111111111111111111111
111111111111111111111111111111111111111111111111111111112222222222222222
222222222222222222222222222222222222222222222222222222222222222222222222
222222222222222222222222222222222222222222222222222222222222222222222222
222222222222222222222222222222222222222222222222222222222222222222222222
222222222222222222222222222222222222222222222222222222222222222222222222
222222222222222222222222222222222222222222222222222222222222222222222222
222222222222222222222222222222222222222222222222222222222222222222222222
222222222222222222222222222222222222222222222222222222222222222222222222
222222222222222222222222222222222222222222222222222222222222222222222222
222222222222222222222222222222222222222222222222222222222222222222222222
222222222222222222222222222222222222222222222222222222222222222222222222
222222222222222222222222222222222222222222222222222222222222222222222222
222222222222222222222222222222222222222222222222222222222222222222222222
222222222222222222222222222222222222222222222222222222222222222222222222
222222222222222222222222222222222222222222222222222222222222222222222222
222222222222222222222222222222222222222222222222222222222222222222222222
222222222222222222222222222222222222222222222222222222222222222222222222
222222222222222222222222222222222222222222222222222222222222222222222222
222222222222222222222222222222222222222222222222222222222222222222222222
222222222222222222222222222222222222222222222222222222222222222222222222
222222222222222222222222222222222222222222222222222222222222222222222222
222222222222222222222222222222222222222222222222222222222222222222222222
222222222222222222222222222222222222222222222222222222222222222222222222
222222222222222222222222222222222222222222222222222222222222222222222222
222222222222222222222222222222222222222222222222222222222222222222222222
222222222222222222222222222222222222222222222222222222222222222222222222
222222222222222222222222222222222222222222222222222222222222222222222222
222222222222222222222222222222222222222222222222222222222222222222222222
222222222222222222222222222222222222222222222222222222222222222222222222
222222222222222222222222222222222222222222222222222222222222222222222222
222222222222222222222222222222222222222222222222222222222222222222222222
222222222222222222222222222222222222222222222222222222222222222222222222
222222222222222222222222222222222222222222222222222222222222222222222222
222222222222222222222222222222222222222222222222222222222222222222222222
222222222222222222222222222222222222222222222222222222222222222222222222
222222222222222222222222222222222222222222222222222222222222222222222222
222222222222222222222222222222222222222222222222222222222222222222222222
222222222222222222222222222222222222222222222222222222222222222222222222
222222222222222222222222222222222222222222222222222222222222222222222222
222222222222222222222222222222222222222222222222222222222222222222222222
222222222222222222222222222222222222222222222222222222222222222222222222
222222222222222222222222222222222222222222222222222222222222222222222222
222222222222222222222222222222222222222222222222222222222222222222222222
222222222222222222222222222222222222222222222222222222222222222222222222
222222222222222222222222222222222222222222222222222222222222222222222222
222222222222222222222222222222222222222222222222222222222222222222222222
22222222
# atoms in fragment 1/2:   272  3264
 fragment masses (1/2) :     1264.41    15172.94
CMA distance (Bohr)    :  26.649
constraining FC (au)   :  0.0500

           -------------------------------------------------
          |                 G F N 2 - x T B                 |
           -------------------------------------------------

        Reference                      10.1021/acs.jctc.8b01176
      * Hamiltonian:
        H0-scaling (s, p, d)           1.850000    2.230000    2.230000
        zeta-weighting                 0.500000
      * Dispersion:
        s8                             2.700000
        a1                             0.520000
        a2                             5.000000
        s9                             5.000000
      * Repulsion:
        kExp                           1.500000    1.000000
        rExp                           1.000000
      * Coulomb:
        alpha                          2.000000
        third order                    shell-resolved
        anisotropic                    true
        a3                             3.000000
        a5                             4.000000
        cn-shift                       1.200000
        cn-exp                         4.000000
        max-rad                        5.000000

      * Solvation model:               GBSA
        Solvent                        water
        Parameter file                 internal GFN2-xTB/GBSA
        Dielectric constant                8.0200E+01
        Reference state                gsolv [1 M gas/solution]
        Free energy shift                  1.8574E-03 Eh       1.1656E+00 kcal/mol
        Temperature                        2.9815E+02 K
        Density                            1.0000E+00 kg/L
        Solvent mass                       1.8000E+01 g/mol
        Interaction kernel             Still
        Born radius scaling (c1)           1.5524E+00
        Born radii integrator          GBOBC
        Born offset                        2.4628E-02 a0       4.6540E-02 AA
        H-bond correction              true
        Ion screening                  false
        Surface tension                    1.0000E-05 Eh       1.5569E+01 dyn/cm
        Grid points                               230 per atom
q/qsh data taken from xtbrestart
CAMM data taken from xtbrestart

          ...................................................
          :                      SETUP                      :
          :.................................................:
          :  # basis functions                7046          :
          :  # atomic orbitals                7046          :
          :  # shells                         4706          :
          :  # electrons                      7046          :
          :  max. iterations                   250          :
          :  Hamiltonian                  GFN2-xTB          :
          :  restarted?                       true          :
          :  GBSA solvation                   true          :
          :  PC potential                    false          :
          :  electronic temp.          300.0000000     K    :
          :  accuracy                    1.0000000          :
          :  -> integral cutoff          0.2500000E+02      :
          :  -> integral neglect         0.1000000E-07      :
          :  -> SCF convergence          0.1000000E-05 Eh   :
          :  -> wf. convergence          0.1000000E-03 e    :
          :  Broyden damping             0.4000000          :
          ...................................................

 iter      E             dE          RMSdq      gap      omega  full diag
   1  -3764.1964920 -0.376420E+04  0.329E-05   10.66       0.0  T
   2  -3764.1964920 -0.578893E-09  0.243E-05   10.66      69.3  T
   3  -3764.1964920 -0.653927E-09  0.121E-05   10.66     139.4  T

   *** convergence criteria satisfied after 3 iterations ***

         #    Occupation            Energy/Eh            Energy/eV
      -------------------------------------------------------------
         1        2.0000           -0.6187073             -16.8359
       ...           ...                  ...                  ...
      3517        2.0000           -0.3776745             -10.2770
      3518        2.0000           -0.3774886             -10.2720
      3519        2.0000           -0.3773651             -10.2686
      3520        2.0000           -0.3771575             -10.2630
      3521        2.0000           -0.3769339             -10.2569
      3522        2.0000           -0.3764312             -10.2432
      3523        2.0000           -0.3752814             -10.2119 (HOMO)
      3524                          0.0164630               0.4480 (LUMO)
      3525                          0.0165232               0.4496
      3526                          0.0173088               0.4710
      3527                          0.0178679               0.4862
      3528                          0.0180924               0.4923
       ...                                ...                  ...
      7046                          0.3729255              10.1478
      -------------------------------------------------------------
                  HL-Gap            0.3917444 Eh           10.6599 eV
             Fermi-level           -0.1794092 Eh           -4.8820 eV

 SCC (total)                   0 d,  0 h,  8 min, 13.351 sec
 SCC setup                      ...        0 min,  2.039 sec (  0.413%)
 Dispersion                     ...        0 min,  4.086 sec (  0.828%)
 classical contributions        ...        0 min,  0.152 sec (  0.031%)
 integral evaluation            ...        0 min,  6.893 sec (  1.397%)
 iterations                     ...        3 min, 47.692 sec ( 46.152%)
 molecular gradient             ...        4 min,  1.672 sec ( 48.986%)
 printout                       ...        0 min, 10.817 sec (  2.193%)

         :::::::::::::::::::::::::::::::::::::::::::::::::::::
         ::                     SUMMARY                     ::
         :::::::::::::::::::::::::::::::::::::::::::::::::::::
         :: total energy           -3715.375666025247 Eh    ::
         :: total w/o Gsasa/hb     -3715.261211404772 Eh    ::
         :: gradient norm              0.668401842724 Eh/a0 ::
         :: HOMO-LUMO gap             10.659907861121 eV    ::
         ::.................................................::
         :: SCC energy             -3764.196491967987 Eh    ::
         :: -> isotropic ES            0.439921804634 Eh    ::
         :: -> anisotropic ES          1.495651753843 Eh    ::
         :: -> anisotropic XC          2.304724864820 Eh    ::
         :: -> dispersion             -4.673856141994 Eh    ::
         :: -> Gsolv                  -0.051197400262 Eh    ::
         ::    -> Gelec                0.063257220214 Eh    ::
         ::    -> Gsasa               -0.109580275581 Eh    ::
         ::    -> Ghb                 -0.006731788021 Eh    ::
         ::    -> Gshift               0.001857443127 Eh    ::
         :: repulsion energy          48.110897874292 Eh    ::
         :: add. restraining           0.000000000000 Eh    ::
         :: total charge              -0.000000000011 e     ::
         :::::::::::::::::::::::::::::::::::::::::::::::::::::

      ----------------------------------------------------------- 
     |              Fast Inertial Relaxation Engine              |
      ----------------------------------------------------------- 

          ...................................................
          :                      SETUP                      :
          :.................................................:
          :   energy convergence        0.5000000E-05 Eh    :
          :   grad. convergence         0.1000000E-02 Eh/a0 :
          :   optimization log               true           :
          :   writing optlog all                1     steps :
          :   Hessian reset                    20     steps :
          :   time step scaling                 5     steps :
          :   maximium step len.        1.0000000     a0    :
          :   initial time step         0.2500000     fs    :
          :   maximum time step         1.2500000     fs    :
          :   power reset thr           0.0000000     au    :
          :   alpha parameter           0.1000000           :
          :   BFGS update                   false           :
          :   preconditioning               false           :
          ...................................................

........................................................................
.............................. CYCLE    1 ..............................
........................................................................

 iter      E             dE          RMSdq      gap      omega  full diag
   1  -3764.4600313 -0.376446E+04  0.764E-03   10.67       0.0  T
   2  -3764.4600752 -0.439201E-04  0.414E-03   10.67       1.0  T
   3  -3764.4600759 -0.666707E-06  0.179E-03   10.67       1.0  T
   4  -3764.4600764 -0.478556E-06  0.434E-04   10.67       3.9  T
   5  -3764.4600766 -0.261369E-06  0.171E-04   10.67       9.8  T
     SCC iter.                  ...        6 min, 13.290 sec
     gradient                   ...        3 min, 58.816 sec
 * total energy  : -3715.4264969 Eh     change    :  -0.5083087E-01 Eh
   gradient norm :     0.6357332 Eh/a0  converged?    E=F G=F D=F
   time step     :     0.2500000 fs     power     :   0.2630686E-05
   step length   :     0.0783353 a0     speed     :   0.7579358E-02

........................................................................
.............................. CYCLE    2 ..............................
........................................................................

 iter      E             dE          RMSdq      gap      omega  full diag
   1  -3764.8487710 -0.376485E+04  0.112E-02   10.68       0.0  T
   2  -3764.8488654 -0.944513E-04  0.608E-03   10.68       1.0  T
   3  -3764.8488669 -0.148262E-05  0.262E-03   10.68       1.0  T
   4  -3764.8488679 -0.103216E-05  0.642E-04   10.68       2.6  T
   5  -3764.8488685 -0.567807E-06  0.262E-04   10.68       6.4  T
   6  -3764.8488685 -0.364589E-07  0.113E-04   10.68      14.9  T
     SCC iter.                  ...        7 min, 23.740 sec
     gradient                   ...        3 min, 59.299 sec
 * total energy  : -3715.4970485 Eh     change    :  -0.7055162E-01 Eh
   gradient norm :     0.5893894 Eh/a0  converged?    E=F G=F D=F
   time step     :     0.2500000 fs     power     :   0.3598921E-05
   step length   :     0.1154572 a0     speed     :   0.1117110E-01

........................................................................
.............................. CYCLE    3 ..............................
........................................................................

 iter      E             dE          RMSdq      gap      omega  full diag
   1  -3765.3528090 -0.376535E+04  0.145E-02   10.70       0.0  T
   2  -3765.3529637 -0.154633E-03  0.783E-03   10.70       1.0  T
   3  -3765.3529661 -0.247213E-05  0.335E-03   10.70       1.0  T
   4  -3765.3529678 -0.167593E-05  0.825E-04   10.70       2.0  T
   5  -3765.3529687 -0.933590E-06  0.341E-04   10.70       4.9  T
   6  -3765.3529688 -0.597124E-07  0.143E-04   10.69      11.7  T
     SCC iter.                  ...        7 min, 35.358 sec
     gradient                   ...        3 min, 58.484 sec
 * total energy  : -3715.5806861 Eh     change    :  -0.8363755E-01 Eh
   gradient norm :     0.5309850 Eh/a0  converged?    E=F G=F D=F
   time step     :     0.2500000 fs     power     :   0.4195455E-05
   step length   :     0.1498798 a0     speed     :   0.1450168E-01

........................................................................
.............................. CYCLE    4 ..............................
........................................................................

 iter      E             dE          RMSdq      gap      omega  full diag
   1  -3765.9594177 -0.376596E+04  0.173E-02   10.71       0.0  T
   2  -3765.9596331 -0.215350E-03  0.934E-03   10.71       1.0  T
   3  -3765.9596367 -0.357382E-05  0.394E-03   10.71       1.0  T
   4  -3765.9596390 -0.229166E-05  0.973E-04   10.71       1.7  T
   5  -3765.9596402 -0.128189E-05  0.414E-04   10.71       4.1  T
   6  -3765.9596403 -0.860300E-07  0.169E-04   10.71       9.9  T
   7  -3765.9596404 -0.388527E-07  0.110E-04   10.71      15.3  T
     SCC iter.                  ...        8 min, 36.963 sec
     gradient                   ...        3 min, 58.468 sec
 * total energy  : -3715.6697985 Eh     change    :  -0.8911241E-01 Eh
   gradient norm :     0.4641832 Eh/a0  converged?    E=F G=F D=F
   time step     :     0.2500000 fs     power     :   0.4380232E-05
   step length   :     0.1807613 a0     speed     :   0.1748963E-01

........................................................................
.............................. CYCLE    5 ..............................
........................................................................

 iter      E             dE          RMSdq      gap      omega  full diag
   1  -3766.6531169 -0.376665E+04  0.196E-02   10.73       0.0  T
   2  -3766.6533832 -0.266268E-03  0.106E-02   10.72       1.0  T
   3  -3766.6533878 -0.463578E-05  0.437E-03   10.72       1.0  T
   4  -3766.6533905 -0.269753E-05  0.107E-03   10.72       1.6  T
   5  -3766.6533920 -0.151025E-05  0.466E-04   10.72       3.6  T
   6  -3766.6533921 -0.913428E-07  0.175E-04   10.72       9.6  T
   7  -3766.6533922 -0.395662E-07  0.113E-04   10.72      14.9  T
     SCC iter.                  ...        8 min, 40.917 sec
     gradient                   ...        3 min, 59.014 sec
 * total energy  : -3715.7567629 Eh     change    :  -0.8696445E-01 Eh
   gradient norm :     0.3944185 Eh/a0  converged?    E=F G=F D=F
   time step     :     0.2500000 fs     power     :   0.4167946E-05
   step length   :     0.2073778 a0     speed     :   0.2006491E-01

........................................................................
.............................. CYCLE    6 ..............................
........................................................................

 iter      E             dE          RMSdq      gap      omega  full diag
   1  -3767.4993485 -0.376750E+04  0.237E-02   10.74       0.0  T
   2  -3767.4997139 -0.365467E-03  0.127E-02   10.74       1.0  T
   3  -3767.4997210 -0.710031E-05  0.511E-03   10.74       1.0  T
   4  -3767.4997246 -0.351461E-05  0.123E-03   10.74       1.4  T
   5  -3767.4997265 -0.190482E-05  0.574E-04   10.74       2.9  T
   6  -3767.4997266 -0.127603E-06  0.200E-04   10.73       8.4  T
   7  -3767.4997266 -0.503192E-07  0.131E-04   10.73      12.8  T
     SCC iter.                  ...        8 min, 30.423 sec
     gradient                   ...        4 min,  1.094 sec
 * total energy  : -3715.8425375 Eh     change    :  -0.8577457E-01 Eh
   gradient norm :     0.3227829 Eh/a0  converged?    E=F G=F D=F
   time step     :     0.2750000 fs     power     :   0.3551971E-05
   step length   :     0.2544496 a0     speed     :   0.2238124E-01

........................................................................
.............................. CYCLE    7 ..............................
........................................................................

 iter      E             dE          RMSdq      gap      omega  full diag
   1  -3768.4943622 -0.376849E+04  0.276E-02   10.75       0.0  T
   2  -3768.4948107 -0.448447E-03  0.147E-02   10.75       1.0  T
   3  -3768.4948212 -0.105630E-04  0.566E-03   10.75       1.0  T
   4  -3768.4948252 -0.398414E-05  0.132E-03   10.75       1.3  T
   5  -3768.4948271 -0.190381E-05  0.681E-04   10.75       2.5  T
   6  -3768.4948273 -0.168118E-06  0.213E-04   10.75       7.9  T
   7  -3768.4948274 -0.562181E-07  0.145E-04   10.75      11.6  T
     SCC iter.                  ...        8 min, 31.404 sec
     gradient                   ...        3 min, 59.580 sec
 * total energy  : -3715.9175801 Eh     change    :  -0.7504263E-01 Eh
   gradient norm :     0.2656285 Eh/a0  converged?    E=F G=F D=F
   time step     :     0.3025000 fs     power     :   0.2588322E-05
   step length   :     0.3028388 a0     speed     :   0.2421593E-01

........................................................................
.............................. CYCLE    8 ..............................
........................................................................

 iter      E             dE          RMSdq      gap      omega  full diag
   1  -3769.6034588 -0.376960E+04  0.307E-02   10.76       0.0  T
   2  -3769.6039252 -0.466403E-03  0.164E-02   10.76       1.0  T
   3  -3769.6039402 -0.150640E-04  0.580E-03   10.76       1.0  T
   4  -3769.6039440 -0.372759E-05  0.130E-03   10.75       1.3  T
   5  -3769.6039451 -0.112039E-05  0.751E-04   10.75       2.2  T
   6  -3769.6039453 -0.207348E-06  0.203E-04   10.75       8.3  T
   7  -3769.6039453 -0.502232E-07  0.146E-04   10.75      11.5  T
     SCC iter.                  ...        8 min, 41.054 sec
     gradient                   ...        4 min,  0.788 sec
 * total energy  : -3715.9736173 Eh     change    :  -0.5603721E-01 Eh
   gradient norm :     0.2432296 Eh/a0  converged?    E=F G=F D=F
   time step     :     0.3327500 fs     power     :   0.1485271E-05
   step length   :     0.3470707 a0     speed     :   0.2522987E-01

........................................................................
.............................. CYCLE    9 ..............................
........................................................................

 iter      E             dE          RMSdq      gap      omega  full diag
   1  -3770.7435362 -0.377074E+04  0.326E-02   10.77       0.0  T
   2  -3770.7439202 -0.384009E-03  0.176E-02   10.77       1.0  T
   3  -3770.7439391 -0.189216E-04  0.541E-03   10.77       1.0  T
   4  -3770.7439423 -0.323912E-05  0.129E-03   10.76       1.3  T
   5  -3770.7439428 -0.450482E-06  0.741E-04   10.76       2.3  T
   6  -3770.7439430 -0.204328E-06  0.164E-04   10.76      10.2  T
     SCC iter.                  ...        7 min, 33.850 sec
     gradient                   ...        3 min, 59.322 sec
 * total energy  : -3716.0080547 Eh     change    :  -0.3443740E-01 Eh
   gradient norm :     0.2518665 Eh/a0  converged?    E=F G=F D=F
   time step     :     0.3660250 fs     power     :   0.5512280E-06
   step length   :     0.3794378 a0     speed     :   0.2507523E-01

........................................................................
.............................. CYCLE   10 ..............................
........................................................................

 iter      E             dE          RMSdq      gap      omega  full diag
   1  -3771.8007273 -0.377180E+04  0.335E-02   10.79       0.0  T
   2  -3771.8009748 -0.247534E-03  0.186E-02   10.78       1.0  T
   3  -3771.8009909 -0.160458E-04  0.476E-03   10.78       1.0  T
   4  -3771.8009993 -0.841487E-05  0.146E-03   10.78       1.1  T
   5  -3771.8010004 -0.111157E-05  0.823E-04   10.78       2.0  T
   6  -3771.8010005 -0.140307E-06  0.142E-04   10.78      11.8  T
   7  -3771.8010006 -0.223904E-07  0.109E-04   10.78      15.5  T
     SCC iter.                  ...        8 min, 38.008 sec
     gradient                   ...        4 min,  0.576 sec
 * total energy  : -3716.0247166 Eh     change    :  -0.1666190E-01 Eh
   gradient norm :     0.2620649 Eh/a0  converged?    E=F G=F D=F
   time step     :     0.4026275 fs     power     :  -0.5582463E-07
   step length   :     0.3973640 a0     speed     :   0.2387263E-01

........................................................................
.............................. CYCLE   11 ..............................
........................................................................
 * reset velocities

 iter      E             dE          RMSdq      gap      omega  full diag
   1  -3771.7820472 -0.377178E+04  0.106E-03   10.78       0.0  T
   2  -3771.7820481 -0.846848E-06  0.646E-04   10.78       2.6  T
   3  -3771.7820481 -0.111777E-07  0.271E-04   10.78       6.2  T
     SCC iter.                  ...        3 min, 54.036 sec
     gradient                   ...        4 min,  0.251 sec
 * total energy  : -3716.0272945 Eh     change    :  -0.2577838E-02 Eh
   gradient norm :     0.2557764 Eh/a0  converged?    E=F G=F D=F
   time step     :     0.2013138 fs     power     :   0.1678766E-06
   step length   :     0.0099578 a0     speed     :   0.1196485E-02

........................................................................
.............................. CYCLE   12 ..............................
........................................................................

 iter      E             dE          RMSdq      gap      omega  full diag
   1  -3771.7446220 -0.377174E+04  0.212E-03   10.78       0.0  T
   2  -3771.7446252 -0.317568E-05  0.130E-03   10.78       1.3  T
   3  -3771.7446253 -0.265081E-07  0.522E-04   10.78       3.2  T
   4  -3771.7446253 -0.785044E-07  0.135E-04   10.78      12.4  T
     SCC iter.                  ...        4 min, 59.656 sec
     gradient                   ...        4 min,  1.189 sec
 * total energy  : -3716.0322061 Eh     change    :  -0.4911631E-02 Eh
   gradient norm :     0.2435228 Eh/a0  converged?    E=F G=F D=F
   time step     :     0.2013138 fs     power     :   0.3157608E-06
   step length   :     0.0196766 a0     speed     :   0.2364235E-02

........................................................................
.............................. CYCLE   13 ..............................
........................................................................

 iter      E             dE          RMSdq      gap      omega  full diag
   1  -3771.6896758 -0.377169E+04  0.305E-03   10.78       0.0  T
   2  -3771.6896830 -0.714392E-05  0.187E-03   10.78       1.0  T
   3  -3771.6896831 -0.960549E-07  0.786E-04   10.78       2.1  T
   4  -3771.6896832 -0.177387E-06  0.206E-04   10.78       8.2  T
     SCC iter.                  ...        4 min, 54.179 sec
     gradient                   ...        4 min,  2.554 sec
 * total energy  : -3716.0389910 Eh     change    :  -0.6784902E-02 Eh
   gradient norm :     0.2257739 Eh/a0  converged?    E=F G=F D=F
   time step     :     0.2013138 fs     power     :   0.4300755E-06
   step length   :     0.0289281 a0     speed     :   0.3475851E-02

........................................................................
.............................. CYCLE   14 ..............................
........................................................................

 iter      E             dE          RMSdq      gap      omega  full diag
   1  -3771.6186470 -0.377162E+04  0.394E-03   10.79       0.0  T
   2  -3771.6186589 -0.119462E-04  0.242E-03   10.79       1.0  T
   3  -3771.6186591 -0.165238E-06  0.102E-03   10.79       1.7  T
   4  -3771.6186594 -0.294971E-06  0.267E-04   10.79       6.3  T
   5  -3771.6186595 -0.887808E-07  0.614E-05   10.79      27.4  T
     SCC iter.                  ...        6 min, 14.010 sec
     gradient                   ...        3 min, 59.637 sec
 * total energy  : -3716.0470232 Eh     change    :  -0.8032189E-02 Eh
   gradient norm :     0.2032969 Eh/a0  converged?    E=F G=F D=F
   time step     :     0.2013138 fs     power     :   0.5009870E-06
   step length   :     0.0374991 a0     speed     :   0.4505698E-02

........................................................................
.............................. CYCLE   15 ..............................
........................................................................

 iter      E             dE          RMSdq      gap      omega  full diag
   1  -3771.5334804 -0.377153E+04  0.471E-03   10.79       0.0  T
   2  -3771.5334977 -0.172421E-04  0.289E-03   10.79       1.0  T
   3  -3771.5334979 -0.243338E-06  0.122E-03   10.79       1.4  T
   4  -3771.5334983 -0.411384E-06  0.320E-04   10.79       5.3  T
   5  -3771.5334985 -0.126929E-06  0.731E-05   10.79      23.0  T
     SCC iter.                  ...        6 min, 10.528 sec
     gradient                   ...        4 min,  0.494 sec
 * total energy  : -3716.0555810 Eh     change    :  -0.8557824E-02 Eh
   gradient norm :     0.1771418 Eh/a0  converged?    E=F G=F D=F
   time step     :     0.2013138 fs     power     :   0.5234337E-06
   step length   :     0.0451981 a0     speed     :   0.5430780E-02

........................................................................
.............................. CYCLE   16 ..............................
........................................................................

 iter      E             dE          RMSdq      gap      omega  full diag
   1  -3771.4366852 -0.377144E+04  0.535E-03   10.80       0.0  T
   2  -3771.4367075 -0.223657E-04  0.329E-03   10.80       1.0  T
   3  -3771.4367078 -0.320125E-06  0.139E-03   10.80       1.2  T
   4  -3771.4367084 -0.522731E-06  0.364E-04   10.80       4.6  T
   5  -3771.4367085 -0.163515E-06  0.833E-05   10.80      20.2  T
     SCC iter.                  ...        6 min, 16.316 sec
     gradient                   ...        4 min,  0.628 sec
 * total energy  : -3716.0639301 Eh     change    :  -0.8349076E-02 Eh
   gradient norm :     0.1488855 Eh/a0  converged?    E=F G=F D=F
   time step     :     0.2013138 fs     power     :   0.4980749E-06
   step length   :     0.0518571 a0     speed     :   0.6230885E-02

........................................................................
.............................. CYCLE   17 ..............................
........................................................................

 iter      E             dE          RMSdq      gap      omega  full diag
   1  -3771.3198824 -0.377132E+04  0.647E-03   10.80       0.0  T
   2  -3771.3199153 -0.328515E-04  0.399E-03   10.80       1.0  T
   3  -3771.3199157 -0.474285E-06  0.168E-03   10.80       1.0  T
   4  -3771.3199165 -0.748839E-06  0.441E-04   10.80       3.8  T
   5  -3771.3199167 -0.237944E-06  0.997E-05   10.80      16.9  T
     SCC iter.                  ...        6 min, 11.863 sec
     gradient                   ...        4 min,  0.118 sec
 * total energy  : -3716.0721299 Eh     change    :  -0.8199824E-02 Eh
   gradient norm :     0.1180713 Eh/a0  converged?    E=F G=F D=F
   time step     :     0.2214451 fs     power     :   0.4223404E-06
   step length   :     0.0636730 a0     speed     :   0.6955117E-02

........................................................................
.............................. CYCLE   18 ..............................
........................................................................

 iter      E             dE          RMSdq      gap      omega  full diag
   1  -3771.1852561 -0.377119E+04  0.752E-03   10.81       0.0  T
   2  -3771.1853005 -0.444308E-04  0.465E-03   10.81       1.0  T
   3  -3771.1853011 -0.642360E-06  0.195E-03   10.81       1.0  T
   4  -3771.1853021 -0.990200E-06  0.514E-04   10.81       3.3  T
   5  -3771.1853024 -0.319457E-06  0.116E-04   10.81      14.5  T
     SCC iter.                  ...        6 min, 14.335 sec
     gradient                   ...        3 min, 59.972 sec
 * total energy  : -3716.0791731 Eh     change    :  -0.7043133E-02 Eh
   gradient norm :     0.0909064 Eh/a0  converged?    E=F G=F D=F
   time step     :     0.2435896 fs     power     :   0.2998059E-06
   step length   :     0.0759106 a0     speed     :   0.7538047E-02

........................................................................
.............................. CYCLE   19 ..............................
........................................................................

 iter      E             dE          RMSdq      gap      omega  full diag
   1  -3771.0412838 -0.377104E+04  0.824E-03   10.81       0.0  T
   2  -3771.0413366 -0.528152E-04  0.513E-03   10.81       1.0  T
   3  -3771.0413374 -0.740502E-06  0.212E-03   10.81       1.0  T
   4  -3771.0413386 -0.117385E-05  0.562E-04   10.81       3.0  T
   5  -3771.0413389 -0.378608E-06  0.127E-04   10.81      13.3  T
   6  -3771.0413390 -0.983755E-08  0.810E-05   10.81      20.8  T
     SCC iter.                  ...        7 min, 21.176 sec
     gradient                   ...        4 min,  0.235 sec
 * total energy  : -3716.0841232 Eh     change    :  -0.4950136E-02 Eh
   gradient norm :     0.0809961 Eh/a0  converged?    E=F G=F D=F
   time step     :     0.2679486 fs     power     :   0.1552634E-06
   step length   :     0.0871533 a0     speed     :   0.7867692E-02

........................................................................
.............................. CYCLE   20 ..............................
........................................................................

 iter      E             dE          RMSdq      gap      omega  full diag
   1  -3770.9065362 -0.377091E+04  0.826E-03   10.82       0.0  T
   2  -3770.9065864 -0.502565E-04  0.519E-03   10.82       1.0  T
   3  -3770.9065870 -0.595669E-06  0.206E-03   10.82       1.0  T
   4  -3770.9065882 -0.120534E-05  0.551E-04   10.82       3.1  T
   5  -3770.9065886 -0.360442E-06  0.122E-04   10.82      13.8  T
   6  -3770.9065886 -0.655109E-08  0.707E-05   10.82      23.8  T
     SCC iter.                  ...        7 min, 26.346 sec
     gradient                   ...        4 min,  0.535 sec
 * total energy  : -3716.0867875 Eh     change    :  -0.2664272E-02 Eh
   gradient norm :     0.0948136 Eh/a0  converged?    E=F G=F D=F
   time step     :     0.2947435 fs     power     :   0.4153590E-07
   step length   :     0.0947055 a0     speed     :   0.7772236E-02
 * RMSD in coord.:     0.0375148 a0     energy gain  -0.7111214E+00 Eh

........................................................................
.............................. CYCLE   21 ..............................
........................................................................

 iter      E             dE          RMSdq      gap      omega  full diag
   1  -3770.8247118 -0.377082E+04  0.586E-03   10.82       0.0  T
   2  -3770.8247336 -0.217544E-04  0.371E-03   10.83       1.0  T
   3  -3770.8247337 -0.134264E-06  0.135E-03   10.83       1.2  T
   4  -3770.8247344 -0.669378E-06  0.365E-04   10.83       4.6  T
   5  -3770.8247345 -0.158927E-06  0.891E-05   10.83      18.9  T
     SCC iter.                  ...        6 min, 10.160 sec
     gradient                   ...        4 min,  0.432 sec
 * total energy  : -3716.0879854 Eh     change    :  -0.1197960E-02 Eh
   gradient norm :     0.1116074 Eh/a0  converged?    E=F G=F D=F
   time step     :     0.2500000 fs     power     :   0.2129363E-07
   step length   :     0.0749215 a0     speed     :   0.7249055E-02

........................................................................
.............................. CYCLE   22 ..............................
........................................................................

 iter      E             dE          RMSdq      gap      omega  full diag
   1  -3770.7781308 -0.377078E+04  0.481E-03   10.83       0.0  T
   2  -3770.7781410 -0.101715E-04  0.306E-03   10.83       1.0  T
   3  -3770.7781409  0.906407E-07  0.875E-04   10.83       1.9  T
   4  -3770.7781414 -0.514431E-06  0.249E-04   10.83       6.7  T
     SCC iter.                  ...        4 min, 58.624 sec
     gradient                   ...        4 min,  0.381 sec
 * total energy  : -3716.0894684 Eh     change    :  -0.1482949E-02 Eh
   gradient norm :     0.1237484 Eh/a0  converged?    E=F G=F D=F
   time step     :     0.2500000 fs     power     :   0.5507269E-07
   step length   :     0.0695299 a0     speed     :   0.6727392E-02

........................................................................
.............................. CYCLE   23 ..............................
........................................................................

 iter      E             dE          RMSdq      gap      omega  full diag
   1  -3770.7660582 -0.377077E+04  0.418E-03   10.84       0.0  T
   2  -3770.7660613 -0.312351E-05  0.261E-03   10.84       1.0  T
   3  -3770.7660612  0.106048E-06  0.399E-04   10.84       4.2  T
   4  -3770.7660615 -0.314391E-06  0.148E-04   10.84      11.4  T
     SCC iter.                  ...        4 min, 56.944 sec
     gradient                   ...        3 min, 59.557 sec
 * total energy  : -3716.0919165 Eh     change    :  -0.2448163E-02 Eh
   gradient norm :     0.1287852 Eh/a0  converged?    E=F G=F D=F
   time step     :     0.2500000 fs     power     :   0.1169779E-06
   step length   :     0.0658181 a0     speed     :   0.6368251E-02

........................................................................
.............................. CYCLE   24 ..............................
........................................................................

 iter      E             dE          RMSdq      gap      omega  full diag
   1  -3770.7860375 -0.377079E+04  0.407E-03   10.85       0.0  T
   2  -3770.7860380 -0.502027E-06  0.245E-03   10.85       1.0  T
   3  -3770.7860381 -0.869754E-07  0.181E-04   10.85       9.3  T
   4  -3770.7860382 -0.473547E-07  0.993E-05   10.85      16.9  T
     SCC iter.                  ...        5 min,  3.195 sec
     gradient                   ...        3 min, 59.851 sec
 * total energy  : -3716.0955393 Eh     change    :  -0.3622770E-02 Eh
   gradient norm :     0.1266388 Eh/a0  converged?    E=F G=F D=F
   time step     :     0.2500000 fs     power     :   0.1826985E-06
   step length   :     0.0643720 a0     speed     :   0.6228333E-02

........................................................................
.............................. CYCLE   25 ..............................
........................................................................

 iter      E             dE          RMSdq      gap      omega  full diag
   1  -3770.8347048 -0.377083E+04  0.440E-03   10.86       0.0  T
   2  -3770.8347061 -0.129205E-05  0.256E-03   10.86       1.0  T
   3  -3770.8347061 -0.231194E-07  0.353E-04   10.86       4.8  T
   4  -3770.8347063 -0.140736E-06  0.111E-04   10.86      15.1  T
     SCC iter.                  ...        5 min,  3.584 sec
     gradient                   ...        3 min, 59.408 sec
 * total energy  : -3716.1001751 Eh     change    :  -0.4635751E-02 Eh
   gradient norm :     0.1183231 Eh/a0  converged?    E=F G=F D=F
   time step     :     0.2500000 fs     power     :   0.2344591E-06
   step length   :     0.0650114 a0     speed     :   0.6290203E-02

........................................................................
.............................. CYCLE   26 ..............................
........................................................................

 iter      E             dE          RMSdq      gap      omega  full diag
   1  -3770.9170996 -0.377092E+04  0.548E-03   10.87       0.0  T
   2  -3770.9171051 -0.547783E-05  0.312E-03   10.87       1.0  T
   3  -3770.9171050  0.107544E-06  0.747E-04   10.87       2.3  T
   4  -3770.9171054 -0.427585E-06  0.165E-04   10.87      10.2  T
     SCC iter.                  ...        5 min,  2.411 sec
     gradient                   ...        3 min, 59.267 sec
 * total energy  : -3716.1059949 Eh     change    :  -0.5819869E-02 Eh
   gradient norm :     0.1039242 Eh/a0  converged?    E=F G=F D=F
   time step     :     0.2750000 fs     power     :   0.2617755E-06
   step length   :     0.0743817 a0     speed     :   0.6542576E-02

........................................................................
.............................. CYCLE   27 ..............................
........................................................................

 iter      E             dE          RMSdq      gap      omega  full diag
   1  -3771.0347844 -0.377103E+04  0.677E-03   10.88       0.0  T
   2  -3771.0347975 -0.130398E-04  0.383E-03   10.88       1.0  T
   3  -3771.0347973  0.158160E-06  0.112E-03   10.88       1.5  T
   4  -3771.0347980 -0.718858E-06  0.239E-04   10.88       7.0  T
   5  -3771.0347981 -0.923637E-07  0.108E-04   10.88      15.6  T
     SCC iter.                  ...        6 min, 13.796 sec
     gradient                   ...        4 min,  6.581 sec
 * total energy  : -3716.1124690 Eh     change    :  -0.6474119E-02 Eh
   gradient norm :     0.0857704 Eh/a0  converged?    E=F G=F D=F
   time step     :     0.3025000 fs     power     :   0.2543094E-06
   step length   :     0.0865155 a0     speed     :   0.6918047E-02

........................................................................
.............................. CYCLE   28 ..............................
........................................................................

 iter      E             dE          RMSdq      gap      omega  full diag
   1  -3771.1854468 -0.377119E+04  0.805E-03   10.89       0.0  T
   2  -3771.1854690 -0.222959E-04  0.454E-03   10.89       1.0  T
   3  -3771.1854689  0.148211E-06  0.141E-03   10.89       1.2  T
   4  -3771.1854698 -0.936990E-06  0.307E-04   10.89       5.5  T
   5  -3771.1854700 -0.153616E-06  0.119E-04   10.89      14.1  T
     SCC iter.                  ...        6 min,  7.338 sec
     gradient                   ...        4 min,  2.441 sec
 * total energy  : -3716.1187934 Eh     change    :  -0.6324401E-02 Eh
   gradient norm :     0.0703528 Eh/a0  converged?    E=F G=F D=F
   time step     :     0.3327500 fs     power     :   0.2123425E-06
   step length   :     0.1007282 a0     speed     :   0.7322307E-02

........................................................................
.............................. CYCLE   29 ..............................
........................................................................

 iter      E             dE          RMSdq      gap      omega  full diag
   1  -3771.3580336 -0.377136E+04  0.892E-03   10.90       0.0  T
   2  -3771.3580613 -0.276995E-04  0.501E-03   10.90       1.0  T
   3  -3771.3580612  0.938435E-07  0.152E-03   10.90       1.1  T
   4  -3771.3580622 -0.965433E-06  0.342E-04   10.90       4.9  T
   5  -3771.3580624 -0.187113E-06  0.128E-04   10.90      13.2  T
     SCC iter.                  ...        6 min, 15.010 sec
     gradient                   ...        4 min,  0.708 sec
 * total energy  : -3716.1242748 Eh     change    :  -0.5481339E-02 Eh
   gradient norm :     0.0674238 Eh/a0  converged?    E=F G=F D=F
   time step     :     0.3660250 fs     power     :   0.1553962E-06
   step length   :     0.1154939 a0     speed     :   0.7632442E-02

........................................................................
.............................. CYCLE   30 ..............................
........................................................................

 iter      E             dE          RMSdq      gap      omega  full diag
   1  -3771.5288251 -0.377153E+04  0.899E-03   10.90       0.0  T
   2  -3771.5288477 -0.226777E-04  0.502E-03   10.90       1.0  T
   3  -3771.5288478 -0.427726E-07  0.133E-03   10.90       1.3  T
   4  -3771.5288484 -0.654471E-06  0.300E-04   10.90       5.6  T
   5  -3771.5288486 -0.135882E-06  0.124E-04   10.90      13.5  T
     SCC iter.                  ...        6 min, 12.950 sec
     gradient                   ...        3 min, 59.309 sec
 * total energy  : -3716.1289662 Eh     change    :  -0.4691429E-02 Eh
   gradient norm :     0.0757174 Eh/a0  converged?    E=F G=F D=F
   time step     :     0.4026275 fs     power     :   0.1185857E-06
   step length   :     0.1285718 a0     speed     :   0.7724271E-02

........................................................................
.............................. CYCLE   31 ..............................
........................................................................

 iter      E             dE          RMSdq      gap      omega  full diag
   1  -3771.6703805 -0.377167E+04  0.838E-03   10.91       0.0  T
   2  -3771.6703910 -0.105454E-04  0.471E-03   10.91       1.0  T
   3  -3771.6703913 -0.280927E-06  0.867E-04   10.91       1.9  T
   4  -3771.6703915 -0.205733E-06  0.195E-04   10.91       8.6  T
     SCC iter.                  ...        4 min, 56.891 sec
     gradient                   ...        3 min, 59.387 sec
 * total energy  : -3716.1337836 Eh     change    :  -0.4817400E-02 Eh
   gradient norm :     0.0821641 Eh/a0  converged?    E=F G=F D=F
   time step     :     0.4428903 fs     power     :   0.1191068E-06
   step length   :     0.1404202 a0     speed     :   0.7669174E-02

........................................................................
.............................. CYCLE   32 ..............................
........................................................................

 iter      E             dE          RMSdq      gap      omega  full diag
   1  -3771.7598026 -0.377176E+04  0.772E-03   10.92       0.0  T
   2  -3771.7598054 -0.280780E-05  0.452E-03   10.92       1.0  T
   3  -3771.7598053  0.123212E-06  0.621E-04   10.92       2.7  T
   4  -3771.7598059 -0.664157E-06  0.185E-04   10.92       9.1  T
     SCC iter.                  ...        5 min,  4.133 sec
     gradient                   ...        3 min, 59.903 sec
 * total energy  : -3716.1396569 Eh     change    :  -0.5873318E-02 Eh
   gradient norm :     0.0782966 Eh/a0  converged?    E=F G=F D=F
   time step     :     0.4871793 fs     power     :   0.1385447E-06
   step length   :     0.1543383 a0     speed     :   0.7663021E-02

........................................................................
.............................. CYCLE   33 ..............................
........................................................................

 iter      E             dE          RMSdq      gap      omega  full diag
   1  -3771.7822957 -0.377178E+04  0.770E-03   10.93       0.0  T
   2  -3771.7823058 -0.100911E-04  0.482E-03   10.93       1.0  T
   3  -3771.7823045  0.132421E-05  0.111E-03   10.93       1.5  T
   4  -3771.7823070 -0.246521E-05  0.220E-04   10.93       7.6  T
   5  -3771.7823070 -0.319692E-07  0.123E-04   10.93      13.7  T
   6  -3771.7823070 -0.690625E-08  0.503E-05   10.93      33.5  T
     SCC iter.                  ...        7 min, 28.537 sec
     gradient                   ...        4 min,  0.567 sec
 * total energy  : -3716.1464850 Eh     change    :  -0.6828051E-02 Eh
   gradient norm :     0.0654763 Eh/a0  converged?    E=F G=F D=F
   time step     :     0.5358972 fs     power     :   0.1409404E-06
   step length   :     0.1727577 a0     speed     :   0.7797781E-02

........................................................................
.............................. CYCLE   34 ..............................
........................................................................

 iter      E             dE          RMSdq      gap      omega  full diag
   1  -3771.7402241 -0.377174E+04  0.831E-03   10.94       0.0  T
   2  -3771.7402535 -0.294200E-04  0.540E-03   10.94       1.0  T
   3  -3771.7402529  0.588673E-06  0.165E-03   10.94       1.0  T
   4  -3771.7402552 -0.222936E-05  0.389E-04   10.94       4.3  T
   5  -3771.7402554 -0.207006E-06  0.150E-04   10.94      11.2  T
   6  -3771.7402554 -0.140485E-07  0.759E-05   10.94      22.2  T
     SCC iter.                  ...        7 min, 22.276 sec
     gradient                   ...        3 min, 59.866 sec
 * total energy  : -3716.1530626 Eh     change    :  -0.6577660E-02 Eh
   gradient norm :     0.0578164 Eh/a0  converged?    E=F G=F D=F
   time step     :     0.5894869 fs     power     :   0.1108579E-06
   step length   :     0.1949715 a0     speed     :   0.8000405E-02

........................................................................
.............................. CYCLE   35 ..............................
........................................................................

 iter      E             dE          RMSdq      gap      omega  full diag
   1  -3771.6711935 -0.377167E+04  0.886E-03   10.96       0.0  T
   2  -3771.6712281 -0.346553E-04  0.568E-03   10.96       1.0  T
   3  -3771.6712281  0.638624E-07  0.160E-03   10.96       1.1  T
   4  -3771.6712296 -0.147259E-05  0.486E-04   10.96       3.5  T
   5  -3771.6712298 -0.288717E-06  0.170E-04   10.96       9.9  T
   6  -3771.6712299 -0.145715E-07  0.727E-05   10.96      23.1  T
     SCC iter.                  ...        7 min, 23.788 sec
     gradient                   ...        3 min, 59.889 sec
 * total energy  : -3716.1587795 Eh     change    :  -0.5716809E-02 Eh
   gradient norm :     0.0636702 Eh/a0  converged?    E=F G=F D=F
   time step     :     0.6484356 fs     power     :   0.8304091E-07
   step length   :     0.2167727 a0     speed     :   0.8086357E-02

........................................................................
.............................. CYCLE   36 ..............................
........................................................................

 iter      E             dE          RMSdq      gap      omega  full diag
   1  -3771.6370342 -0.377164E+04  0.987E-03   10.98       0.0  T
   2  -3771.6370499 -0.157622E-04  0.593E-03   10.98       1.0  T
   3  -3771.6370507 -0.784868E-06  0.909E-04   10.98       1.9  T
   4  -3771.6370511 -0.423675E-06  0.317E-04   10.98       5.3  T
     SCC iter.                  ...        4 min, 56.007 sec
     gradient                   ...        3 min, 59.788 sec
 * total energy  : -3716.1647593 Eh     change    :  -0.5979844E-02 Eh
   gradient norm :     0.0639598 Eh/a0  converged?    E=F G=F D=F
   time step     :     0.7132792 fs     power     :   0.8539740E-07
   step length   :     0.2374028 a0     speed     :   0.8050845E-02

........................................................................
.............................. CYCLE   37 ..............................
........................................................................

 iter      E             dE          RMSdq      gap      omega  full diag
   1  -3771.6844097 -0.377168E+04  0.119E-02   11.01       0.0  T
   2  -3771.6844177 -0.799291E-05  0.690E-03   11.01       1.0  T
   3  -3771.6844176  0.138244E-06  0.121E-03   11.01       1.4  T
   4  -3771.6844196 -0.197941E-05  0.344E-04   11.01       4.9  T
   5  -3771.6844196 -0.147538E-07  0.121E-04   11.01      13.9  T
   6  -3771.6844196 -0.564842E-08  0.306E-05   11.01      55.0  T
     SCC iter.                  ...        7 min, 21.434 sec
     gradient                   ...        3 min, 59.746 sec
 * total energy  : -3716.1713531 Eh     change    :  -0.6593818E-02 Eh
   gradient norm :     0.0523328 Eh/a0  converged?    E=F G=F D=F
   time step     :     0.7846071 fs     power     :   0.8000967E-07
   step length   :     0.2623638 a0     speed     :   0.8088479E-02

........................................................................
.............................. CYCLE   38 ..............................
........................................................................

 iter      E             dE          RMSdq      gap      omega  full diag
   1  -3771.8133915 -0.377181E+04  0.132E-02   11.03       0.0  T
   2  -3771.8134146 -0.230981E-04  0.763E-03   11.03       1.0  T
   3  -3771.8134136  0.101813E-05  0.168E-03   11.03       1.0  T
   4  -3771.8134168 -0.318860E-05  0.356E-04   11.03       4.7  T
   5  -3771.8134169 -0.104375E-06  0.174E-04   11.03       9.7  T
   6  -3771.8134169 -0.650380E-08  0.516E-05   11.03      32.6  T
     SCC iter.                  ...        7 min, 23.864 sec
     gradient                   ...        4 min,  2.734 sec
 * total energy  : -3716.1768484 Eh     change    :  -0.5495239E-02 Eh
   gradient norm :     0.0533029 Eh/a0  converged?    E=F G=F D=F
   time step     :     0.8630678 fs     power     :   0.4603735E-07
   step length   :     0.2903451 a0     speed     :   0.8137381E-02

........................................................................
.............................. CYCLE   39 ..............................
........................................................................

 iter      E             dE          RMSdq      gap      omega  full diag
   1  -3771.9486520 -0.377195E+04  0.119E-02   11.06       0.0  T
   2  -3771.9486668 -0.147946E-04  0.689E-03   11.06       1.0  T
   3  -3771.9486671 -0.390189E-06  0.103E-03   11.06       1.6  T
   4  -3771.9486679 -0.765163E-06  0.276E-04   11.06       6.1  T
   5  -3771.9486680 -0.484051E-07  0.144E-04   11.06      11.6  T
     SCC iter.                  ...        6 min, 11.502 sec
     gradient                   ...        3 min, 59.582 sec
 * total energy  : -3716.1817716 Eh     change    :  -0.4923216E-02 Eh
   gradient norm :     0.0583342 Eh/a0  converged?    E=F G=F D=F
   time step     :     0.9493746 fs     power     :   0.4116107E-07
   step length   :     0.3137899 a0     speed     :   0.7994962E-02

........................................................................
.............................. CYCLE   40 ..............................
........................................................................

 iter      E             dE          RMSdq      gap      omega  full diag
   1  -3772.0197280 -0.377202E+04  0.115E-02   11.08       0.0  T
   2  -3772.0197431 -0.151805E-04  0.685E-03   11.08       1.0  T
   3  -3772.0197413  0.182558E-05  0.155E-03   11.08       1.1  T
   4  -3772.0197456 -0.430223E-05  0.324E-04   11.08       5.2  T
   5  -3772.0197456 -0.305063E-07  0.170E-04   11.08       9.9  T
   6  -3772.0197457 -0.114569E-07  0.579E-05   11.08      29.0  T
     SCC iter.                  ...        7 min, 20.317 sec
     gradient                   ...        3 min, 59.429 sec
 * total energy  : -3716.1875847 Eh     change    :  -0.5813123E-02 Eh
   gradient norm :     0.0496870 Eh/a0  converged?    E=F G=F D=F
   time step     :     1.0443120 fs     power     :   0.4373209E-07
   step length   :     0.3412688 a0     speed     :   0.7904628E-02

........................................................................
.............................. CYCLE   41 ..............................
........................................................................

 iter      E             dE          RMSdq      gap      omega  full diag
   1  -3772.0417412 -0.377204E+04  0.125E-02   11.10       0.0  T
   2  -3772.0417713 -0.301101E-04  0.772E-03   11.10       1.0  T
   3  -3772.0417695  0.185818E-05  0.172E-03   11.10       1.0  T
   4  -3772.0417742 -0.469168E-05  0.412E-04   11.10       4.1  T
   5  -3772.0417743 -0.155424E-06  0.212E-04   11.10       7.9  T
   6  -3772.0417743 -0.223199E-07  0.881E-05   11.10      19.1  T
     SCC iter.                  ...        7 min, 24.607 sec
     gradient                   ...        3 min, 59.635 sec
 * total energy  : -3716.1925640 Eh     change    :  -0.4979318E-02 Eh
   gradient norm :     0.0500068 Eh/a0  converged?    E=F G=F D=F
   time step     :     1.1487432 fs     power     :   0.2118498E-07
   step length   :     0.3735969 a0     speed     :   0.7866751E-02

........................................................................
.............................. CYCLE   42 ..............................
........................................................................

 iter      E             dE          RMSdq      gap      omega  full diag
   1  -3772.1084482 -0.377211E+04  0.139E-02   11.13       0.0  T
   2  -3772.1084567 -0.856729E-05  0.813E-03   11.13       1.0  T
   3  -3772.1084570 -0.321073E-06  0.998E-04   11.13       1.7  T
   4  -3772.1084582 -0.115119E-05  0.323E-04   11.13       5.2  T
   5  -3772.1084582 -0.301848E-07  0.161E-04   11.13      10.4  T
     SCC iter.                  ...        6 min, 18.138 sec
     gradient                   ...        3 min, 59.988 sec
 * total energy  : -3716.1965847 Eh     change    :  -0.4020674E-02 Eh
   gradient norm :     0.0472713 Eh/a0  converged?    E=F G=F D=F
   time step     :     1.2500000 fs     power     :   0.8673729E-08
   step length   :     0.3972822 a0     speed     :   0.7687837E-02
 * RMSD in coord.:     0.0594120 a0     energy gain  -0.1097972E+00 Eh

........................................................................
.............................. CYCLE   43 ..............................
........................................................................

 iter      E             dE          RMSdq      gap      omega  full diag
   1  -3772.1223140 -0.377212E+04  0.236E-03   11.14       0.0  T
   2  -3772.1223142 -0.267937E-06  0.136E-03   11.14       1.2  T
   3  -3772.1223142  0.876980E-08  0.203E-04   11.14       8.3  T
   4  -3772.1223143 -0.556261E-07  0.550E-05   11.14      30.6  T
     SCC iter.                  ...        4 min, 53.568 sec
     gradient                   ...        3 min, 58.992 sec
 * total energy  : -3716.1971582 Eh     change    :  -0.5734759E-03 Eh
   gradient norm :     0.0475308 Eh/a0  converged?    E=F G=F D=F
   time step     :     0.2500000 fs     power     :   0.2618940E-07
   step length   :     0.0727688 a0     speed     :   0.7040772E-02

........................................................................
.............................. CYCLE   44 ..............................
........................................................................

 iter      E             dE          RMSdq      gap      omega  full diag
   1  -3772.1356193 -0.377214E+04  0.226E-03   11.14       0.0  T
   2  -3772.1356199 -0.533824E-06  0.133E-03   11.14       1.3  T
   3  -3772.1356198  0.222062E-07  0.241E-04   11.14       7.0  T
   4  -3772.1356199 -0.689374E-07  0.499E-05   11.14      33.7  T
     SCC iter.                  ...        4 min, 55.841 sec
     gradient                   ...        3 min, 59.247 sec
 * total energy  : -3716.1979992 Eh     change    :  -0.8410339E-03 Eh
   gradient norm :     0.0440560 Eh/a0  converged?    E=F G=F D=F
   time step     :     0.2500000 fs     power     :   0.4032393E-07
   step length   :     0.0676643 a0     speed     :   0.6546883E-02

........................................................................
.............................. CYCLE   45 ..............................
........................................................................

 iter      E             dE          RMSdq      gap      omega  full diag
   1  -3772.1467297 -0.377215E+04  0.241E-03   11.15       0.0  T
   2  -3772.1467306 -0.860164E-06  0.145E-03   11.15       1.2  T
   3  -3772.1467306  0.110331E-07  0.270E-04   11.15       6.2  T
   4  -3772.1467307 -0.714331E-07  0.606E-05   11.15      27.8  T
     SCC iter.                  ...        4 min, 57.815 sec
     gradient                   ...        4 min,  0.418 sec
 * total energy  : -3716.1989849 Eh     change    :  -0.9856705E-03 Eh
   gradient norm :     0.0379503 Eh/a0  converged?    E=F G=F D=F
   time step     :     0.2500000 fs     power     :   0.4647059E-07
   step length   :     0.0639226 a0     speed     :   0.6184852E-02

........................................................................
.............................. CYCLE   46 ..............................
........................................................................

 iter      E             dE          RMSdq      gap      omega  full diag
   1  -3772.1539207 -0.377215E+04  0.265E-03   11.15       0.0  T
   2  -3772.1539218 -0.106501E-05  0.161E-03   11.15       1.0  T
   3  -3772.1539218 -0.698401E-08  0.280E-04   11.15       6.0  T
   4  -3772.1539219 -0.734617E-07  0.717E-05   11.15      23.4  T
     SCC iter.                  ...        4 min, 59.271 sec
     gradient                   ...        3 min, 59.943 sec
 * total energy  : -3716.1999547 Eh     change    :  -0.9698524E-03 Eh
   gradient norm :     0.0309215 Eh/a0  converged?    E=F G=F D=F
   time step     :     0.2500000 fs     power     :   0.4377118E-07
   step length   :     0.0611700 a0     speed     :   0.5918524E-02

........................................................................
.............................. CYCLE   47 ..............................
........................................................................

 iter      E             dE          RMSdq      gap      omega  full diag
   1  -3772.1554541 -0.377216E+04  0.284E-03   11.16       0.0  T
   2  -3772.1554552 -0.105033E-05  0.173E-03   11.16       1.0  T
   3  -3772.1554552 -0.231444E-07  0.272E-04   11.16       6.2  T
   4  -3772.1554553 -0.778055E-07  0.803E-05   11.16      20.9  T
     SCC iter.                  ...        4 min, 54.438 sec
     gradient                   ...        3 min, 59.569 sec
 * total energy  : -3716.2007745 Eh     change    :  -0.8197843E-03 Eh
   gradient norm :     0.0254501 Eh/a0  converged?    E=F G=F D=F
   time step     :     0.2500000 fs     power     :   0.3460687E-07
   step length   :     0.0589434 a0     speed     :   0.5703094E-02

........................................................................
.............................. CYCLE   48 ..............................
........................................................................

 iter      E             dE          RMSdq      gap      omega  full diag
   1  -3772.1494081 -0.377215E+04  0.317E-03   11.16       0.0  T
   2  -3772.1494091 -0.101529E-05  0.191E-03   11.16       1.0  T
   3  -3772.1494092 -0.284845E-07  0.288E-04   11.16       5.8  T
   4  -3772.1494093 -0.111682E-06  0.951E-05   11.16      17.7  T
     SCC iter.                  ...        4 min, 56.857 sec
     gradient                   ...        3 min, 59.564 sec
 * total energy  : -3716.2014343 Eh     change    :  -0.6597491E-03 Eh
   gradient norm :     0.0240508 Eh/a0  converged?    E=F G=F D=F
   time step     :     0.2750000 fs     power     :   0.2232954E-07
   step length   :     0.0624044 a0     speed     :   0.5489056E-02

........................................................................
.............................. CYCLE   49 ..............................
........................................................................

 iter      E             dE          RMSdq      gap      omega  full diag
   1  -3772.1349024 -0.377213E+04  0.325E-03   11.17       0.0  T
   2  -3772.1349032 -0.856976E-06  0.193E-03   11.17       1.0  T
   3  -3772.1349032 -0.665341E-08  0.315E-04   11.17       5.3  T
   4  -3772.1349034 -0.159660E-06  0.102E-04   11.17      16.5  T
     SCC iter.                  ...        5 min,  2.632 sec
     gradient                   ...        4 min,  2.061 sec
 * total energy  : -3716.2019228 Eh     change    :  -0.4885419E-03 Eh
   gradient norm :     0.0270285 Eh/a0  converged?    E=F G=F D=F
   time step     :     0.3025000 fs     power     :   0.1338734E-07
   step length   :     0.0651281 a0     speed     :   0.5207849E-02

........................................................................
.............................. CYCLE   50 ..............................
........................................................................

 iter      E             dE          RMSdq      gap      omega  full diag
   1  -3772.1139367 -0.377211E+04  0.314E-03   11.17       0.0  T
   2  -3772.1139375 -0.806986E-06  0.182E-03   11.17       1.0  T
   3  -3772.1139374  0.115538E-07  0.331E-04   11.17       5.1  T
   4  -3772.1139376 -0.172593E-06  0.967E-05   11.17      17.4  T
     SCC iter.                  ...        5 min,  0.584 sec
     gradient                   ...        4 min,  1.204 sec
 * total energy  : -3716.2023490 Eh     change    :  -0.4262208E-03 Eh
   gradient norm :     0.0307792 Eh/a0  converged?    E=F G=F D=F
   time step     :     0.3327500 fs     power     :   0.1131675E-07
   step length   :     0.0670257 a0     speed     :   0.4872348E-02

........................................................................
.............................. CYCLE   51 ..............................
........................................................................

 iter      E             dE          RMSdq      gap      omega  full diag
   1  -3772.0898383 -0.377209E+04  0.300E-03   11.17       0.0  T
   2  -3772.0898392 -0.931545E-06  0.172E-03   11.17       1.0  T
   3  -3772.0898392  0.952195E-08  0.331E-04   11.17       5.1  T
   4  -3772.0898394 -0.137706E-06  0.835E-05   11.17      20.1  T
     SCC iter.                  ...        5 min,  3.980 sec
     gradient                   ...        4 min,  0.320 sec
 * total energy  : -3716.2028620 Eh     change    :  -0.5129567E-03 Eh
   gradient norm :     0.0325112 Eh/a0  converged?    E=F G=F D=F
   time step     :     0.3660250 fs     power     :   0.1467291E-07
   step length   :     0.0689597 a0     speed     :   0.4557214E-02

........................................................................
.............................. CYCLE   52 ..............................
........................................................................

 iter      E             dE          RMSdq      gap      omega  full diag
   1  -3772.0665233 -0.377207E+04  0.305E-03   11.18       0.0  T
   2  -3772.0665244 -0.112300E-05  0.174E-03   11.18       1.0  T
   3  -3772.0665244  0.240971E-08  0.319E-04   11.18       5.3  T
   4  -3772.0665245 -0.939253E-07  0.698E-05   11.18      24.1  T
     SCC iter.                  ...        4 min, 53.480 sec
     gradient                   ...        3 min, 59.486 sec
 * total energy  : -3716.2035576 Eh     change    :  -0.6956558E-03 Eh
   gradient norm :     0.0312886 Eh/a0  converged?    E=F G=F D=F
   time step     :     0.4026275 fs     power     :   0.1948405E-07
   step length   :     0.0717911 a0     speed     :   0.4313027E-02

........................................................................
.............................. CYCLE   53 ..............................
........................................................................

 iter      E             dE          RMSdq      gap      omega  full diag
   1  -3772.0485005 -0.377205E+04  0.333E-03   11.18       0.0  T
   2  -3772.0485017 -0.118555E-05  0.194E-03   11.18       1.0  T
   3  -3772.0485017 -0.646287E-08  0.295E-04   11.18       5.7  T
   4  -3772.0485018 -0.702953E-07  0.613E-05   11.18      27.4  T
     SCC iter.                  ...        4 min, 55.875 sec
     gradient                   ...        4 min,  0.115 sec
 * total energy  : -3716.2044222 Eh     change    :  -0.8646146E-03 Eh
   gradient norm :     0.0276630 Eh/a0  converged?    E=F G=F D=F
   time step     :     0.4428903 fs     power     :   0.2174197E-07
   step length   :     0.0760358 a0     speed     :   0.4152762E-02

........................................................................
.............................. CYCLE   54 ..............................
........................................................................

 iter      E             dE          RMSdq      gap      omega  full diag
   1  -3772.0406551 -0.377204E+04  0.372E-03   11.18       0.0  T
   2  -3772.0406561 -0.990173E-06  0.220E-03   11.18       1.0  T
   3  -3772.0406561 -0.898399E-08  0.274E-04   11.18       6.1  T
   4  -3772.0406562 -0.909649E-07  0.744E-05   11.18      22.6  T
     SCC iter.                  ...        4 min, 57.212 sec
     gradient                   ...        3 min, 59.353 sec
 * total energy  : -3716.2053355 Eh     change    :  -0.9132546E-03 Eh
   gradient norm :     0.0236815 Eh/a0  converged?    E=F G=F D=F
   time step     :     0.4871793 fs     power     :   0.1947203E-07
   step length   :     0.0816740 a0     speed     :   0.4055181E-02

........................................................................
.............................. CYCLE   55 ..............................
........................................................................

 iter      E             dE          RMSdq      gap      omega  full diag
   1  -3772.0467535 -0.377205E+04  0.395E-03   11.18       0.0  T
   2  -3772.0467543 -0.786854E-06  0.234E-03   11.18       1.0  T
   3  -3772.0467543  0.152509E-07  0.309E-04   11.18       5.4  T
   4  -3772.0467545 -0.172013E-06  0.101E-04   11.18      16.6  T
     SCC iter.                  ...        4 min, 57.152 sec
     gradient                   ...        3 min, 59.443 sec
 * total energy  : -3716.2061527 Eh     change    :  -0.8171836E-03 Eh
   gradient norm :     0.0221239 Eh/a0  converged?    E=F G=F D=F
   time step     :     0.5358972 fs     power     :   0.1415611E-07
   step length   :     0.0879935 a0     speed     :   0.3971772E-02

........................................................................
.............................. CYCLE   56 ..............................
........................................................................

 iter      E             dE          RMSdq      gap      omega  full diag
   1  -3772.0657849 -0.377207E+04  0.384E-03   11.19       0.0  T
   2  -3772.0657860 -0.113396E-05  0.226E-03   11.19       1.0  T
   3  -3772.0657860  0.120162E-07  0.370E-04   11.19       4.5  T
   4  -3772.0657862 -0.201553E-06  0.118E-04   11.19      14.3  T
     SCC iter.                  ...        4 min, 55.459 sec
     gradient                   ...        3 min, 58.876 sec
 * total energy  : -3716.2068361 Eh     change    :  -0.6834175E-03 Eh
   gradient norm :     0.0236083 Eh/a0  converged?    E=F G=F D=F
   time step     :     0.5894869 fs     power     :   0.9875235E-08
   step length   :     0.0938775 a0     speed     :   0.3852142E-02

........................................................................
.............................. CYCLE   57 ..............................
........................................................................

 iter      E             dE          RMSdq      gap      omega  full diag
   1  -3772.0904100 -0.377209E+04  0.352E-03   11.19       0.0  T
   2  -3772.0904117 -0.171108E-05  0.206E-03   11.19       1.0  T
   3  -3772.0904118 -0.303598E-07  0.402E-04   11.19       4.2  T
   4  -3772.0904119 -0.131296E-06  0.113E-04   11.19      14.8  T
     SCC iter.                  ...        4 min, 53.771 sec
     gradient                   ...        3 min, 59.130 sec
 * total energy  : -3716.2075136 Eh     change    :  -0.6775257E-03 Eh
   gradient norm :     0.0258987 Eh/a0  converged?    E=F G=F D=F
   time step     :     0.6484356 fs     power     :   0.9700196E-08
   step length   :     0.0992560 a0     speed     :   0.3702584E-02

........................................................................
.............................. CYCLE   58 ..............................
........................................................................

 iter      E             dE          RMSdq      gap      omega  full diag
   1  -3772.1103676 -0.377211E+04  0.336E-03   11.20       0.0  T
   2  -3772.1103691 -0.147915E-05  0.197E-03   11.20       1.0  T
   3  -3772.1103692 -0.459604E-07  0.349E-04   11.20       4.8  T
   4  -3772.1103692 -0.770442E-07  0.934E-05   11.20      18.0  T
     SCC iter.                  ...        4 min, 59.579 sec
     gradient                   ...        4 min,  1.920 sec
 * total energy  : -3716.2083925 Eh     change    :  -0.8788567E-03 Eh
   gradient norm :     0.0261210 Eh/a0  converged?    E=F G=F D=F
   time step     :     0.7132792 fs     power     :   0.1316373E-07
   step length   :     0.1056889 a0     speed     :   0.3584139E-02

........................................................................
.............................. CYCLE   59 ..............................
........................................................................

 iter      E             dE          RMSdq      gap      omega  full diag
   1  -3772.1160349 -0.377212E+04  0.367E-03   11.20       0.0  T
   2  -3772.1160357 -0.748143E-06  0.215E-03   11.20       1.0  T
   3  -3772.1160357 -0.608434E-07  0.282E-04   11.20       6.0  T
   4  -3772.1160358 -0.818791E-07  0.968E-05   11.20      17.4  T
     SCC iter.                  ...        4 min, 55.318 sec
     gradient                   ...        3 min, 59.260 sec
 * total energy  : -3716.2095488 Eh     change    :  -0.1156359E-02 Eh
   gradient norm :     0.0227156 Eh/a0  converged?    E=F G=F D=F
   time step     :     0.7846071 fs     power     :   0.1586926E-07
   step length   :     0.1150492 a0     speed     :   0.3546881E-02

........................................................................
.............................. CYCLE   60 ..............................
........................................................................

 iter      E             dE          RMSdq      gap      omega  full diag
   1  -3772.1017206 -0.377210E+04  0.434E-03   11.20       0.0  T
   2  -3772.1017220 -0.140362E-05  0.252E-03   11.20       1.0  T
   3  -3772.1017221 -0.942096E-07  0.405E-04   11.20       4.2  T
   4  -3772.1017222 -0.139762E-06  0.124E-04   11.20      13.5  T
     SCC iter.                  ...        5 min,  0.615 sec
     gradient                   ...        3 min, 58.599 sec
 * total energy  : -3716.2107626 Eh     change    :  -0.1213748E-02 Eh
   gradient norm :     0.0199707 Eh/a0  converged?    E=F G=F D=F
   time step     :     0.8630678 fs     power     :   0.1339403E-07
   step length   :     0.1275889 a0     speed     :   0.3575882E-02

........................................................................
.............................. CYCLE   61 ..............................
........................................................................

 iter      E             dE          RMSdq      gap      omega  full diag
   1  -3772.0721502 -0.377207E+04  0.454E-03   11.21       0.0  T
   2  -3772.0721528 -0.260892E-05  0.261E-03   11.21       1.0  T
   3  -3772.0721529 -0.106667E-06  0.519E-04   11.21       3.2  T
   4  -3772.0721531 -0.148420E-06  0.129E-04   11.21      13.1  T
     SCC iter.                  ...        4 min, 56.325 sec
     gradient                   ...        4 min,  0.196 sec
 * total energy  : -3716.2118830 Eh     change    :  -0.1120425E-02 Eh
   gradient norm :     0.0228286 Eh/a0  converged?    E=F G=F D=F
   time step     :     0.9493746 fs     power     :   0.1095168E-07
   step length   :     0.1407127 a0     speed     :   0.3585179E-02

........................................................................
.............................. CYCLE   62 ..............................
........................................................................

 iter      E             dE          RMSdq      gap      omega  full diag
   1  -3772.0454078 -0.377205E+04  0.422E-03   11.21       0.0  T
   2  -3772.0454096 -0.176316E-05  0.241E-03   11.21       1.0  T
   3  -3772.0454097 -0.902378E-07  0.443E-04   11.21       3.8  T
   4  -3772.0454098 -0.123924E-06  0.117E-04   11.21      14.4  T
     SCC iter.                  ...        4 min, 55.324 sec
     gradient                   ...        4 min,  0.237 sec
 * total energy  : -3716.2132360 Eh     change    :  -0.1352983E-02 Eh
   gradient norm :     0.0217981 Eh/a0  converged?    E=F G=F D=F
   time step     :     1.0443120 fs     power     :   0.1370594E-07
   step length   :     0.1544873 a0     speed     :   0.3578306E-02

........................................................................
.............................. CYCLE   63 ..............................
........................................................................

 iter      E             dE          RMSdq      gap      omega  full diag
   1  -3772.0448372 -0.377204E+04  0.482E-03   11.22       0.0  T
[...]
  3286   6 C     3287   6 C                                       1.5341345
  3287   6 C     3288   6 C                                       1.5287206
  3287   6 C     3289   6 C                                       1.5332323
  3290   6 C     3291   6 C                                       1.5293440
  3290   6 C     3292   6 C                                       1.5350021
  3292   6 C     3293   6 C                                       1.5341701
  3293   6 C     3294   6 C                                       1.5269726
  3293   6 C     3295   6 C                                       1.5362852
  3295   6 C     3296   6 C                                       1.5366890
  3296   6 C     3297   6 C                                       1.5282005
  3296   6 C     3298   6 C                                       1.5331682
  3298   6 C     3299   6 C                                       1.5341127
  3299   6 C     3300   6 C                                       1.5291658
  3299   6 C     3301   6 C                                       1.5398496
  3301   6 C     3302   6 C                                       1.5326824
  3302   6 C     3303   6 C                                       1.5283353
  3302   6 C     3304   6 C                                       1.5353909
  3304   6 C     3305   6 C                                       1.5369028
  3305   6 C     3306   6 C                                       1.5262566
  3305   6 C     3307   6 C                                       1.5356775
  3307   6 C     3308   6 C                                       1.5362257
  3308   6 C     3309   6 C                                       1.5285339
  3308   6 C     3310   6 C                                       1.5335182
  3310   6 C     3311   6 C                                       1.5368403
  3311   6 C     3312   6 C                                       1.5283868
  3311   6 C     3313   6 C                                       1.5324813
  3313   6 C     3314   6 C                                       1.5376429
  3314   6 C     3315   6 C                                       1.5297930
  3314   6 C     3316   6 C                                       1.5333277
  3316   6 C     3317   6 C                                       1.5359097
  3317   6 C     3318   6 C                                       1.5279150
  3317   6 C     3319   6 C                                       1.5332510
  3319   6 C     3320   6 C                                       1.5360890
  3320   6 C     3321   6 C                                       1.5290427
  3320   6 C     3322   6 C                                       1.5337223
  3322   6 C     3323   6 C                                       1.5348820
  3323   6 C     3324   6 C                                       1.5291134
  3323   6 C     3325   6 C                                       1.5339120
  3326   6 C     3327   6 C                                       1.5300485
  3326   6 C     3328   6 C                                       1.5346583
  3328   6 C     3329   6 C                                       1.5334338
  3329   6 C     3330   6 C                                       1.5277107
  3329   6 C     3331   6 C                                       1.5377661
  3331   6 C     3332   6 C                                       1.5381693
  3332   6 C     3333   6 C                                       1.5278956
  3332   6 C     3334   6 C                                       1.5342156
  3334   6 C     3335   6 C                                       1.5348394
  3335   6 C     3336   6 C                                       1.5285059
  3335   6 C     3337   6 C                                       1.5319557
  3337   6 C     3338   6 C                                       1.5362789
  3338   6 C     3339   6 C                                       1.5288284
  3338   6 C     3340   6 C                                       1.5323674
  3340   6 C     3341   6 C                                       1.5353510
  3341   6 C     3342   6 C                                       1.5307217
  3341   6 C     3343   6 C                                       1.5390723
  3343   6 C     3344   6 C                                       1.5349387
  3344   6 C     3345   6 C                                       1.5274129
  3344   6 C     3346   6 C                                       1.5354225
  3346   6 C     3347   6 C                                       1.5360351
  3347   6 C     3348   6 C                                       1.5265345
  3347   6 C     3349   6 C                                       1.5343265
  3350   6 C     3351   6 C                                       1.5286630
  3350   6 C     3352   6 C                                       1.5323635
  3352   6 C     3353   6 C                                       1.5257840
  3353   6 C     3354   6 C                                       1.5239464
  3265   6 C     3355   1 H                                       1.0871544
  3265   6 C     3356   1 H                                       1.0878787
  3265   6 C     3357   1 H                                       1.0865627
  3354   6 C     3358   1 H                                       1.0885307
  3354   6 C     3359   1 H                                       1.0886876
  3354   6 C     3360   1 H                                       1.0877721
  3352   6 C     3361   1 H                                       1.0935504
  3352   6 C     3362   1 H                                       1.0930826
  3349   6 C     3363   1 H                                       1.0916921
  3349   6 C     3364   1 H                                       1.0916898
  3347   6 C     3365   1 H                                       1.0949184
  3348   6 C     3366   1 H                                       1.0865359
  3348   6 C     3367   1 H                                       1.0885330
  3348   6 C     3368   1 H                                       1.0881016
  3346   6 C     3369   1 H                                       1.0927454
  3346   6 C     3370   1 H                                       1.0926889
  3343   6 C     3371   1 H                                       1.0927493
  3343   6 C     3372   1 H                                       1.0928563
  3350   6 C     3373   1 H                                       1.0950888
  3351   6 C     3374   1 H                                       1.0883137
  3351   6 C     3375   1 H                                       1.0881351
  3351   6 C     3376   1 H                                       1.0881345
  3344   6 C     3377   1 H                                       1.0932967
  3345   6 C     3378   1 H                                       1.0873700
  3345   6 C     3379   1 H                                       1.0884364
  3345   6 C     3380   1 H                                       1.0874722
  3341   6 C     3381   1 H                                       1.0927229
  3342   6 C     3382   1 H                                       1.0884496
  3342   6 C     3383   1 H                                       1.0878780
  3342   6 C     3384   1 H                                       1.0883262
  3340   6 C     3385   1 H                                       1.0920487
  3340   6 C     3386   1 H                                       1.0944484
  3338   6 C     3387   1 H                                       1.0917695
  3339   6 C     3388   1 H                                       1.0887437
  3339   6 C     3389   1 H                                       1.0882667
  3339   6 C     3390   1 H                                       1.0865877
  3337   6 C     3391   1 H                                       1.0923116
  3337   6 C     3392   1 H                                       1.0936739
  3335   6 C     3393   1 H                                       1.0935648
  3336   6 C     3394   1 H                                       1.0864727
  3336   6 C     3395   1 H                                       1.0876745
  3336   6 C     3396   1 H                                       1.0876286
  3334   6 C     3397   1 H                                       1.0927579
  3334   6 C     3398   1 H                                       1.0932089
  3332   6 C     3399   1 H                                       1.0947136
  3333   6 C     3400   1 H                                       1.0868659
  3333   6 C     3401   1 H                                       1.0874577
  3333   6 C     3402   1 H                                       1.0884281
  3331   6 C     3403   1 H                                       1.0922326
  3331   6 C     3404   1 H                                       1.0923655
  3329   6 C     3405   1 H                                       1.0934297
  3330   6 C     3406   1 H                                       1.0886772
  3330   6 C     3407   1 H                                       1.0870441
  3330   6 C     3408   1 H                                       1.0880939
  3328   6 C     3409   1 H                                       1.0936839
  3328   6 C     3410   1 H                                       1.0936101
  3326   6 C     3411   1 H                                       1.0939013
  3327   6 C     3412   1 H                                       1.0883215
  3327   6 C     3413   1 H                                       1.0883160
  3327   6 C     3414   1 H                                       1.0879134
  3325   6 C     3415   1 H                                       1.0903813
  3325   6 C     3416   1 H                                       1.0927154
  3323   6 C     3417   1 H                                       1.0929362
  3324   6 C     3418   1 H                                       1.0882171
  3324   6 C     3419   1 H                                       1.0874003
  3324   6 C     3420   1 H                                       1.0887582
  3322   6 C     3421   1 H                                       1.0921665
  3322   6 C     3422   1 H                                       1.0935381
  3320   6 C     3423   1 H                                       1.0940517
  3321   6 C     3424   1 H                                       1.0866028
  3321   6 C     3425   1 H                                       1.0885456
  3321   6 C     3426   1 H                                       1.0881294
  3319   6 C     3427   1 H                                       1.0920814
  3319   6 C     3428   1 H                                       1.0938087
  3317   6 C     3429   1 H                                       1.0928797
  3318   6 C     3430   1 H                                       1.0872403
  3318   6 C     3431   1 H                                       1.0885329
  3318   6 C     3432   1 H                                       1.0874322
  3316   6 C     3433   1 H                                       1.0908985
  3316   6 C     3434   1 H                                       1.0925748
  3314   6 C     3435   1 H                                       1.0938214
  3315   6 C     3436   1 H                                       1.0867908
  3315   6 C     3437   1 H                                       1.0885724
  3315   6 C     3438   1 H                                       1.0884567
  3313   6 C     3439   1 H                                       1.0917922
  3313   6 C     3440   1 H                                       1.0942604
  3311   6 C     3441   1 H                                       1.0925592
  3312   6 C     3442   1 H                                       1.0881309
  3312   6 C     3443   1 H                                       1.0869307
  3312   6 C     3444   1 H                                       1.0885228
  3310   6 C     3445   1 H                                       1.0917941
  3310   6 C     3446   1 H                                       1.0935495
  3308   6 C     3447   1 H                                       1.0940835
  3309   6 C     3448   1 H                                       1.0875126
  3309   6 C     3449   1 H                                       1.0866900
  3309   6 C     3450   1 H                                       1.0881730
  3307   6 C     3451   1 H                                       1.0933015
  3307   6 C     3452   1 H                                       1.0936598
  3305   6 C     3453   1 H                                       1.0939209
  3306   6 C     3454   1 H                                       1.0872884
  3306   6 C     3455   1 H                                       1.0877303
  3306   6 C     3456   1 H                                       1.0877189
  3304   6 C     3457   1 H                                       1.0932233
  3304   6 C     3458   1 H                                       1.0931188
  3302   6 C     3459   1 H                                       1.0940057
  3303   6 C     3460   1 H                                       1.0873879
  3303   6 C     3461   1 H                                       1.0878023
  3303   6 C     3462   1 H                                       1.0875035
  3301   6 C     3463   1 H                                       1.0889510
  3301   6 C     3464   1 H                                       1.0924253
  3299   6 C     3465   1 H                                       1.0939853
  3300   6 C     3466   1 H                                       1.0874926
  3300   6 C     3467   1 H                                       1.0884615
  3300   6 C     3468   1 H                                       1.0886575
  3298   6 C     3469   1 H                                       1.0927353
  3298   6 C     3470   1 H                                       1.0940624
  3296   6 C     3471   1 H                                       1.0927945
  3297   6 C     3472   1 H                                       1.0884942
  3297   6 C     3473   1 H                                       1.0884258
  3297   6 C     3474   1 H                                       1.0870234
  3295   6 C     3475   1 H                                       1.0931566
  3295   6 C     3476   1 H                                       1.0928025
  3293   6 C     3477   1 H                                       1.0938207
  3294   6 C     3478   1 H                                       1.0887000
  3294   6 C     3479   1 H                                       1.0871575
  3294   6 C     3480   1 H                                       1.0872748
  3292   6 C     3481   1 H                                       1.0938863
  3292   6 C     3482   1 H                                       1.0937444
  3290   6 C     3483   1 H                                       1.0935062
  3291   6 C     3484   1 H                                       1.0885244
  3291   6 C     3485   1 H                                       1.0884869
  3291   6 C     3486   1 H                                       1.0876076
  3289   6 C     3487   1 H                                       1.0899939
  3289   6 C     3488   1 H                                       1.0926361
  3287   6 C     3489   1 H                                       1.0932000
  3288   6 C     3490   1 H                                       1.0876956
  3288   6 C     3491   1 H                                       1.0869612
  3288   6 C     3492   1 H                                       1.0886013
  3286   6 C     3493   1 H                                       1.0938428
  3286   6 C     3494   1 H                                       1.0934148
  3284   6 C     3495   1 H                                       1.0937967
  3285   6 C     3496   1 H                                       1.0868280
  3285   6 C     3497   1 H                                       1.0869112
  3285   6 C     3498   1 H                                       1.0879539
  3283   6 C     3499   1 H                                       1.0900548
  3283   6 C     3500   1 H                                       1.0920605
  3281   6 C     3501   1 H                                       1.0970955
  3282   6 C     3502   1 H                                       1.0879909
  3282   6 C     3503   1 H                                       1.0878658
  3282   6 C     3504   1 H                                       1.0873442
  3280   6 C     3505   1 H                                       1.0929541
  3280   6 C     3506   1 H                                       1.0913883
  3278   6 C     3507   1 H                                       1.0920148
  3279   6 C     3508   1 H                                       1.0888248
  3279   6 C     3509   1 H                                       1.0875805
  3279   6 C     3510   1 H                                       1.0880536
  3277   6 C     3511   1 H                                       1.0926871
  3277   6 C     3512   1 H                                       1.0938222
  3275   6 C     3513   1 H                                       1.0932933
  3276   6 C     3514   1 H                                       1.0874361
  3276   6 C     3515   1 H                                       1.0879742
  3276   6 C     3516   1 H                                       1.0884919
  3274   6 C     3517   1 H                                       1.0904942
  3274   6 C     3518   1 H                                       1.0926221
  3272   6 C     3519   1 H                                       1.0938531
  3273   6 C     3520   1 H                                       1.0885840
  3273   6 C     3521   1 H                                       1.0881970
  3273   6 C     3522   1 H                                       1.0871474
  3271   6 C     3523   1 H                                       1.0935137
  3271   6 C     3524   1 H                                       1.0933535
  3269   6 C     3525   1 H                                       1.0936063
  3270   6 C     3526   1 H                                       1.0867804
  3270   6 C     3527   1 H                                       1.0873150
  3270   6 C     3528   1 H                                       1.0884104
  3268   6 C     3529   1 H                                       1.0938668
  3268   6 C     3530   1 H                                       1.0939520
  3266   6 C     3531   1 H                                       1.0950183
  3267   6 C     3532   1 H                                       1.0879285
  3267   6 C     3533   1 H                                       1.0880271
  3267   6 C     3534   1 H                                       1.0883666
  3353   6 C     3535   1 H                                       1.0927783
  3353   6 C     3536   1 H                                       1.0913990

 * 2 distinct bonds (by element types)

   Z      Z             #   av. dist./Å        max./Å        min./Å
   1 H    6 C        2366     1.0903153     1.0977956     1.0848832
   6 C    6 C        1111     1.5323597     1.5400475     1.5216659


optimized geometry written to: xtbopt.xyz


           -------------------------------------------------
          | TOTAL ENERGY            -3716.274162596166 Eh   |
          | GRADIENT NORM               0.000822354796 Eh/α |
          | HOMO-LUMO GAP              11.306810650510 eV   |
           -------------------------------------------------

------------------------------------------------------------------------
 * finished run on 2024/06/25 at 00:31:46.788     
------------------------------------------------------------------------
 total:
 * wall-time:     3 d, 17 h, 51 min, 42.631 sec
 *  cpu-time:    21 d,  0 h, 52 min,  6.068 sec
 * ratio c/w:     5.618 speedup
 SCF:
 * wall-time:     0 d,  0 h,  8 min, 13.511 sec
 *  cpu-time:     0 d,  0 h, 45 min, 50.548 sec
 * ratio c/w:     5.573 speedup
 ANC optimizer:
 * wall-time:     3 d, 17 h, 42 min,  0.926 sec
 *  cpu-time:    21 d,  0 h,  4 min, 30.716 sec
 * ratio c/w:     5.620 speedup

