3536
 energy: -3716.209791691062 gnorm: 0.000999616019 xtb: 6.6.1 (8d0f1dd)
C           65.95127295756669       52.87662398730510       52.00757760827590
C           66.54589670816812       52.81205722141495       50.60264281482488
C           67.36837981572019       54.06809016020584       50.33110639581818
C           65.40828774844601       52.63448122474655       49.59199337374590
C           65.80256810637260       52.65866801451065       48.10946796561097
C           64.53871317197624       52.45834133917489       47.27435857318797
C           66.86110150827366       51.58995397297593       47.81395160252406
C           67.27496640651673       51.42206351963639       46.34495707179015
C           68.30420635031716       50.29534091635539       46.25636881217169
C           67.82100165799520       52.73215204829936       45.76420978197983
C           68.22811383154568       52.69344040306255       44.28236646422807
C           68.84237682337927       54.04205115898241       43.90298109626342
C           67.03356733760049       52.35961931520913       43.36964465477516
C           67.27860258299100       51.22066717660998       42.36788579129843
C           67.95708956899227       51.73457407503756       41.10066299015804
C           65.94963667565456       50.52036394731568       42.04500203330756
C           65.58810317183197       49.46492751653316       43.10662159167279
C           66.14294300188672       48.10396421769558       42.69036352831478
C           64.07347379389910       49.42526087648062       43.33549201106416
C           63.57472451864587       48.41261301392200       44.37738514677022
C           62.04731278450591       48.39216858167482       44.33920229130499
C           64.08077832398740       48.74020279757742       45.78649537887485
C           63.89388457371043       47.62941395055147       46.83084232649058
C           64.33299841398149       48.15258693297650       48.19867171959375
C           64.68317990530024       46.35782416719489       46.46550824783408
C           63.81060967603011       45.22013881493733       45.91742836030055
C           63.03862636614098       44.54834892085086       47.05170994438148
C           64.64525410154815       44.17564658240766       45.15791703524899
C           63.88985205976459       43.54915683689885       43.97467052943724
C           64.49255041076202       42.18782999378937       43.63509690931482
C           63.95245778529345       44.49407759984478       42.76770552199019
C           62.98220875183910       44.20640121695297       41.61212438305360
C           63.52034917335231       44.87903150296986       40.34622168649806
C           61.55210698536761       44.71181318382231       41.88032873111496
C           60.57104605844363       43.69877799908375       42.48243429516688
C           60.30456805111111       42.54482032357465       41.51533366584405
C           59.22628961929364       44.36357362020740       42.81961550897122
C           59.23943661572022       45.42864542149918       43.92354090871941
C           59.66608645696176       44.83416925156298       45.26367611804927
C           57.84806147181440       46.07368842051823       44.04187974398294
C           57.60903592605569       47.22504600453410       43.05641850942050
C           58.26142624884342       48.50723941211960       43.57322671975097
C           56.11046115218599       47.48418257141390       42.85424326741879
C           55.37866985830577       46.49137467514597       41.94129534803027
C           55.73446151137494       46.74715576691820       40.47880368877532
C           53.86713498618730       46.62802953757884       42.17127630401301
C           52.99214706423673       45.55869758800873       41.50352428088043
C           51.53068927026780       46.00203755674202       41.58138166462266
C           53.19601649687160       44.17756335238879       42.15430683142796
C           53.40332119862392       43.03322888412804       41.15454694400838
C           52.08179469301181       42.62653072094238       40.50500628479391
C           54.04881772841273       41.81621631148219       41.83525327093077
C           55.56186636267689       41.93675007684622       42.05558726027759
C           56.31200655734938       41.89453643743069       40.72337168308368
C           56.08719041204214       40.79736040416593       42.94185609500714
C           55.74135234442365       40.85321063977457       44.43824399697658
C           56.39387575807163       42.06016983983113       45.10460417956867
C           56.21819177000946       39.53497946679894       45.06870836746359
C           56.02948221454260       39.35524016045785       46.58296374582471
C           56.61986058876425       38.00112716023379       46.97836693111423
C           54.55211019453920       39.45829712292176       46.97742592509885
C           54.22646086601970       39.19053750159291       48.45664160789973
C           52.71586315503616       39.31739765736943       48.65338915655091
C           55.00401064152348       40.15587115689155       49.36107299092989
C           54.61551335861167       40.19109227478657       50.84681497105234
C           55.44807824440434       41.27401264593458       51.53395992099821
C           54.83760091901899       38.83302989924694       51.52200672113079
C           54.25503874263274       38.70953981575637       52.93902120985148
C           54.89134796967190       37.51149550904164       53.64324708976287
C           52.72946030265064       38.56631197322096       52.87922030595087
C           51.99393169372863       38.72873247572807       54.21654632456703
C           50.57387687950622       38.18096413750888       54.07150901321674
C           51.95681915454540       40.19518090382292       54.66333588557347
C           51.47842535788341       40.38776140668493       56.11541274311463
C           50.23454879789715       41.27393979656670       56.16212462338608
C           52.55369617439047       41.01022901165764       57.01363376052857
C           53.82981480515988       40.18369344107847       57.22182224319360
C           53.53094505854398       38.86903923149016       57.93611838166625
C           54.81420131241391       41.04901824796317       58.02220048729045
C           56.19164289930041       40.44630361300557       58.33414004081732
C           56.97721386471319       41.46217233710011       59.16289484760154
C           56.92650717641820       40.07468447888842       57.04139025002851
C           58.36113179389343       39.54344320133549       57.18615439551685
C           58.91242845306916       39.27672169632538       55.78480400062121
C           58.39818279004699       38.27747201868404       58.04933561021907
C           59.77923317853024       37.63508199549956       58.23460693989392
C           59.63048067749270       36.32595465661462       59.01145874089365
C           60.80880106451150       38.56122055289397       58.89930062508824
C           60.43987387053117       39.06652014638946       60.29273949248359
C           61.57973308582749       39.87126102347765       60.90516003282950
H           66.73545192103390       52.98120212082411       52.75266075386752
H           65.28330870024948       53.73126048412546       52.09146692798630
H           65.37838619466925       51.97839304968285       52.22800039659521
H           62.46326479322899       39.24827417708624       61.02432719803592
H           61.83811655048134       40.71373760951487       60.26698013223390
H           61.29909001919289       40.25512834369710       61.88326261828176
H           61.75342377498126       38.01460749978392       58.97083115808322
H           60.98496819776608       39.42323877640040       58.25202253100079
H           57.99478313833367       38.50748828058880       59.03574079335154
H           57.73957705371920       37.53295726523314       57.59246334697529
H           58.97703714014226       40.31501245660237       57.65378597192084
H           58.40171997573540       38.42977530891341       55.33046566685256
H           58.76122235733511       40.14631642771070       55.14833936602616
H           59.97713301875738       39.06079911209865       55.81363065412648
H           56.34466079562691       39.31540032435490       56.51503740598500
H           56.95844183699188       40.96385533054884       56.40506452239998
H           54.97225194804503       41.98255596644767       57.47452982880377
H           54.33686399313552       41.31170671449834       58.97071551744714
H           60.17602649915138       37.37782291126094       57.24665403484139
H           59.16218408813207       36.49463763272907       59.97731712914656
H           59.00971595730408       35.62533540899086       58.45707150192248
H           60.60242746209877       35.86519122452155       59.17436030365469
H           56.05147719718693       39.54726427107413       58.93994871786052
H           57.91814866601809       41.04624700532813       59.50949947770187
H           57.19352042943447       42.34961338558318       58.57204456348908
H           56.40210188370845       41.76521037157211       60.03573334043099
H           54.26417162604705       39.95861235256922       56.24420972302432
H           53.08110916452829       39.05879138382758       58.90742812625302
H           52.84393711280178       38.25961416960748       57.35504334913597
H           54.44005074227286       38.29157943123164       58.08161374376784
H           52.83237378666081       41.97968949141492       56.59078906430164
H           52.11068196862964       41.20082516448557       57.99516786143583
H           51.20631038471929       39.41578325067984       56.53466502433588
H           49.43265832330479       40.84283973565158       55.56759884359579
H           49.88147924119271       41.38286365773747       57.18475849755490
H           50.46192040468393       42.26310266672054       55.77145151660275
H           52.94911966987481       40.63156428222086       54.55137517763973
H           51.29626374272060       40.74057305319104       53.98596809648427
H           52.51170817606312       38.14248331811440       54.98087883717655
H           50.00850320636057       38.30497090646708       54.99155931547742
H           50.04887531228987       38.70466837062818       53.27453938449167
H           50.59429823286207       37.12093380035223       53.82722377690676
H           52.32325794441724       39.30542359911311       52.18562258140065
H           52.50097851953449       37.57761429011912       52.47241773171097
H           54.51138613916089       39.60681325672482       53.50750161030331
H           54.68312123602586       36.59391536829865       53.09644177186188
H           55.97067526670661       37.63675402891820       53.70333061508774
H           54.50928945261684       37.40115697419046       54.65490887739530
H           54.39781673858380       38.04421869835004       50.90980369596693
H           55.91446176938302       38.65026721994190       51.56502917459884
H           53.56220618757897       40.47121981489391       50.92921004308916
H           56.50044114109087       40.99762793337273       51.52331568021270
H           55.33972953069927       42.22642693749763       51.02035011292535
H           55.13784317579125       41.41417567625884       52.56599895281400
H           56.06708468211701       39.91502293154781       49.30079403142927
H           54.87363096314290       41.16486443838949       48.95974901143887
H           54.51180463027623       38.16223276373306       48.69376465468707
H           52.18868234605925       38.72868464108326       47.90522784036868
H           52.41378536138506       38.96013909374098       49.63376874028319
H           52.40401151746419       40.35435098897333       48.55341445813167
H           54.19218477033475       40.45959783960031       46.73043415721128
H           53.98614599625459       38.74770872103080       46.36902321919384
H           56.59519690459196       40.13373992791863       47.10012197598607
H           56.65325983722804       37.88508164344363       48.05810551975708
H           56.02576075920084       37.19049787288584       46.56141136729874
H           57.63542936582651       37.90741251651743       46.59963081175432
H           55.70450550183380       38.71219336855260       44.56411086730698
H           57.28540789490769       39.43207652732388       44.85352915308568
H           54.65661704823454       40.93110001165068       44.55388998895481
H           57.47474919959066       42.01575970749794       44.98630690801257
H           56.03833499945027       42.98713440641853       44.66126170295342
H           56.16107818096571       42.09212956677324       46.16479707963206
H           55.71463061519427       39.85490481545336       42.53222842455250
H           57.17743004455416       40.77472915155687       42.85852792588602
H           55.78226972416718       42.89512515697572       42.53343361360675
H           57.38145458664314       42.00154509128168       40.88651318443579
H           56.13486526690471       40.94646011693688       40.21948488932097
H           55.99586140865517       42.69722998444314       40.06289711651146
H           53.55045692398655       41.65541249130233       42.79318762073337
H           53.86883275711531       40.92959084506659       41.22258247699311
H           54.07005465677273       43.38447824235961       40.36170176145108
H           51.63837337630501       43.46525487160447       39.97422529736034
H           52.23848764006735       41.82292495097804       39.78841736540064
H           51.37703679600649       42.27961382562244       41.25850829795330
H           54.06422893905485       44.22186532931145       42.81169436023111
H           52.33748332841585       43.93946339864080       42.78396650207714
H           53.26286571618529       45.49517465724593       40.44552954443478
H           50.87096927664182       45.24207631267235       41.17121741039522
H           51.24273531063196       46.18447725843188       42.61562825155487
H           51.37758930045999       46.92332962521558       41.02173380294911
H           53.66599298148235       46.60118241085456       43.24596818332710
H           53.55929089958100       47.61160680121615       41.80881361279789
H           55.69379476373079       45.47525685901963       42.19627346285051
H           55.30486952341575       45.98391794038689       39.83505920583230
H           55.35875139354221       47.71860315591230       40.16294678559245
H           56.81190647225842       46.73333168534954       40.33407010883083
H           55.63680209395502       47.48195592140661       43.83945475588519
H           55.98242782639809       48.48388524947077       42.43385984933390
H           58.06323260816398       46.96975915080490       42.09471295372202
H           58.17664669990548       49.30269930114041       42.83592669560358
H           57.76803105789315       48.83698357660101       44.48574729896404
H           59.31425709304418       48.35367628676993       43.78960186602814
H           57.09214356645713       45.29959665123902       43.89608204476784
H           57.71631729546087       46.46664542139506       45.05233661981559
H           59.95382030113057       46.21174243990376       43.65823850381983
H           59.63198765567644       45.59035270796188       46.04527436770154
H           59.00838347722470       44.01690882371864       45.55035038861578
H           60.68190067852280       44.45584689011641       45.21244971054640
H           58.83026051881013       44.81237964434684       41.90499352043382
H           58.52771390971884       43.57840080501160       43.12179723297319
H           60.99743596016973       43.27739664445089       43.39486963427129
H           59.86520942314909       42.91643690508904       40.59122313263333
H           61.21809221573307       42.01193666145959       41.26636161476831
H           59.61701528051143       41.82845597791622       41.96135025118997
H           61.61625218293735       45.57921542129615       42.53852474576488
H           61.12100940868422       45.05675275645211       40.93677567863949
H           62.96175430597786       43.12992708183711       41.43009166870905
H           63.55957463481695       45.95856932051917       40.48040708689786
H           64.52333420743221       44.52568708499896       40.11603077450725
H           62.88159761719599       44.66207760841498       39.49276071672635
H           63.78062703562422       45.51781837673527       43.10520044101506
H           64.97383115192109       44.45464230013034       42.37878717137177
H           62.84795260574430       43.40018282630106       44.26830344641456
H           64.40538897952653       41.51005809824591       44.48180698433035
H           63.98629928159156       41.73528820087410       42.78599767115247
H           65.54710495238105       42.29224014346090       43.38705787926971
H           65.56202266381908       44.63013271578149       44.77522184122556
H           64.94648346804686       43.38931504127328       45.85248899882212
H           63.08395223477829       45.64932266490846       45.22196930952639
H           63.72519366585332       44.18011846033489       47.81155798206576
H           62.35005858147640       45.24395698909206       47.52448879091456
H           62.46253598025201       43.70417784962743       46.68004921806019
H           65.44607684397906       46.61837132850763       45.72933963450129
H           65.21242669718228       45.98848037892712       47.34674351652660
H           62.83082098235332       47.38329081228089       46.89900872535900
H           65.39244086137673       48.40162880392221       48.18583110503453
H           63.77318586771489       49.04493106831914       48.46948935224776
H           64.16799644005911       47.40055289000902       48.96716074020912
H           65.14629699608165       48.97005897549509       45.74348339015696
H           63.56411211301156       49.63868766442714       46.13345162520161
H           63.93849092124714       47.42469102282429       44.09071947157288
H           61.64647286220000       47.65422580951294       45.03011269103904
H           61.64875023267775       49.36894452822678       44.60917124619157
H           61.70060280121955       48.14875585211527       43.33601011820401
H           63.74273212635570       50.42301575036258       43.63888923307753
H           63.59188047113463       49.19549387516212       42.38049341456669
H           66.07137672336657       49.75353271149654       44.04331864967556
H           65.58701743561926       47.70667776341278       41.84322427800439
H           67.18718963706358       48.19871756228780       42.40020664271509
H           66.08802561529717       47.38707689762862       43.50539858007348
H           65.16292227442362       51.27514522374552       41.97927955056317
H           66.01162004055257       50.03525112782563       41.06913527591678
H           67.94515779429896       50.48118688864513       42.82508165856322
H           68.89507582613349       52.22780984120514       41.34396644250260
H           68.17320691668679       50.91221091906331       40.42144514758606
H           67.31684295216900       52.44605287355584       40.58396798782764
H           66.18022532082988       52.08665630900954       43.98929656502276
H           66.74412631742237       53.25066316166498       42.81013952454853
H           69.00233625093473       51.93219681484450       44.15306098973717
H           69.71185327764941       54.25810166011954       44.52062102080969
H           69.15527908313528       54.04507664755497       42.86188722940319
H           68.11757109409541       54.84283575544263       44.04168743407627
H           67.06449042655406       53.51129472815123       45.87759836427827
H           68.69114461779270       53.03170514421453       46.35426298649460
H           66.39189083954798       51.11568913101034       45.77959006922511
H           69.22810100890300       50.58139349886078       46.75489881380781
H           67.92410341191427       49.39558631560197       46.73615235182790
H           68.53210200917286       50.04980216755153       45.22290134934177
H           67.75989917343050       51.81641086567654       48.39001007018764
H           66.47701344744594       50.62979990429851       48.16873159753678
H           66.21260314370379       53.64582263506642       47.87949469008914
H           64.14045714757148       51.45826682601611       47.42955845410480
H           63.77504115475643       53.17863437034367       47.56383431767453
H           64.73840943359573       52.59144640910943       46.21557004538433
H           64.90647388308024       51.68575924185333       49.80253761381010
H           64.67777087606299       53.43174065582325       49.75945939145461
H           67.20845943647996       51.94213429051928       50.55454650502580
H           68.12309231585157       54.19147471516362       51.10408645320685
H           67.87497458772198       54.00966057552281       49.37164965385374
H           66.72503722027095       54.94544012627572       50.33167808639232
H           59.55052722965594       39.69617073557254       60.23425383685017
H           60.21293282282458       38.22276596674561       60.94602595053724
C           47.46450872211974       58.11933723955028       69.64478940946557
C           47.87721794993654       57.51021364103845       68.30472499276428
C           47.52606026830398       56.02542881123667       68.28975035432471
C           49.37319170107975       57.75976779809173       68.07566552964688
C           49.99666984461930       57.14309028804568       66.81520348481428
C           51.50447815097853       57.39472330603991       66.85116895043485
C           49.37821355468331       57.71345816432778       65.53563805531526
C           49.76966334028700       57.00533695347369       64.22983235450570
C           49.26740820039868       57.84421538170891       63.05382758343629
C           49.20007494581484       55.57787513357837       64.13102048967994
C           50.18314542653975       54.45078352870832       64.47533965492903
C           51.25318141584020       54.31320073040867       63.39211121024134
C           49.45397102819999       53.10514148547971       64.60882899984158
C           48.54941231992577       52.94656088004864       65.83618624746501
C           49.36445250515406       52.96559130157292       67.12833127863227
C           47.76005422519349       51.62945199478742       65.78404992781596
C           46.81381742940133       51.45427476011688       64.59356545705872
C           45.78137886053020       52.57925327138013       64.55047779133653
C           46.07745429341922       50.10917397889097       64.66454711723831
C           46.95126720477367       48.84719480150993       64.71498081390021
C           48.03246809005465       48.86655985935063       63.63507908546106
C           46.09185586230606       47.59165423038789       64.50430197517537
C           45.01888046377234       47.32023872811635       65.56608612407253
C           45.63924311065752       46.68437331355707       66.80875132842107
C           43.92397411528697       46.41097371696093       64.98908408630045
C           42.94189037648953       47.14684647158644       64.06569378129463
C           41.86859016907172       47.85884829044034       64.88932249265243
C           42.27014841616565       46.18346231607675       63.07756923053230
C           43.15773604356595       45.67965932429506       61.93120441720538
C           43.57465896717642       46.81718671757016       61.00024431179416
C           42.40568346269892       44.60618319320795       61.12973983513072
C           43.32242985912639       43.65433422499910       60.34536654425155
C           42.56660787325087       43.07648057326558       59.15003181932740
C           43.82757728310472       42.54217105723706       61.27241353047025
C           44.98357795035295       41.70064772748584       60.71764427695402
C           45.22299315607303       40.50413002486685       61.63937518463041
C           46.27595282743347       42.52318060471941       60.55676167100091
C           46.69473057427145       42.78224325979661       59.10215307190241
C           47.10833067350188       41.47791433404041       58.42487517708912
C           47.84780598404678       43.79527919792557       59.08902001125234
C           48.21627286837064       44.38566108534371       57.71927263544803
C           49.59957726807473       45.02927114178640       57.82580004720938
C           47.16135272981972       45.40905837548168       57.27711146917795
C           47.29627445697655       45.93648619238738       55.83693975265604
C           46.97571145111996       47.43216029682094       55.80704912662130
C           46.37476814812542       45.21736987742117       54.84152421557431
C           46.66523800643595       43.73012847668645       54.61790858510278
C           48.06937064757153       43.52420551957772       54.04715524279863
C           45.66682018309660       43.10272010778689       53.63313139379670
C           44.17671507289162       43.19003723313703       53.98410145616012
C           43.90000997657303       42.69330393906747       55.40295527736004
C           43.34237492590857       42.35025135467922       53.00179802157263
C           43.53831540722584       42.65231226011088       51.51002091082636
C           43.19217998633226       44.10304085637290       51.18669592690871
C           42.67732388472064       41.69717626556695       50.66825036110519
C           43.17942814666318       41.49995245465957       49.23046751292809
C           42.13136492470273       40.73323556680003       48.42415153091186
C           44.53599599152050       40.76679299457645       49.20446001754920
C           45.71054251669138       41.65339821614870       48.76227971564797
C           45.69577791130958       41.82367358237492       47.24501872885849
C           47.03850631222919       41.05443455640858       49.23948834302038
C           48.25775499379210       41.98168539497342       49.13968656431789
C           49.50334513345145       41.19487263314962       49.55023486576406
C           48.10088357124359       43.22999578692936       50.02650146591193
C           47.67639070568186       44.50878026041660       49.28492095798713
C           48.86154257567078       45.09426521742679       48.52374996901161
C           47.09233019746492       45.49873259500763       50.30045975134339
C           46.65047210009433       46.87225875832312       49.77093490185757
C           45.99436092421659       47.63294356751905       50.92264522778452
C           45.70094189147940       46.72565142896890       48.57765140611536
C           45.09162054979477       48.02030093218295       48.01595791543764
C           44.24384441841920       47.64551539720760       46.80064802491423
C           46.17645718941525       49.04350940658971       47.66165387412495
C           45.71063205569117       50.32208223533208       46.94490645400423
C           46.91915346919748       51.24357589775401       46.78402698055172
C           44.58311783142275       51.02885957028489       47.70611616888471
C           44.04184855068610       52.32229281946386       47.07313616462755
C           43.06137802267369       52.96017179171228       48.05791210438657
C           43.36742648178296       52.04626352627988       45.72332108197840
C           42.92788333109642       53.28495896726776       44.92792601115475
C           42.09745215986303       52.83668166530631       43.72475454782066
C           44.12335608622980       54.13538101836616       44.46048846470578
C           44.35906407603443       55.40347720240162       45.29300450384822
C           43.29029610922889       56.45199366349055       44.99117318021240
C           45.76016766566775       55.96175358037996       45.01452019318721
C           46.23881644199228       57.05016891125395       45.98496238206450
C           47.63839869746848       57.50803383022669       45.57598952354688
C           46.20709058264193       56.61785783413102       47.45913812700816
C           46.99606806798192       55.35021275396291       47.77742957744749
C           46.77952918859669       54.89642739481086       49.21473259742707
H           47.99610215369068       57.63420752328223       70.46145851219595
H           47.68750946759580       59.18281743219976       69.67495679129772
H           46.39688417029973       57.99153619829657       69.81013530615968
H           45.72970183143531       54.66894646977881       49.38873644687584
H           47.36475752643411       54.00186302058902       49.42011612050554
H           47.08092114781689       55.67035529264760       49.91489464934910
H           46.60500724184038       57.43809781069474       48.06205320662338
H           45.16887634300571       56.47423532898403       47.76648464209931
H           46.48410108712974       55.14370487707322       45.02747623842821
H           45.77164104478756       56.37835150141725       44.00349531677607
H           44.29187657394372       55.13271893635161       46.34831860450703
H           43.37676455007724       56.79475511260623       43.96161890388015
H           42.29236459277482       56.04238638083689       45.12842236317901
H           43.39242481043578       57.31152407148957       45.64906223056274
H           45.02319745005921       53.51834764141373       44.48312890365690
H           43.97031884816156       54.43734313532914       43.42170770224607
H           44.04951391889194       51.47437344492528       45.09091669232912
H           42.48811507280133       51.42097040865680       45.90311979099877
H           45.57076784256270       57.91401917033286       45.89278404690464
H           48.00662026104690       58.27225197763847       46.25527759291807
H           48.33457255076149       56.67336805526916       45.58720421414903