3258
 energy: -3427.469489460866 gnorm: 0.000666837209 xtb: 6.6.1 (8d0f1dd)
C          113.98027942853507       98.25908538329259       97.00197208211343
C          112.69269608652326       99.06754367325892       96.90618543209960
C          112.90252435580936      100.45376829637982       96.29678087064109
C          113.58792802505022      101.43586944054086       97.24383908501308
C          113.85626914429029      102.77593920302513       96.56497753172715
C          114.44728781372800      103.80725903996291       97.52236411551328
C          114.75192105143915      105.12619604461459       96.81822522082240
C          115.34839802114760      106.16772929225949       97.75965853939421
C          115.67701638897238      107.46850466316076       97.03334910244172
C          116.31289365176838      108.50730278165408       97.95231609454220
C          116.78835984471949      109.74038659948550       97.18834635807588
C          117.37332102880872      110.79621329844043       98.12129141331793
C          117.99573759512440      111.97011069180826       97.37031301125553
C          118.49539324258315      113.04751660853630       98.32879167169048
C          119.18882449595733      114.20263243059669       97.61311844778166
C          119.64406744412105      115.28040262035059       98.59365736017610
C          120.32032077377994      116.45775175023681       97.89624589810549
C          120.85529215911349      117.48636774073594       98.89000805290092
C          121.39828310995019      118.72817637624811       98.18519168664209
C          122.22081565381620      119.63637900607617       99.09856480039922
C          121.41872735444971      120.22262797783071      100.25663113172247
C          122.26067518825715      121.17107655488147      101.10725024685360
C          121.51573622587438      121.69698962942400      102.33495492713149
C          120.38419585186752      122.65699131033631      101.97738336928889
C          119.62719050047794      123.13376870914432      103.21408336606876
C          118.52386219219527      124.14271678823481      102.89325652604256
C          117.43157548909838      123.57172999398794      101.99239559642601
C          116.28387594470784      124.55427823498161      101.77454825790569
C          115.25231577214407      123.99084348704054      100.80093230130623
C          114.08753485101271      124.94836875306106      100.55983222866915
C          112.93616726623837      124.30060621280543       99.79022091497413
C          113.30898131892945      123.88042905937859       98.37116633539738
C          112.14942418296978      123.17793808932238       97.66897473032468
C          112.44710399914149      122.83338851166332       96.20935592602899
C          113.65774459707063      121.92132237653986       95.99785605179292
C          113.58518040267465      120.57047451950784       96.71054958106728
C          112.40242871455634      119.71667985490907       96.26198700357227
C          112.53010110523515      118.26214813098078       96.70815704803186
C          111.35253669436825      117.42881134774001       96.21223223326992
C          111.51686676544786      115.93476714069300       96.46993944687651
C          110.38456763328652      115.12931841457296       95.83610668161452
C          110.58912280522323      113.62801871410467       96.01330440754462
C          109.47253268853694      112.77965649775020       95.40658616512275
C          109.40718761877439      112.86390357107946       93.88310194005740
C          108.47460781239093      111.82353995657694       93.26106625601712
C          107.01943120207480      111.98743908253633       93.69419594037204
C          106.08723843456723      111.02171441628437       92.96510665117663
C          104.64673931476383      111.08631150340044       93.47964720146400
C          104.48607582398390      110.41321382273989       94.84023164157323
C          103.07659666650414      110.54312992032662       95.41336832489591
C          102.97996449017062      109.84595070970612       96.76779417858882
C          101.61793871656259      110.00027137162705       97.43766269383495
C          101.48764576465874      109.14378039818300       98.69821595049481
C          102.43515616031173      109.55131329282429       99.82522847981748
C          102.29737356521545      108.62898327950778      101.03334675470492
C          103.16414570486704      109.06600859084406      102.21065610656780
C          102.97086485819607      108.15663851636180      103.42133824324193
C          103.74457841554337      108.64939970754797      104.63806090195567
C          103.54085737850637      107.79178401051658      105.88523898526033
C          104.22215841247615      106.42835959705022      105.79777477013448
C          104.29930712373309      105.73870433481218      107.15736754679381
C          105.22730001995599      104.52845076535316      107.14003137893469
C          105.40736593536191      103.92097837042098      108.52882835386309
C          106.54773721593629      102.90833317227988      108.57152312406234
C          106.82331117615405      102.39396111465412      109.98207309902824
C          108.05105222884835      101.48674254199305      110.02088186110937
C          108.41089310187154      100.98950579122688      111.42140335088344
C          108.81272564037936      102.11492640392633      112.37297680290541
C          109.49998173681335      101.60734781873677      113.63915390471459
C          109.76153820221812      102.74710925494800      114.61760649103681
C          110.54179501199773      102.33006532463558      115.86101871826756
C          110.74707637411713      103.52349898815298      116.79118888531856
C          111.52118186498186      103.17765687906684      118.06002792280725
C          112.01199459530844      104.41270198112419      118.81674866772467
C          110.89144489676934      105.30726699938648      119.34176685542063
C          111.43957838821332      106.57843290516695      119.98349612379366
C          110.34690492163178      107.50224260250494      120.52026907408043
C          110.92017835147851      108.86924667486403      120.88170249207049
C          109.90258763768963      109.82515405934588      121.50288865409888
C          110.43607931532503      111.25747794463497      121.53305389031095
C          109.55599185820928      112.21161188762154      122.33623574087993
C          110.14507156407250      113.62114899124889      122.38972517586824
C          109.37825736769311      114.52660659473000      123.34961864985708
C          109.94424108762628      115.94420519354526      123.46253645062484
C          109.65345106625627      116.79769810893251      122.23168928384716
C          110.00043214386113      118.27321134442552      122.41218469715099
C          109.55173944304937      119.08614709224874      121.19887087594836
C          109.81298478032868      120.58716659555289      121.32113172798006
C          111.28946152261034      120.95041733047226      121.19855418407255
C          111.52274092430083      122.46057137463433      121.20199659469293
C          113.00526042727758      122.81697774318094      121.06687812409476
C          113.52997685660725      122.62787820497583      119.64354154776125
C          115.05055868528366      122.50317400893877      119.58708993286872
C          115.52901803831850      122.17745157700644      118.17473492991510
C          117.01728032038542      121.84443109860810      118.11254332303947
C          117.43507349661856      121.24972566658963      116.76778327749970
C          117.39764168714611      122.24058070959569      115.60779626203312
C          117.76220032900120      121.55586723677402      114.29324101232905
C          117.93745302589842      122.54292472801831      113.14327403184302
C          118.21903605800703      121.83203540081597      111.82118956971237
C          118.75185081471294      122.78230640180797      110.75304936948420
C          118.95756896809135      122.08152683594123      109.41142534306914
C          119.81647448889251      122.91829900536952      108.46728407516343
C          119.92798386603837      122.34055557330531      107.05610457859012
C          120.43925460000000      120.90185073284314      106.98416672195604
C          121.79289255015398      120.67650332200836      107.65587240404523
C          122.31394402922021      119.27198599377641      107.35987807881270
C          123.56601324521735      118.90717830450670      108.15340609894135
C          124.05941212085565      117.50370521320534      107.80471215587146
C          125.27704225639017      117.08883660220357      108.62702562610967
C          125.67281625120481      115.62507256877714      108.42597210542694
C          126.17542121947388      115.30534522624551      107.01890356294503
C          126.69044655415020      113.87003121014030      106.93057944422702
C          127.09576040735261      113.44634168919281      105.51855198621017
C          128.33187665311630      114.17733485469405      104.99724622601231
C          128.92959240545625      113.53325095100375      103.74446311373498
C          127.98837672110518      113.55784816730281      102.54187762536903
C          128.68264681683061      113.11993822283175      101.25422272790837
C          127.73743594291932      113.16174757861057      100.05595738822835
C          128.42551986641075      112.74297714568434       98.76289735554677
H          126.89125399372803      112.49842292480200      100.24511443594631
H          127.34408925592106      114.17518896307350       99.94458869519211
H          129.53703661206629      113.77468312584554      101.06252796167411
H          129.06813897718715      112.10441006821311      101.37514266901798
H          127.13743481969657      112.89992053043129      102.72615875641701
H          127.60509885527176      114.57133496245696      102.40916173061360
H          129.84632632311303      114.06960115499625      103.48372107843535
H          129.20742917746989      112.49961663453685      103.96628065194803
H          128.08054543346509      115.21670518919233      104.77572395586309
H          129.09527318181023      114.18188419545511      105.78013330907150
H          127.30339281910339      112.37307913070102      105.52542717077030
H          126.25680596828097      113.62005644104063      104.84257110154219
H          127.54332890934961      113.74825335684427      107.60326150418906
H          125.90183904256881      113.19977776911702      107.28184206920265
H          125.36602500434722      115.43515279402773      106.29796261863564
H          126.97446575625845      116.00196452522994      106.75740753462216
H          126.46171546335373      115.37758982432666      109.14119812288584
H          124.81452127904015      114.98832079526711      108.65494439763337
H          126.12358611887963      117.73251552170774      108.37454107127111
H          125.05427609923052      117.24291802964007      109.68664098207063
H          123.25303777107483      116.78748925804808      107.98253183755330
H          124.30561728586342      117.46929812999532      106.74167920437958
H          124.35672466701870      119.63296781280130      107.94618863439342
H          123.34414631810057      118.95872217902455      109.22238475393347
H          121.52786114231317      118.54841206570427      107.59125691130438
H          122.53109392106276      119.19405691064333      106.29284956180307
H          122.51176793063576      121.41699821351318      107.29611289293462
H          121.69893447780520      120.80389302546308      108.73605631260639
H          119.70393352553769      120.23448524580589      107.43570831343099
H          120.52287577813433      120.62901250391751      105.92847627924610
H          118.94377970400508      122.37717629442331      106.58160204813126
H          120.59396029986625      122.98359697611723      106.47454969347592
H          119.38586531783086      123.92115944241060      108.39217165105745
H          120.81535492118617      123.02787635367201      108.89585304467940
H          119.44064718851909      121.11955285252591      109.58992725580330
H          117.98787295342548      121.88820776596077      108.94798952141785
H          118.06213478410736      123.62140603463187      110.62890025203615
H          119.70627973258327      123.19487395903965      111.09281670332739
H          118.95585101720170      121.04243538829243      111.98810493097818
H          117.30440006896909      121.35535090488393      111.46130194154595
H          117.03832545709355      123.15642863878563      113.04376795561750
H          118.76780160256429      123.21542978617484      113.37632009214785
H          118.69575461012803      121.00196802138511      114.42587217317488
H          116.98196700663243      120.83431105971734      114.03882850790882
H          116.40263096650386      122.67777466624614      115.51741084672095
H          118.10140895492452      123.05377853295633      115.80465502373342
H          118.45240812257511      120.86298937280750      116.85620163587770
H          116.78235034843185      120.40462148720927      116.53314590010223
H          117.60644509510740      122.74206428293580      118.31595355452968
H          117.24602731641527      121.11795975154949      118.89722780943416
H          114.96324897722813      121.31776690771824      117.80605955481974
H          115.31233850793930      123.02425735673259      117.52162519550147
H          115.51502046362245      123.42912431712979      119.93501393058079
H          115.36526132357105      121.70287770745429      120.26229727120746
H          113.09982941357264      121.71950059547201      119.21756391639646
H          113.20599558860509      123.46488961099379      119.02147421030980
H          113.16213109175064      123.85437431518311      121.37176072704256
H          113.57950815507790      122.18688520195710      121.75130114708723
H          110.96340962793310      122.92275267220269      120.38472495362240
H          111.13859704974284      122.87279473675794      122.13898264315206
H          111.84753470500036      120.50665351556421      122.02557565587306
H          111.67689668567196      120.51969616079657      120.27329549322340
H          109.25981406472000      121.10355963846393      120.53116119584924
H          109.42675093699529      120.94774498031948      122.27716659386597
H          110.05563923737286      118.70824939088561      120.30617569097221
H          108.47908265286580      118.92811496900056      121.06029676094802
H          109.50247682833664      118.65678104179480      123.30669667531359
H          111.07689448911566      118.37745288291775      122.56038861824942
H          110.21273904652627      116.41067657742728      121.37795525146076
H          108.58794262452714      116.72008829816775      122.00078119275774
H          109.49358565303152      116.42759385333572      124.33412255127949
H          111.02226984351373      115.89625464231713      123.63466287622326
H          108.33418259919121      114.58646213832478      123.03584484557399
H          109.39657455806582      114.06796350568294      124.34090210014102
H          111.18579374423662      113.56056786175843      122.71666741720051
H          110.13641750079520      114.04880926422621      121.38631498419501
H          108.55504756371805      112.24813770794549      121.89854940083853
H          109.45169680846746      111.82617714966712      123.35338451290151
H          111.43797774268842      111.25719127397021      121.96900925878694
H          110.53032756553539      111.62602087069067      120.50811667619769
H          108.97363026808885      109.79502604126303      120.93090036686701
H          109.66829113327904      109.50055488808258      122.52049798495659
H          111.74861275579221      108.72614586301577      121.57832905686580
H          111.33119911850295      109.32507009530303      119.97781328427403
H          109.56971898415752      107.62747391404632      119.76310826623666
H          109.88017190395021      107.05389469819605      121.39924981491679
H          112.11887970835627      106.31384926817429      120.79665724868714
H          112.02224436576687      107.12103246139601      119.23432559753050
H          110.23383562005304      105.59173380283838      118.51917938868732
H          110.29389137499861      104.74916243326770      120.06678976588401
H          112.62856246776900      104.08680623784673      119.66006911007750
H          112.65619310158887      104.99822114821818      118.15523299900867
H          110.89653473228834      102.56701790467908      118.71751233706038
H          112.39259104974461      102.58021909141718      117.78459485569586
H          111.28644727032884      104.30550813819572      116.25080467772416
H          109.76713743454441      103.92217342094554      117.05898361761747
H          109.99622184845909      101.54586906940065      116.39080090261081
H          111.51155955883942      101.92091689632896      115.56624816760454
H          110.31597791991598      103.53368334310225      114.10052878164761
H          108.80611223371947      103.17287031553178      114.92917107986901
H          108.87329892728391      100.85218861242930      114.11847234979300
H          110.44721064295328      101.13176136016428      113.37407864080451
H          109.49461699907296      102.79111798972039      111.85298910142242
H          107.92793781796567      102.68720488206110      112.65927734491753
H          107.56594938847471      100.43706311481561      111.84141440855032
H          109.24853354299503      100.29232588527714      111.32985957235528
H          107.87364102905129      100.62398120343859      109.37345098557198
H          108.90710431321907      102.02762061039500      109.61209551743677
H          106.98221922462857      103.25182768741261      110.63884215743792
H          105.95136255102601      101.84754041075020      110.34994074365888
H          106.32404373765475      102.06956129510891      107.90747633104607
H          107.45406036978095      103.39086743004798      108.19581788491294
H          105.62852099900333      104.72443502515650      109.23641224929419
H          104.47703155443003      103.44539371835521      108.84652902185844
H          104.84034380939222      103.77557457738814      106.45042451251558
H          106.20321576128873      104.84440382750329      106.76334110211863
H          104.68142246822276      106.45297198552517      107.89258954645268
H          103.29910424274276      105.43748736872874      107.47789508207596
H          103.69439943678131      105.78671294170640      105.09025292801616
H          105.23706344904386      106.56839135348076      105.41819184808573
H          103.95721137083528      108.33338696255552      106.74035857392549
H          102.47237754918285      107.65958623342281      106.06850434627549
H          104.80903858787319      108.68105469810996      104.39666864102044
H          103.42893937673044      109.67168092849609      104.86108836144123
H          101.90814629953711      108.12183048589158      103.67155482059802
H          103.28439868577313      107.14373483218810      103.16300340325819
H          104.21553552202998      109.05979593775923      101.91373003254482
H          102.90584024494981      110.09325942960076      102.48310220412097
H          101.25316691667088      108.60939332428309      101.35042895721942
H          102.57132863029089      107.61106311537441      100.74284339830642
H          103.46791807515548      109.52085056053174       99.47462345276520
H          102.21539327465003      110.57858844826478      100.12536458983638
H          100.45943227173305      109.21199453082303       99.06433133507724
H          101.66993929273873      108.09830870164917       98.43461045259447
H          101.45198621403404      111.05018698512252       97.68944829890700
H          100.83761935783654      109.70444274325766       96.73085811660744
H          103.19186849174851      108.78208969449891       96.63302118758084
H          103.74757017857154      110.26143130408060       97.42261612326331
H          102.82509413684679      111.60113008719986       95.52674899051104
H          102.35274861471237      110.10648244008388       94.72039422698334
H          104.73694431395984      109.35392414925347       94.74574033566157
H          105.18889592425035      110.85497982275932       95.54779533009628
H          104.33492901255067      112.13159045818750       93.54901591207101
H          103.98565055886496      110.59425070701772       92.76134852281733
H          106.09939220094458      111.25681145334674       91.89743985064263
H          106.46100189010201      110.00165844657363       93.08258932543713
H          106.94464403612575      111.81338963346100       94.76714319731042
H          106.69588151043985      113.01348077878922       93.49948192764862
H          108.53198707778948      111.90692048875160       92.17154311794198
H          108.81778127812697      110.82163480872835       93.52919053074565
H          109.07147487580279      113.85954337516347       93.58673546275962
H          110.41180430431045      112.71815924295279       93.47883039420259
H          109.63324869530638      111.73612573480321       95.69270656426443
H          108.51913873893255      113.10013441769048       95.83070457946397
H          111.54089691507455      113.34412484527971       95.55889912393106
H          110.65003473362603      113.41077446876474       97.08349205306889
H          109.43218197766592      115.42425730949864       96.28509414512720
H          110.33576428942999      115.36912123339563       94.77211371867065
H          112.46853952592150      115.60119847749353       96.04878929699458
H          111.54487568479102      115.74778496353005       97.54649933091542
H          110.43534750564594      117.78168881594374       96.68929766969885
H          111.24501397598458      117.58727200472755       95.13573225538322
H          113.45772756492595      117.84517859162487       96.30936013244910
H          112.58481747165317      118.21531233554336       97.79857339800108
H          111.47223888097386      120.12866064684650       96.65731857313816
H          112.33846133063562      119.74501086187986       95.17051783293327
H          114.50717489676605      120.02865086630683       96.49077338447793
H          113.54382439799436      120.71850586105964       97.79092237139081
H          113.75984419198178      121.74267773464226       94.92334670907096
H          114.56105201244873      122.44199116974821       96.32298571976860
H          111.56344015522880      122.36256148766576       95.77259244117252
H          112.62221997993149      123.76235190814597       95.65911038915863
H          111.89639010050392      122.26853432284823       98.21801254946814
H          111.27033593007744      123.82895829268777       97.69416562420568
H          113.60419868537296      124.76194399547055       97.79611166578543
H          114.16234210948897      123.20467494440814       98.41118275786815
H          112.59587495088810      123.42088109023665      100.34284742072465
H          112.10064330977404      125.00514086022763       99.74286791602981
H          113.70790038021768      125.29159253174181      101.52662454954366
H          114.44255585417442      125.82812738579098      100.01708799820602
H          115.75047494879510      123.77299773638268       99.85418553458933
H          114.86452345320784      123.05093174311017      101.19840254320616
H          115.80433519386283      124.77488561837369      102.73125179707993
H          116.67988525347108      125.49439922234201      101.38083591152167
H          117.85634386073268      123.31457600081194      101.02070407031103
H          117.04078018242846      122.65283248268760      102.43652892529620
H          118.07122149668339      124.47743700355974      103.83076128882921
H          118.96493099039034      125.02001024620208      102.41242076032640
H          119.18952807609959      122.27011766894809      103.71970470430193
H          120.33397139057007      123.59561832909526      103.90853654486594
H          120.79489740902645      123.52036982268093      101.44721266784944
H          119.68953060387980      122.15288068339954      101.30664908257782
H          121.10693923332414      120.85213762145933      102.89403032957095
H          122.22524336880817      122.21229563635455      102.98818609875650
H          123.15521858536822      120.63782344603837      101.43951149586032
H          122.59175019965241      122.01522991892416      100.49587462510556
H          120.55503800620542      120.75230419380316       99.85223199476867
H          121.04476105306246      119.41943650538732      100.89288249498165
H          123.06644600895467      119.07033427814100       99.49756610637965
H          122.63120856064012      120.45638387504457       98.50159799400060
H          122.03313455115519      118.40772259544410       97.35570577548083
H          120.56804619771785      119.29775213750645       97.76142705079199
H          120.05331623024126      117.77195903032829       99.57443717444683
H          121.65158331192184      117.02998673829021       99.48444105805886
H          121.14752524795441      116.09080232376562       97.28322527265489
H          119.60861263695850      116.94098316143067       97.22260021992324
H          118.77937292424988      115.64296642402144       99.15618588851285
H          120.33995460144361      114.83822175912759       99.31128596282390
H          120.05460082948044      113.82022094918773       97.06659762211714
H          118.50797483732228      114.64184037094596       96.87935433347771
H          117.65140946279570      113.43430070563879       98.90484390003471
H          119.19598057092490      112.59985266808923       99.03768781590297
H          118.82810532596459      111.61281520899193       96.75780221773013
H          117.25423501899286      112.40126023522645       96.69224921114130
H          116.58568608933827      111.16918731766324       98.77944068653311
H          118.13647545226388      110.33187989266854       98.75008961503674
H          117.54674861990573      109.44115742700477       96.45888826740163
H          115.95278789780492      110.17054782520364       96.62981817818169
H          115.59119190426821      108.81153386979172       98.71390913196558
H          117.16508826090300      108.05642958465121       98.46658355636256
H          116.36376930537821      107.24638303880656       96.21266595873938
H          114.76363435145727      107.88091320983688       96.59718590623571
H          114.64587854920725      106.36985272869273       98.57294419959500
H          116.26152823662750      105.76441851009220       98.20562825225203
H          115.45370101461208      104.94061995075286       96.00189615344492
H          113.83374553115520      105.52135439554665       96.37696782261514
H          113.74649131249913      103.98427447536901       98.34223087022713
H          115.36721648971992      103.41191967959338       97.96198907721914
H          114.54503520422979      102.62257215796375       95.73017612668031
H          112.92170117252171      103.16273998527359       96.15151869095455
H          112.95112901018136      101.59317694388602       98.11811323152173
H          114.53222273201219      101.01618178353118       97.59440829288525
H          113.49297903791647      100.35798888637220       95.38157835177144
H          111.92906398948111      100.86555025246730       96.01679118553473
H          111.97594338403529       98.51454904690367       96.29336522072320
H          112.26164028932567       99.17499974324839       97.90323860202059
H          113.78242458156215       97.27904383329776       97.43120632123102
H          114.41785261739381       98.11828848275768       96.01521890591445
H          114.70575548974345       98.76617249865170       97.63200877861408
H          129.25787579224112      113.40713215032422       98.53892567808720
H          128.81161648415681      111.72916357081661       98.84695716283194
H          127.72619362136616      112.77580033204342       97.93022033101380
C          113.70352459902378      127.15206785999538      119.63495307107847
C          112.32014102489896      127.35946195017259      119.03061071799584
C          112.38532943769624      128.07182189351889      117.68158292739349
C          111.01509971426982      128.17259869496419      117.01680649568688
C          111.08379767858005      128.79844350307636      115.62528774897710
C          109.70668749240316      128.86134095102292      114.96918317234936
C          109.73945516152385      129.48139967809226      113.57369500455515
C          108.36605428602928      129.43310145856469      112.90617984374300
C          108.34726352638039      130.10711360841017      111.53631250584907
C          106.94688237476853      130.19872932288399      110.92469157319087
C          106.38836438170995      128.85842613729250      110.44814553800973
C          105.05254477251543      129.02657370271527      109.72289620031569
C          104.55580502692717      127.71943139383053      109.10844584806836
C          103.23772108823599      127.88259173300462      108.35019157730839
C          102.86195556088080      126.60744327219884      107.59597785643773
C          101.53063895538706      126.71161320285111      106.85005421778443
C          101.38620050645643      125.67453459259747      105.73125456519102
C          101.47228273370732      124.22726391554983      106.21053123751386
C          101.31888382453032      123.21884090620334      105.06905654218951
C          101.59261749212928      121.80095403580145      105.56596015344999
C          101.63237238683283      120.71784287329135      104.48619523761030