3258
 energy: -3427.463179207209 gnorm: 0.000936555921 xtb: 6.6.1 (8d0f1dd)
C          113.98095307613960       98.25965862890638       97.00303671583758
C          112.69321124016875       99.06780483494299       96.90733863989038
C          112.90255003045725      100.45357471629170       96.29668869804037
C          113.58840369719888      101.43547065945299       97.24394635789892
C          113.85677641901178      102.77557312061883       96.56470639432497
C          114.44759631124730      103.80678333286419       97.52280530624577
C          114.75244354581734      105.12570503579165       96.81808402072190
C          115.34890939203238      106.16729171771023       97.75997504399729
C          115.67713555320815      107.46823439253210       97.03311270950093
C          116.31326130456057      108.50709193052616       97.95240534061992
C          116.78818440222061      109.74046424756624       97.18788286445587
C          117.37341957773637      110.79617873395871       98.12130490026131
C          117.99548227899034      111.97033268357320       97.36976435585477
C          118.49528643105440      113.04745320396786       98.32904250783913
C          119.18896669953804      114.20283025396625       97.61343251747545
C          119.64408896551325      115.28052294904326       98.59462604017624
C          120.32039099595940      116.45773730251423       97.89627396798440
C          120.85540332643490      117.48654004023091       98.89015025887321
C          121.39846566440669      118.72829977420089       98.18461321647366
C          122.22116426438376      119.63623648688758       99.09822843623199
C          121.41857592614051      120.22241862984814      100.25630867641810
C          122.26067749201454      121.17119779180946      101.10679920476861
C          121.51545895758754      121.69674622476660      102.33454140900152
C          120.38371766378175      122.65662605772100      101.97647859005164
C          119.62719592494663      123.13342536438869      103.21370531971279
C          118.52381434311761      124.14234475166205      102.89286349987084
C          117.43127959467030      123.57110831704364      101.99221491046612
C          116.28368620169203      124.55408527718757      101.77465891219001
C          115.25237857739384      123.99042612266582      100.80069371210689
C          114.08746282895308      124.94810199885224      100.55998842337212
C          112.93610336281381      124.30013291799267       99.79050730772340
C          113.30945689637117      123.87980386917866       98.37147661990727
C          112.14923895063902      123.17751792843700       97.66985857090900
C          112.44672509189783      122.83327308711212       96.21013088603769
C          113.65748611776176      121.92158870963814       95.99847831792995
C          113.58514962629577      120.57061064531811       96.71127108164902
C          112.40191750970165      119.71739691812282       96.26209899313547
C          112.52989005321174      118.26256597693566       96.70795165348407
C          111.35161134778551      117.42962716974812       96.21226939636458
C          111.51624378124640      115.93528131714785       96.46992647796357
C          110.38367613972127      115.13009537344450       95.83554448247561
C          110.58846475613984      113.62858757253424       96.01332138097270
C          109.47163998515178      112.78034071807306       95.40599433490222
C          109.40665032515244      112.86500413172895       93.88225449185694
C          108.47429467068098      111.82382721524596       93.26086802861363
C          107.01916984456413      111.98792356620046       93.69455077015026
C          106.08735548118767      111.02166510908391       92.96540817323104
C          104.64703516262443      111.08668139354344       93.48002556749630
C          104.48652386748508      110.41329227690358       94.84058494828724
C          103.07686971534382      110.54374973285118       95.41349563279336
C          102.98059780356587      109.84614404649810       96.76793268473784
C          101.61824062852486      110.00072864199312       97.43749538422274
C          101.48694755444436      109.14392696111393       98.69772176754871
C          102.43457624079839      109.55175573508828       99.82489784763305
C          102.29661909699969      108.62872659421042      101.03276763595379
C          103.16401255286490      109.06630058948298      102.20979980548276
C          102.97071361348600      108.15605182338632      103.42021884092216
C          103.74459087577756      108.64928101370781      104.63704328521028
C          103.54057865959520      107.79184221910869      105.88475167886979
C          104.22247706250725      106.42832668305127      105.79713627869234
C          104.29920407283308      105.73907505087428      107.15736906844573
C          105.22755314838857      104.52863087891546      107.13971877474476
C          105.40713860779296      103.92127393081201      108.52904917647177
C          106.54793914365440      102.90852110479555      108.57135274237396
C          106.82316576154523      102.39425624718105      109.98237145620061
C          108.05146010181241      101.48711079075252      110.02061676662245
C          108.41052115073536      100.98969398309858      111.42156467890149
C          108.81213166682322      102.11553633337138      112.37336081699125
C          109.49942806509071      101.60718180621207      113.63968750616864
C          109.76074282344860      102.74754830515228      114.61811426054815
C          110.54116005002885      102.32988172794522      115.86165221641937
C          110.74654980742142      103.52392452504017      116.79160929743450
C          111.52058555142094      103.17748810505844      118.06078675215817
C          112.01185294780666      104.41293251564291      118.81696508944066
C          110.89065163469814      105.30727274712437      119.34194553459305
C          111.43945766272687      106.57845554046256      119.98398358781978
C          110.34627354858218      107.50212919574737      120.52104006234086
C          110.91995586271318      108.86938808306486      120.88230807438455
C          109.90178466961619      109.82525082170967      121.50352097736288
C          110.43614419338292      111.25762123603650      121.53352314624210
C          109.55593715918705      112.21170557659812      122.33723179665151
C          110.14547196054788      113.62142337962786      122.39031618105366
C          109.37830713152835      114.52696056815870      123.35046026147532
C          109.94479851319923      115.94452406955567      123.46296103379605
C          109.65372308184331      116.79773314542470      122.23161778878861
C          110.00055810710539      118.27347224622925      122.41280082376787
C          109.55158139252245      119.08603907973998      121.19906625917474
C          109.81301622892988      120.58731887317802      121.32170789838193
C          111.28972081731057      120.95020622753380      121.19840666600400
C          111.52276661130016      122.46064778805548      121.20186936259279
C          113.00540454795161      122.81637733542667      121.06638307431481
C          113.52967217798836      122.62726475876984      119.64270360342987
C          115.05042323487567      122.50219901527345      119.58665587589930
C          115.52833767541941      122.17693126033804      118.17383140117735
C          117.01661348199679      121.84309737540059      118.11184525856041
C          117.43394141439573      121.24859474835276      116.76669380421124
C          117.39700089940234      122.24061922796736      115.60737025090991
C          117.76109862380061      121.55584232789499      114.29245125129053
C          117.93720987445228      122.54355591088157      113.14288872173510
C          118.21870611570412      121.83244409018916      111.82066152398380
C          118.75197247101752      122.78333559807689      110.75297856507277
C          118.95724777804968      122.08220787334469      109.41120362306587
C          119.81699018035975      122.91889625202464      108.46742958861499
C          119.92838581299419      122.34152821922352      107.05612183817340
C          120.43978881440617      120.90257296952005      106.98395041854269
C          121.79337503735947      120.67752762126477      107.65626373057654
C          122.31408813100443      119.27272398118711      107.35984620240896
C          123.56599181234979      118.90753870706841      108.15377241647363
C          124.05930003846200      117.50401809758183      107.80434655306891
C          125.27695502393101      117.08923527379777      108.62700923317340
C          125.67192379647521      115.62518644323278      108.42608418613112
C          126.17440042394075      115.30556640970477      107.01872449808867
C          126.68954763925154      113.87007424752872      106.93078560160917
C          127.09447668936842      113.44659360193306      105.51833214235670
C          128.33100653670459      114.17747395928259      104.99756144683143
C          128.92848263809842      113.53258192832834      103.74525577480571
C          127.98743946740173      113.55747754431533      102.54252318043059
C          128.68225407959810      113.11928859780410      101.25522346506457
C          127.73671082003592      113.16172491717249      100.05722963026251
C          128.42486763940093      112.74252860658964       98.76449461926541
H          126.89014602295708      112.49879635198414      100.24658395145886
H          127.34403676918843      114.17532398069051       99.94583878935443
H          129.53611066066046      113.77400930639146      101.06366773831247
H          129.06658756275658      112.10363948128779      101.37623199952510
H          127.13602297542161      112.89968041681570      102.72626730304462
H          127.60453941497360      114.57102979892024      102.40978767768515
H          129.84477417221518      114.06867994400234      103.48437312029377
H          129.20533851669282      112.49900042823906      103.96731772716809
H          128.07949722910325      115.21657601493715      104.77608540554462
H          129.09345514686422      114.18103780156864      105.78079390805358
H          127.30147994096627      112.37328143950641      105.52493559765533
H          126.25526204148140      113.62104413391317      104.84264188309227
H          127.54255811877425      113.74902314063891      107.60272167945740
H          125.90115213341795      113.19972083018628      107.28274661368019
H          125.36500302953696      115.43536174251180      106.29769340627632
H          126.97360518774182      116.00151088581185      106.75805530820965
H          126.46082191147254      115.37757593861078      109.14071677915283
H          124.81325035723047      114.98871416237122      108.65542904291050
H          126.12292178153555      117.73207526383901      108.37318921838822
H          125.05414677627896      117.24353392721034      109.68635015240592
H          123.25294701253479      116.78706008322825      107.98079213387599
H          124.30598648897360      117.47058122120794      106.74159941796619
H          124.35607813354248      119.63254927183422      107.94541572208122
H          123.34376073807424      118.95902447932826      109.22236877535020
H          121.52729503534700      118.54914811195135      107.59008680012627
H          122.53146600971341      119.19532937665853      106.29296330496115
H          122.51138952902315      121.41725697600670      107.29552839363485
H          121.69877954529800      120.80465359483901      108.73609258522438
H          119.70425592099848      120.23445366283329      107.43457646162611
H          120.52402356140749      120.62999098982860      105.92828653342578
H          118.94448977664793      122.37787969867958      106.58105224383762
H          120.59512511974022      122.98335308185037      106.47524105161597
H          119.38611403948082      123.92099154906387      108.39222316364966
H          120.81533753376375      123.02675714288617      108.89613598484760
H          119.43949419547465      121.11981916007259      109.58995147336549
H          117.98755345558938      121.88882486375074      108.94755966216155
H          118.06248814955046      123.62215591650498      110.62939680056790
H          119.70657333845475      123.19363240762449      111.09259082911238
H          118.95507086197587      121.04256818079469      111.98756089247617
H          117.30401425350105      121.35564771669750      111.46054489393772
H          117.03851075721175      123.15706262693153      113.04292664872581
H          118.76837165112315      123.21380286599245      113.37612712710229
H          118.69417683075343      121.00160929423033      114.42503670223552
H          116.98030026284667      120.83455790536703      114.03798481287376
H          116.40218945770292      122.67788740177974      115.51717406635649
H          118.10162266029926      123.05209117339433      115.80442951205700
H          118.45093629969226      120.86150955844184      116.85468611258069
H          116.78081840638875      120.40383814310260      116.53102019636165
H          117.60544371071947      122.74035798467536      118.31430896751836
H          117.24484794036104      121.11629064011615      118.89595191379040
H          114.96176313399907      121.31809768883697      117.80394519961766
H          115.31259175272152      123.02439407053498      117.52158306853426
H          115.51407776014288      123.42825533156903      119.93332625092306
H          115.36492649499766      121.70180738325668      120.26134253739575
H          113.09889431225858      121.71939706337690      119.21587834979132
H          113.20637782094164      123.46455641019895      119.02091376518594
H          113.16199603745885      123.85354198061371      121.37019062688923
H          113.57917528675546      122.18578139824793      121.75003502073729
H          110.96303294000950      122.92298076211451      120.38501617261964
H          111.13937772037285      122.87174247930000      122.13905424164243
H          111.84724287726546      120.50672951014367      122.02529654571494
H          111.67648200483953      120.51899275436809      120.27307832342481
H          109.25909501534903      121.10350382814919      120.53224482092682
H          109.42764641388391      120.94657839478018      122.27794516126718
H          110.05521615449049      118.70784405029204      120.30626321681079
H          108.47895316436822      118.92792973001620      121.06039971394878
H          109.50153995465185      118.65636299934582      123.30617841956422
H          111.07658424905085      118.37772348196391      122.56020986551040
H          110.21274647400246      116.41092854206144      121.37753957069206
H          108.58828767623858      116.72003526092108      122.00071693176500
H          109.49341891637546      116.42784499164824      124.33329819872397
H          111.02244143692840      115.89624798629032      123.63417104945671
H          108.33451954205688      114.58621194485632      123.03630474067818
H          109.39771191939759      114.06818108815669      124.34110585572432
H          111.18578547783069      113.56040223206534      122.71734779976336
H          110.13691511837698      114.04856429553226      121.38671790257315
H          108.55531614589496      112.24782012504338      121.89958114888483
H          109.45312722882419      111.82604418492717      123.35382792352458
H          111.43761985526264      111.25648444189201      121.96965585763131
H          110.53080591948036      111.62595707797422      120.50863593717152
H          108.97312863125229      109.79508437796608      120.93137117344263
H          109.66804873826692      109.50095334469174      122.52068819163584
H          111.74774361149755      108.72587632754114      121.57909385972286
H          111.33129606709143      109.32514812786228      119.97857160107040
H          109.56914016465153      107.62736339627762      119.76411642780954
H          109.88082540389044      107.05432925013717      121.40030052713431
H          112.11798782076620      106.31348567593173      120.79703731904495
H          112.02202524961264      107.12117088778778      119.23498441975735
H          110.23330029514361      105.59215363232616      118.51946575288699
H          110.29408482577557      104.74929409200762      120.06698280588627
H          112.62725469690912      104.08706375986291      119.66026316414178
H          112.65587441635502      104.99851379581764      118.15555801824603
H          110.89506782510611      102.56863281693045      118.71783114740099
H          112.39152058692704      102.58019395843260      117.78508784317616
H          111.28568828312387      104.30574715045849      116.25095229748240
H          109.76667966684560      103.92228817098419      117.05904199481492
H          109.99455950401895      101.54699681883662      116.39096449607425
H          111.51036160614601      101.92111250803897      115.56621668863777
H          110.31477558125437      103.53398563846801      114.10066539293658
H          108.80526560391570      103.17285279417572      114.92935799976999
H          108.87220259072843      100.85293202451612      114.11849011421812
H          110.44641671268046      101.13235043253840      113.37431609589945
H          109.49390486678820      102.79160443523871      111.85340417242955
H          107.92737638334822      102.68740306985163      112.65968889947877
H          107.56521321419436      100.43831927928125      111.84084747625703
H          109.24827455702075      100.29345605403114      111.32991232414484
H          107.87410469271961      100.62481821661824      109.37307529990741
H          108.90720623537331      102.02837821149075      109.61225461148064
H          106.98200283262183      103.25202508994458      110.63889449209172
H          105.95162779496125      101.84747457263236      110.34939777245928
H          106.32414467093928      102.06994064650571      107.90776557426693
H          107.45393911899569      103.39139305904341      108.19614563943604
H          105.62840173667138      104.72465031417738      109.23627164661477
H          104.47713464169560      103.44545308262401      108.84601172802157
H          104.84039737058053      103.77594498213199      106.45060823905297
H          106.20338620166162      104.84455676736977      106.76355926448490
H          104.68141347928402      106.45306803635899      107.89235599684289
H          103.29944617733584      105.43729456494351      107.47719122275889
H          103.69483243925492      105.78649142673940      105.09037447063677
H          105.23734758148085      106.56840954793904      105.41813948222740
H          103.95688845529166      108.33317084182247      106.73972236177622
H          102.47255872380033      107.65866056953683      106.06725973836895
H          104.80896286627130      108.68078349725947      104.39624451634467
H          103.42855937633603      109.67092455082410      104.86063272490527
H          101.90864275674781      108.12134011378731      103.67116946221402
H          103.28507994449230      107.14356923626089      103.16238137996137
H          104.21545304790247      109.06015305263146      101.91374535105325
H          102.90552273554114      110.09287096940312      102.48322127459834
H          101.25314227463149      108.61003544309261      101.35097399866201
H          102.57099252671651      107.61106651059269      100.74322047462439
H          103.46763384499918      109.52170693442886       99.47545563682695
H          102.21438113730413      110.57821920107746      100.12652865573114
H          100.45953502694262      109.21335368037479       99.06439919508999
H          101.66955026091142      108.09863703654761       98.43504110994432
H          101.45202511948220      111.05023261874443       97.68951533760040
H          100.83927820889679      109.70386379144851       96.73076396452511
H          103.19176059736890      108.78233022055112       96.63294864498302
H          103.74854545390998      110.26098212804287       97.42302023254032
H          102.82598397764816      111.60144971987616       95.52721060883937
H          102.35385957348713      110.10631108663563       94.72121966194861
H          104.73693666462650      109.35401475475828       94.74602988577217
H          105.18967462406016      110.85455573208924       95.54836232455428
H          104.33587440823523      112.13172458566656       93.54991853847594
H          103.98643074331942      110.59424466020555       92.76243834941816
H          106.09980609829961      111.25759416727198       91.89849811499631
H          106.46152474738759      110.00188918767397       93.08304325434655
H          106.94473898200043      111.81454622745602       94.76770098992542
H          106.69632237497714      113.01360468708862       93.49908813037732
H          108.53140653909048      111.90778434311322       92.17196314216685
H          108.81829724370263      110.82235596961569       93.52938576175043
H          109.07006301925792      113.86029617832540       93.58736852602789
H          110.41151817645695      112.71989440168558       93.47879931164965
H          109.63247463988884      111.73701678127395       95.69267785594586
H          108.51884014470980      113.10148983949236       95.83005619928423
H          111.54041771940983      113.34468882949903       95.55931009235447
H          110.64910395137598      113.41126252442719       97.08363237997904
H          109.43186796920972      115.42470026122572       96.28480657650148
H          110.33614705098174      115.36892726293422       94.77181132668265
H          112.46786492037461      115.60187639378650       96.04872045658159
H          111.54414404706525      115.74763829803207       97.54643919531408
H          110.43514738314461      117.78213272476478       96.69038129850851
H          111.24467947553818      117.58748196604270       95.13614877633103
H          113.45700453284265      117.84535095065418       96.30853661632904
H          112.58523791322732      118.21512339382868       97.79832246004695
H          111.47203303093660      120.12859807747728       96.65815007353272
H          112.33881028549897      119.74555691047156       95.17114721348148
H          114.50660393475668      120.02811287654006       96.49118645867445
H          113.54398921180425      120.71757875334910       97.79196743620328
H          113.75921455169998      121.74186336982645       94.92459780291685
H          114.56074064238767      122.44166740984944       96.32392399865719
H          111.56319369280914      122.36273978817590       95.77334248624496
H          112.62279990506839      123.76208457218013       95.66109577406928
H          111.89584315609457      122.26827360975832       98.21928719797351
H          111.27108826195902      123.82911426119678       97.69531077738198
H          113.60366863619237      124.76116056239783       97.79680419339364
H          114.16289779707250      123.20408582513626       98.41155746367474
H          112.59522690551850      123.42042432540215      100.34319245923895
H          112.10124070271779      125.00471779738893       99.74242409967063
H          113.70825454757953      125.29146210212521      101.52662139292924
H          114.44296346205363      125.82627901552482      100.01636206025263
H          115.75077900664277      123.77362465955370       99.85406375563363
H          114.86534792151880      123.04929046148432      101.19681389562427
H          115.80437473630319      124.77482102759926      102.73122604089497
H          116.68002373190299      125.49282108203741      101.37995484838260
H          117.85558373073468      123.31408923227809      101.02044888350756
H          117.04055505493999      122.65159040491574      102.43578579442351
H          118.07138874496198      124.47704211048239      103.83015160689547
H          118.96479244057787      125.01818660064984      102.41085634640572
H          119.19013711873222      122.26969165643101      103.72012184524021
H          120.33423197024646      123.59559512374177      103.90695737984066
H          120.79449759112619      123.51972323550429      101.44713317734752
H          119.68890622330024      122.15247513854057      101.30579755939991
H          121.10700881871644      120.85190033977052      102.89417415249225
H          122.22438103500346      122.21258488751545      102.98714077413472
H          123.15483993209514      120.63782149972806      101.43879869870555
H          122.59008844282114      122.01513055245667      100.49534740593383
H          120.55485653721858      120.75164047625961       99.85162101372676
H          121.04394204203854      119.41921794146153      100.89245409000017
H          123.06620666926166      119.07003872934932       99.49730371034606
H          122.63023032888397      120.45618453651480       98.50140281139713
H          122.03277736602885      118.40683418737065       97.35562821981998
H          120.56783777718316      119.29723340252436       97.76138676172397
H          120.05317812753805      117.77173428956839       99.57447481770808
H          121.65115554314573      117.02958778820670       99.48448708050380
H          121.14728678807347      116.08995874603538       97.28420183373974
H          119.60839743836937      116.94016704457735       97.22281216745182
H          118.77923575588021      115.64260025027455       99.15725625403780
H          120.33936846325429      114.83818440859483       99.31268312501417
H          120.05453900077138      113.81994271927407       97.06794703462133
H          118.50790758264321      114.64193636373621       96.88033579629055
H          117.65144344310748      113.43378328506991       98.90557664799431
H          119.19573914327236      112.59929048151255       99.03752202256779
H          118.82746955818359      111.61303437955236       96.75777580222262
H          117.25335024699359      112.40120459749676       96.69284579014622
H          116.58616295693328      111.16886009575745       98.78008103079468
H          118.13669156182586      110.33171216594650       98.74963143831459
H          117.54645158864213      109.44159621983901       96.45911554501455
H          115.95231784086583      110.17067170903309       96.63054669354121
H          115.59200398971888      108.81124700896666       98.71444124778822
H          117.16568008458830      108.05646724301158       98.46603240425647
H          116.36404048196843      107.24627644737897       96.21326546409013
H          114.76376120478575      107.88080570144352       96.59779873103844
H          114.64669880383715      106.36963899587320       98.57344677294613
H          116.26212702983237      105.76447478266539       98.20532583918857
H          115.45483445863447      104.94017657460908       96.00302797766088
H          113.83462828233863      105.52123384255380       96.37692128059614
H          113.74683786867870      103.98434742321506       98.34261485172058
H          115.36734724066106      103.41203991860127       97.96257905000232
H          114.54645531722061      102.62253906949562       95.73136146861769
H          112.92268261733730      103.16292132863249       96.15121823723626
H          112.95270197520377      101.59326846340024       98.11898497429689
H          114.53293540806517      101.01634612310936       97.59371164306027
H          113.49374813351577      100.35797664720403       95.38254769394241
H          111.92935738015768      100.86567333935304       96.01712512809515
H          111.97689389255473       98.51508578552685       96.29468461896847
H          112.26205884614967       99.17632057259306       97.90425020447984
H          113.78219549430840       97.27993972905489       97.43218863641029
H          114.41768922274451       98.11926162109148       96.01616957189664
H          114.70655137545444       98.76648212643452       97.63310266200054
H          129.25751580256986      113.40627530704575       98.54130415798346
H          128.81015757947313      111.72851986300952       98.84876499556260
H          127.72589690080289      112.77593425375423       97.93144950882780
C          113.70188906523130      127.15192705200877      119.63396729521925
C          112.31839897633752      127.35909663124502      119.02998584447761
C          112.38415247550303      128.07149500025020      117.68089636743622
C          111.01390960222662      128.17251457143306      117.01596442272704
C          111.08327745492885      128.79837352623127      115.62433506578058
C          109.70603766421765      128.86126768993162      114.96820793697141
C          109.73939906565188      129.48113301998336      113.57244982368812
C          108.36582451360667      129.43276983377112      112.90490058639308
C          108.34705995012052      130.10671724897088      111.53478178722547
C          106.94640300931073      130.19804734643307      110.92381219220073
C          106.38818309589213      128.85758377862015      110.44690476615807
C          105.05211619753838      129.02639361313211      109.72202168053596
C          104.55535753189635      127.71894260555372      109.10791212475962
C          103.23723639175782      127.88232225872919      108.34951621763057
C          102.86172618638508      126.60660583420750      107.59581124831031
C          101.53029322202522      126.71078722926048      106.84977267884382
C          101.38617675446189      125.67406068133317      105.73074924821096
C          101.47226309442551      124.22673735549564      106.21031458054634
C          101.31799968255444      123.21862601076408      105.06845045588565
C          101.59203601515739      121.80079062167202      105.56585997639765
C          101.63167283996256      120.71734810715512      104.48585587438164