3258
 energy: -3427.507845698379 gnorm: 0.000814488514 xtb: 6.6.1 (8d0f1dd)
C          111.84010177660610      107.13160697726047      124.78437474260096
C          110.85704782213362      107.28708509242628      123.63366407689072
C          111.37415494389572      108.22846494827297      122.54981975155047
C          110.42630300079435      108.27937844073821      121.35553994035833
C          110.91980564336750      109.20980790308491      120.25141688960628
C          110.00817419383719      109.16358706658139      119.02906210090612
C          110.50122127738311      110.04594804442044      117.88728605309039
C          109.49633241823440      110.10667080768812      116.74081734366715
C          110.02224876576685      110.91288739701571      115.55742821995551
C          108.97760682461580      111.06968347261873      114.45743041814023
C          109.53769565980693      111.76872837007623      113.22327051411192
C          108.46452720572216      112.02147332812189      112.16924668742458
C          109.04811627369531      112.59516229055217      110.88285730638553
C          107.96728363352838      112.99372570644459      109.88344012498629
C          108.56488707959271      113.47766889842499      108.56668527666389
C          107.52035737994767      114.08949809137413      107.63918944669680
C          108.11040870372436      114.43542743940124      106.27663586516789
C          107.08369413593822      115.04033243422607      105.32449399384618
C          107.72525998349748      115.42225818944318      103.99388960552695
C          106.71739059320740      115.94818237873812      102.97700706046770
C          107.37965498979500      116.24445255410200      101.63486824166188
C          106.36190207247547      116.50311575957319      100.52828214538171
C          107.01977363265647      116.74667098462915       99.16931940188989
C          107.56034507882684      118.16679869832731       99.02582862412405
C          108.41650253497248      118.33172477791744       97.77316153286621
C          108.93036514022080      119.75711443449501       97.57403368768018
C          109.87972857161751      120.22814621761503       98.67310209295314
C          110.32162011087289      121.66946091455782       98.43944393579534
C          111.23343680515011      122.21808898664403       99.53567198020490
C          110.54207758432348      122.33139838573896      100.89235577309094
C          111.31453332176628      123.21747118188482      101.86445833967971
C          110.66125737150517      123.24874019766892      103.24307566355859
C          111.31063667092380      124.28601033856509      104.15384503043481
C          110.85085777811373      124.18833626862872      105.60809158413174
C          111.56302673609876      123.08409281988888      106.38546460399607
C          111.11425221259384      123.04838404402288      107.84244381001791
C          111.90216444684197      122.04849496882922      108.68374449594928
C          111.38493989886130      122.01376932272279      110.11865896585584
C          112.13366026581420      121.01517733418757      110.99231967600350
C          111.70843978898328      121.01941008555887      112.46177183810600
C          110.26216211237073      120.58146025866287      112.72669371942206
C          109.25991450614863      121.73451767533616      112.74239359669372
C          107.84918069827532      121.31584272160796      113.16003403562674
C          107.25069610829200      120.15507382402606      112.36431597407496
C          107.23448948698510      120.33030227406397      110.84658539532349
C          106.34779973733103      121.46604800864392      110.34074352955483
C          106.22226097371785      121.40492495050873      108.81927116239039
C          105.31400395378553      122.48279645449135      108.23344441379058
C          105.15952685819266      122.31202918153990      106.72308167428413
C          104.24523469730313      123.36018006187392      106.09505686638461
C          104.13342111677157      123.18633385786450      104.58120106784810
C          103.27607951984064      124.27456668407439      103.94113633630511
C          103.26363888958865      124.20405575235006      102.41540656684775
C          102.50043389778619      125.38436115283652      101.81401814928631
C          102.65503224282122      125.52634726570828      100.29283042400705
C          101.48735642147773      124.98015157322709       99.46910427323577
C          101.34725073522807      123.46048911192138       99.49448350271868
C          100.30277934358756      122.98296967416033       98.48707346693573
C          100.22803522906229      121.46096836079371       98.39672723296604
C           99.12592908038950      120.99333073672079       97.44871372243361
C           99.17226224499265      119.48485605162539       97.21596962407212
C           98.00311299875840      119.00026693009490       96.36021154473599
C           98.17565114782845      117.56838892334022       95.85139559111940
C           98.21035655996086      116.52272150688607       96.96307627384437
C           98.33131721153971      115.10666940561762       96.40434569097907
C           98.48986844780275      114.06455765691970       97.50793835054870
C           98.70119607113269      112.65814229713332       96.95161796124749
C           98.89906811599533      111.63338149083874       98.06433049165824
C           99.14477052446890      110.22040432195188       97.53846598044991
C           99.38070565970870      109.24206149323328       98.68517464099931
C           99.55632475667697      107.79398836020889       98.23675605892122
C           99.81378485260616      106.88266659346384       99.43553782290196
C           99.97864224365337      105.41497892374743       99.04647977408285
C          100.53522868546649      104.55825654409763      100.18606384661869
C           99.57950144909827      104.42205777088054      101.36954496228222
C          100.11928204686708      103.51790786151408      102.48031887594642
C          101.33589226572741      104.10808823387268      103.18990932144780
C          101.76734957097024      103.28644799994747      104.40209197179166
C          103.02618529917883      103.84335027196596      105.07149060350180
C          102.76260143040771      105.10937026545948      105.88574055566721
C          104.03612200285538      105.87788642952370      106.24647215367298
C          105.02964097331144      105.14368368046757      107.15494778081504
C          104.88089884628502      105.44531069763116      108.64685290669678
C          103.54459388350628      104.99175546099056      109.22480343132284
C          103.48526133686511      105.04046755995992      110.75050403919086
C          104.30291012325419      103.94894802260268      111.43555563131417
C          104.03401639455892      103.89438086635536      112.93773393680736
C          104.75752456619232      102.73112013621312      113.60827252663333
C          104.49058972110520      102.65506088824998      115.10866594618375
C          105.18212743815093      101.44499903257021      115.73039573952325
C          104.93330077181534      101.28783745067761      117.22950425300346
C          103.49044829571275      100.92680648250278      117.58309059476331
C          103.38306012724483      100.40496275354515      119.01390832174360
C          101.93962186642555      100.16133924974478      119.44623675555135
C          101.86826336650974       99.50293145117082      120.82325841513972
C          100.45924436112655       99.46763054994591      121.41696542398036
C           99.98001882078954      100.83458912344955      121.90451083794295
C           98.61154473487157      100.74983530020474      122.57761084252263
C           97.95458725344776      102.11281315660034      122.80036672451182
C           98.77300477971038      103.06386892662348      123.67202129785598
C           97.97787234705463      104.32414937658835      124.00893621441985
C           98.74258998218923      105.32235799722173      124.88031666031607
C           99.86738541583343      106.03776101088053      124.13396773807685
C          100.43213276246601      107.23449884805551      124.90040997608367
C          101.18081640003867      106.89236276808766      126.18997924103250
C          102.50289970221476      106.17300973849163      125.93415182057265
C          103.27187851643625      105.82641136324587      127.20919389498506
C          103.73087131376421      107.05463462628762      127.99030202097356
C          104.69106176990272      106.70276875667577      129.12433550747249
C          105.05413671447677      107.94082395339491      129.94012306977046
C          106.11706041757647      107.66383174408232      131.00047238266478
C          106.31190899582910      108.83262542297244      131.96834446386151
C          106.74365274794036      110.12174896141441      131.27295079679973
C          107.06533046313139      111.23303881482768      132.26927175385558
C          107.50658648568138      112.53386588615695      131.59603425592690
C          106.38177695495162      113.27122362281722      130.87316461322536
C          106.87670829690016      114.57634233945147      130.25284791931747
C          105.74607981670475      115.35440342655390      129.58344944146992
C          106.17512890326849      116.73040434344330      129.07298907945889
C          107.15138346385767      116.65991529765772      127.90554420990659
H          105.28263813838691      117.27752926964240      128.75653691632201
H          106.62834479330951      117.29250857193705      129.89353663952451
H          105.34599600539158      114.77028819132308      128.75088698479772
H          104.93710963089721      115.48788293964131      130.30705036763351
H          107.32530781373872      115.19812400983005      131.03259984210928
H          107.65390672697326      114.34767267874300      129.52164934468306
H          105.96695056057578      112.64040837638373      130.08544397900604
H          105.57872846661472      113.48706101679227      131.58298236434487
H          107.92355529021796      113.19838038517061      132.35821533098206
H          108.30285225770848      112.31455196209542      130.88143099741382
H          106.18794638531705      111.42830672863144      132.89137110344140
H          107.86612428846347      110.89130746793445      132.93094447589411
H          107.62681027027058      109.91865939782787      130.66340773149565
H          105.94322799282800      110.45598506493415      130.61320698365432
H          105.37874281676893      109.01146328469112      132.50906824214726
H          107.06938085691496      108.55460559859964      132.70646639781083
H          105.82832341216550      106.77925772341263      131.57474301410633
H          107.06631959771461      107.44118196020101      130.50751597196316
H          105.41890081731655      108.70752110489248      129.25610226337483
H          104.15357093558372      108.32593893321213      130.42612977270971
H          104.23129262113255      105.95455871528650      129.77530913054579
H          105.60013949666359      106.26373699263070      128.70728126651150
H          104.22760609462988      107.74814146853133      127.30750473902326
H          102.86396323757091      107.56821539521535      128.41124282967922
H          102.64807899855428      105.19910831660486      127.85107169652323
H          104.15156671884459      105.23933918461883      126.93318239738718
H          102.30860054029893      105.24666296760124      125.39294020441709
H          103.13170658829038      106.80192089956766      125.29789516336808
H          101.37992609022541      107.82735150225164      126.71760567937729
H          100.55036451262328      106.27897679017983      126.83644492068125
H          101.11589980798159      107.77372786109137      124.24096148032436
H           99.60706166455333      107.90978339098800      125.14385233529094
H          100.67121889407134      105.33751040325436      123.90684350392901
H           99.47197336394704      106.40564681160477      123.18329940644357
H           98.03652280050515      106.07393311113269      125.24468007463599
H           99.14463391758829      104.79883536562119      125.75011315195772
H           97.67565560412987      104.81638215750289      123.08129074218374
H           97.06502195805936      104.02837471203395      124.53417314204620
H           99.05578288966787      102.55669780460407      124.59834890668637
H           99.68780973827674      103.33954348049208      123.14699746421935
H           97.77497166181968      102.58549449734154      121.83266150938545
H           96.98026716072167      101.95284766635490      123.27141567806389
H           97.94587951318036      100.14841814748652      121.95193858294671
H           98.71207440531980      100.23339523536791      123.53602782054946
H          100.70823883639518      101.23429517159435      122.61214772231830
H           99.91861194707658      101.52614908778860      121.06260080276520
H           99.76122047394689       99.07957277458395      120.67033374810293
H          100.44925700584413       98.77459075969365      122.26308069784216
H          102.24721900018352       98.48096182701356      120.74074722094048
H          102.52655451135047      100.03455354070425      121.51519980581897
H          101.41002704333552      101.11499292471180      119.46257635771101
H          101.43856358602586       99.52188321212435      118.71507869792670
H          103.94298852890549       99.47107869514241      119.09676492260479
H          103.84317454997350      101.12530135535962      119.69383016347655
H          102.85014516758923      101.80374400110202      117.47066535052763
H          103.12642730593699      100.15866002607166      116.89553938467812
H          105.58696647087615      100.49403893324444      117.60022363123007
H          105.20956696741511      102.21170659173740      117.74473762912993
H          104.84551537633662      100.53875511869541      115.21904213569914
H          106.25872532409603      101.53103327783124      115.55902110853958
H          104.85158423893468      103.56754008218692      115.58978647342090
H          103.41415806499667      102.59713548277099      115.27984377654138
H          104.43875416346731      101.79463395720143      113.14247583677295
H          105.83327696993283      102.82869192749182      113.44395495103994
H          104.34951765154256      104.83386243589446      113.39632438991094
H          102.95918782754759      103.79184326815239      113.10932560249515
H          104.05293316707281      102.98138768116337      110.99217108535395
H          105.36790002944774      104.11695025838232      111.26553027140692
H          103.82129134433713      106.02007169559843      111.09705189789000
H          102.44185180488599      104.92866818608003      111.05487013406884
H          102.75282022836505      105.63151149049379      108.83040871028327
H          103.34666566778638      103.96869051071168      108.90064185986465
H          105.69003019054566      104.93581742792719      109.17386967145265
H          105.00520949719370      106.51880281807192      108.81315910077943
H          104.94063401719639      104.06780739958987      106.99902614161518
H          106.04444458007988      105.42622715415575      106.86162225523985
H          104.53791986698431      106.12756540750630      105.30811125895404
H          103.75257994525612      106.81909386143710      106.72445163631424
H          102.13044407077741      105.78007739166733      105.30115864525946
H          102.20738639846526      104.84443434583228      106.78567733678807
H          103.43702344516429      103.07216714942560      105.72661873991579
H          103.77362701051241      104.05317219945900      104.30232591104964
H          100.95383214176368      103.25006817290537      105.13106813324283
H          101.96178604773357      102.25997638978221      104.07817672362398
H          102.17372931903670      104.16446337297133      102.49247204505552
H          101.09355561053444      105.12227938156558      103.50837896231262
H           99.32575240493553      103.36156147205570      103.21605503070269
H          100.37580603531272      102.54074607668475      102.06182187751263
H           99.37609581519385      105.40832840798566      101.79061881593996
H           98.63027847791240      104.01453900002798      101.01097439874985
H          100.75614202574093      103.55867601623308       99.80040579891839
H          101.47364367350679      105.00043662755161      100.52513249709691
H           99.01758962971617      105.01159406341560       98.71745581896288
H          100.66531940579725      105.35174231392152       98.19727250558715
H          100.71984543774614      107.21882879626233       99.94478988231111
H           98.98255120759856      106.98272775016211      100.13626955475577
H           98.65896759409594      107.46238336314711       97.70823906740092
H          100.39464971999436      107.72638587269432       97.53844639844949
H          100.27248024055258      109.55239321101959       99.23514825668929
H           98.53657951496369      109.29772343358333       99.37633279857044
H           98.28239197744985      109.89575342496619       96.95079595546724
H          100.01404309548252      110.22356505454366       96.87626619361750
H           99.74962222929564      111.93994101889824       98.67891050084114
H           98.01426040931182      111.62632729909321       98.70647166512936
H           97.84033839474338      112.37297240380889       96.34142039284829
H           99.57928142430360      112.65753355460730       96.30087670596569
H           99.34589985830702      114.33473264276101       98.13010693604170
H           97.60225651735094      114.07377208367494       98.14582377074750
H           97.44880440886344      114.87229340158414       95.80336488141103
H           99.19869343686005      115.05853043989312       95.74041878176092
H           99.06252690065344      116.71580777387982       97.61495628393808
H           97.30309070621891      116.60097732670731       97.56675672134676
H           97.35056709135485      117.33599300938934       95.17244953136171
H           99.10176731977371      117.50558356619212       95.27391979964506
H           97.07735099276240      119.07279107286017       96.93606215857366
H           97.90399184597284      119.66243089389188       95.49569295739458
H          100.11012910116625      119.23356755140534       96.71501634855740
H           99.16108414562666      118.97405366279574       98.18025327771196
H           98.15057401640848      121.26879871779377       97.85769903097484
H           99.23442523275892      121.50731766391606       96.49005321462965
H          101.18717913207341      121.07907761064193       98.04060635934464
H          100.05761976234153      121.04010831747145       99.39048716465662
H           99.32389067526860      123.38204961146252       98.76404685568721
H          100.54993370061608      123.38247752629950       97.49981326821623
H          102.31035768931947      123.00798436495496       99.25006280175644
H          101.06220551651353      123.12962372413158      100.49453758256654
H          100.55679799340106      125.43621378599720       99.81691410198053
H          101.63177959318209      125.29397255019259       98.43076841201511
H          102.75471704981744      126.58743637452014      100.04910621151662
H          103.57816380622286      125.03733191596127       99.97332191150225
H          101.44138547246462      125.30392844723687      102.06867406133676
H          102.87384017493804      126.29606295477519      102.28884876837108
H          104.29468696387882      124.22713759069826      102.05464782447986
H          102.82017735261478      123.26042451918885      102.09261595036689
H          102.25281231099295      124.19619917515439      104.31707480601112
H          103.66003472569987      125.25346594295431      104.24315695865393
H          105.13531868410763      123.21680862632415      104.14469996759159
H          103.70834711888926      122.20518468331964      104.35358115113046
H          103.25055987137759      123.29782287581523      106.54427879878138
H          104.63838777350914      124.35657398979271      106.31468536316844
H          106.14534191110587      122.37343882225301      106.25485127410499
H          104.75959813691453      121.31600900892528      106.51294069045640
H          104.33116162882914      122.43069181367783      108.70949126650707
H          105.72994209322657      123.47038901568850      108.44889361770035
H          107.21681799652812      121.49512690520531      108.37397960099251
H          105.82815327928432      120.42419007534266      108.53719584308018
H          105.35552725799994      121.38413476357063      110.79238755890209
H          106.76370260616989      122.43170091219550      110.63566849366417
H          108.25104238802150      120.47991172377809      110.47962536965457
H          106.86979656904711      119.39602408810214      110.40949796903071
H          107.80595899796194      119.24311066044724      112.59809225014614
H          106.22438875164455      120.00444147779608      112.71205111370402
H          107.86077734110678      121.02403472100032      114.21429181972793
H          107.19179751420616      122.18427769874079      113.07182723162467
H          109.60857981771534      122.48951373022199      113.45184111914837
H          109.21384893935060      122.21248361723487      111.76526543929357
H          109.97516752736354      119.84594328522118      111.97554885948719
H          110.21649336845392      120.08709467840940      113.70101983974232
H          112.38060828630893      120.34192565074099      112.99497870058887
H          111.86851043028604      122.01835769783929      112.87507015746864
H          111.99313060385683      120.01232644019285      110.58346455093020
H          113.20372241323555      121.23631118872176      110.94287515587014
H          111.47456984783294      123.01213029944741      110.55599429797275
H          110.32615466219139      121.75166186216735      110.09007263774481
H          111.81585991354572      121.05337158528508      108.24159760820197
H          112.95988434670831      122.32098011651617      108.67916826142161
H          111.22857298510375      124.04601240936448      108.27570247088707
H          110.05084646892146      122.79469668217706      107.88460439862007
H          111.36931184274779      122.11534670696318      105.92140689145366
H          112.64040109867295      123.26108384398751      106.34796369072865
H          111.04194774327496      125.14144618225293      106.10870337267696
H          109.77161359623656      124.01944696029346      105.63686023882634
H          112.39603093635624      124.17311572910945      104.11682865339161
H          111.07356276868455      125.28114963681693      103.76799057018846
H          109.59883438411472      123.48283520568513      103.13414740777424
H          110.73722422665456      122.25850281775759      103.69375881830490
H          112.33846994932937      122.84812258200142      101.96042597312831
H          111.36725020439525      124.23438376830939      101.46549725908021
H          109.54207711756290      122.74810903632203      100.75088157145683
H          110.42988535072145      121.34049046382921      101.33535401892622
H          112.11611657059831      121.58052998565968       99.63110204750207
H          111.57564413559457      123.21067722293127       99.23156663532890
H          110.84376615365635      121.72794229193778       97.48194209668931
H          109.43677348939650      122.30778744655686       98.36529538391838
H          109.38101556435994      120.16291107543776       99.63919767806907
H          110.75503155532729      119.57498719593421       98.70344496255792
H          109.45386306420494      119.81392946217387       96.61514749806237
H          108.07752083636977      120.43964083569854       97.51833567535475
H          109.26879243628599      117.65013078293754       97.82091270524738
H          107.81770348197919      118.04750300419929       96.90304931151294
H          106.72365526620916      118.86832621578144       98.98423123640350
H          108.15251691166200      118.41164440986469       99.90778112941290
H          107.83437225527342      116.03049755818975       99.03749789472543
H          106.29660977003634      116.56243773887525       98.37205592698299
H          105.70637140449725      115.63110528196043      100.45702974886146
H          105.73816532112082      117.35967732021442      100.79252585676959
H          108.04515923313126      117.10258758498554      101.74346038078089
H          107.99272399186329      115.38607886560476      101.34827502428520
H          105.93354845620013      115.20191677877646      102.82996988767937
H          106.23786755672847      116.85125647737216      103.36350568907498
H          108.49533427642370      116.17893245593855      104.16693691832704
H          108.22161601047075      114.54097985221605      103.57689005200807
H          106.28179607320290      114.31756300494939      105.14950605929958
H          106.63169440914298      115.92386396659388      105.78313987276309
H          108.93511068429476      115.14013057090672      106.41005723153870
H          108.52673830313395      113.53134693171395      105.82439534173506
H          106.69287361343237      113.38708507720344      107.50907401398102
H          107.10969533071069      114.99102023604038      108.10007133926379
H          109.33895778142185      114.22048638591042      108.77166816522256
H          109.05285652308807      112.63884091029863      108.06321715491093
H          107.31305928750191      112.13904231014689      109.69166288933370
H          107.35385251981336      113.78682091293142      110.31576450037018
H          109.65304669262804      113.47392528001477      111.11975703929602
H          109.71378245791492      111.85788108574320      110.42736633337478
H          107.95290605882688      111.08473715469650      111.94222325719269
H          107.72128757490586      112.71376583271307      112.57138796189722
H          109.98344105447866      112.72273589564247      113.51776181621520
H          110.33393976878686      111.15725875900192      112.79248177110978
H          108.60674325450125      110.08303477193738      114.16953583145506
H          108.13187547697963      111.64220718452231      114.84459522460158
H          110.33244141871498      111.90295500942665      115.90358497969203
H          110.90705510167447      110.41960223392230      115.14969712886274
H          109.26510901836113      109.09031690479996      116.41001974228129
H          108.56537653990920      110.55259112649472      117.10029633496458
H          110.68606556753861      111.05763134439395      118.25881214863705
H          111.45291732373087      109.66101357136155      117.51703049405073
H          109.93274731847279      108.13174389170311      118.67625044482980
H          109.00405626710506      109.48486186561493      119.31933899961150
H          110.96840859921477      110.23355957624561      120.63250428531107
H          111.93228948586886      108.92156379305342      119.95973003144417
H          110.31270059418124      107.27072261700667      120.94961656263524
H          109.44000319218344      108.60766103729316      121.69423640762399
H          111.49520915723410      109.23226154326603      122.96626077194404
H          112.35992736800267      107.89290545285324      122.21644423303540
H          110.66120998929929      106.30690176811382      123.19229950478160
H          109.90817779518913      107.66611144283722      124.01792963465145
H          112.79364031010907      106.75211885731638      124.42201232647687
H          112.01195257811371      108.08906218014691      125.27249126180173
H          111.45227139771235      106.43681911428969      125.52723310746883
H          106.72550598233275      116.07960140008063      127.08980149639264
H          107.36745099874341      117.65920657622891      127.53261651256105
H          108.08764483962472      116.19896590468564      128.20981162827934
C          113.43177722890880      104.34148550575983      128.78007170713877
C          114.45985178545952      105.46261553739491      128.69787044923910
C          113.87330422858201      106.74424802962956      128.11439810509921
C          114.92202913986809      107.84410453213201      127.96542472137575
C          114.31031714502781      109.14878719583928      127.46328965624151
C          115.34707937196929      110.26030294429326      127.29285327272102
C          114.73009246929972      111.65905553040938      127.33179071095152
C          113.75058413279585      111.96061902591339      126.19607164377256
C          114.44166133320981      112.31960534486798      124.88254695435327
C          113.42996303630989      112.56520181095132      123.76524544952923
C          114.06189084032927      113.17495845092874      122.51689323885515
C          113.03451736884735      113.39459471679173      121.40991708826205
C          113.63343811454595      114.05245689988087      120.16921394070870
C          112.58709205764832      114.23110738195334      119.07315737111587
C          113.14419549807683      114.86925892724148      117.80309754574232
C          112.05571537953364      115.00364323315080      116.74174792829892
C          112.53178418629639      115.65698940251983      115.44744899503844
C          111.38734304128560      115.75096085726409      114.44212951792791
C          111.78713261650958      116.38927081368010      113.11595419464844
C          110.59946394318415      116.45895053125140      112.15966826568472
C          110.95455161860070      117.09390660633551      110.81957405542632