3536
 energy: -3716.267117086095 gnorm: 0.000807560955 xtb: 6.6.1 (8d0f1dd)
C           50.21209927931251       67.91752738385138       48.75184101192391
C           48.85393752218962       68.50424554986554       48.37557107276999
C           48.37703254122176       69.45711409946217       49.47165143311122
C           47.80323792222713       67.41021212972255       48.14689772200649
C           48.08228866519131       66.44374565439178       46.98721684430826
C           48.22183793187224       67.19457690152332       45.66429322029457
C           46.94640941693749       65.41197936367638       46.90672524947826
C           47.26009557522750       64.17325894814746       46.05386166650585
C           45.95918909254652       63.49524967812781       45.62682591215623
C           48.15065988440254       63.18531552129667       46.81613310871687
C           48.87370390677410       62.16132957574960       45.91925159508259
C           48.36716543263862       60.74575185498956       46.19307445822053
C           50.39411361897279       62.19365608470383       46.12912462709102
C           51.09229947276411       63.49069304570008       45.70753752113072
C           51.00895939148106       63.70271491947539       44.19616062548900
C           52.57480723979189       63.47821376575261       46.11041643206990
C           52.88581223774222       63.36072952600964       47.60766776380670
C           52.12606931938404       64.40952142066774       48.41757401392340
C           54.39066767741253       63.54022458809234       47.86130001989780
C           55.31840976040532       62.49773773988095       47.22684695398387
C           55.05106002718437       61.10363307842604       47.79309660698409
C           56.79318929212703       62.86000288947996       47.46565698018733
C           57.28819660985182       64.15098732988456       46.80179999594625
C           57.06253174354564       64.12632402658180       45.28942839943387
C           58.78595244576123       64.37207397077998       47.06328126729104
C           59.22454126075614       64.53552456826887       48.52600778455978
C           58.49475959636666       65.69295598999921       49.19722712934480
C           60.74503776264205       64.74917884179679       48.54434493959496
C           61.43539872067011       64.87479619259203       49.91457411460941
C           62.87970719507779       65.30449687756402       49.65853914106874
C           61.34691522860701       63.55301683296286       50.68866285992072
C           61.54071342919147       63.55877075925009       52.21659680388263
C           60.62886179928896       64.57816022629700       52.89895806987099
C           62.97894556498143       63.74207455356608       52.72125465832485
C           64.01040161547353       62.74213734540132       52.18454490446437
C           63.64742614099193       61.31039031202771       52.57725429221330
C           65.41578025320300       63.07822969514783       52.71187978866240
C           66.10422280519811       64.26656555023628       52.03082593034993
C           66.44179009352412       63.94831540275492       50.57317234884940
C           67.41177717759288       64.64943580361725       52.74022582267428
C           67.31665486024902       65.12280244290000       54.19819562961052
C           66.33548974374543       66.28007226771713       54.35195566531769
C           68.72865562732950       65.51907563950614       54.65392604205863
C           68.89943297847095       65.93487351605059       56.12325885960927
C           70.37497334976091       66.25762355930891       56.36208005394535
C           68.39773147750054       64.83325801248165       57.06316578338804
C           68.67190029803305       65.01823330790874       58.56239615729866
C           68.15979988439030       63.78162616886087       59.29862219686609
C           67.99929119811638       66.28549925020630       59.10059748453357
C           68.40220239273695       66.69724477927662       60.52431821358059
C           67.39025968928367       67.71838576188672       61.04273127928879
C           69.82218683114219       67.27727499627235       60.54231136507693
C           70.43170435572306       67.47951796483628       61.94172022136060
C           71.15127137390731       68.82851475171535       62.00945431166545
C           71.42577019995278       66.37207956298376       62.31898864467339
C           70.83992875252328       64.96922034299902       62.53067741143725
C           69.85725436480780       64.95977655872770       63.69973933207864
C           71.99534735540695       63.98836798692431       62.78547608532138
C           71.62724186964329       62.49802008315822       62.73554780134676
C           72.72061249633070       61.68493447669883       63.42888204335755
C           71.43237258067502       62.01741393148870       61.29141429217910
C           70.57995405603634       60.74615829884527       61.17054955879860
C           70.71463498908257       60.17142216076463       59.76060024769028
C           69.10413816773666       61.02738004308434       61.51030632694887
C           68.51227445544133       60.11228558814260       62.58664704953843
C           68.44095301304634       58.67163464850506       62.08414188460392
C           67.10093844919810       60.56385008692857       62.98673542477859
C           66.98982610225025       61.92556135080549       63.68247917615626
C           67.65354092948812       61.88889544631760       65.05890298056201
C           65.51538556941476       62.33269785799690       63.82828064988269
C           64.84604097439306       62.78959419999276       62.52667497160745
C           65.32182572418573       64.18716135535989       62.12791964841855
C           63.31629423094268       62.80445093530951       62.64437839823393
C           62.62793490381004       61.46067410339969       62.91835933316164
C           63.00960474163853       60.40451411949849       61.88427785209841
C           61.10729183133316       61.67294515503811       62.92702494481428
C           60.30701508785781       60.59656809607748       63.66961294910809
C           58.82205516211751       60.76790356290459       63.35379294103911
C           60.53704171597290       60.66285714509065       65.18952563408951
C           61.42203898864805       59.54740168324508       65.75875521458427
C           60.65083817606491       58.23136700044438       65.83764145280978
C           61.93284229105748       59.94412691912805       67.15027354527446
C           63.08693873503530       60.95795590849789       67.11055426678868
C           64.42022344773765       60.22525927210159       66.98395684431645
C           63.06330548162079       61.86280087618501       68.34797733165240
C           63.98415375291692       63.08978846530403       68.27423831176804
C           64.14243832134831       63.68500570893313       69.67288275539850
C           63.43398247141660       64.13177047563268       67.29337899861676
C           64.44239116873476       65.21571220369025       66.91785719396933
C           63.90876972083878       66.11751599200646       65.81140736302808
H           50.91533984104282       68.71348852493709       48.98874537508979
H           50.11925091886926       67.27087661037737       49.62231485138515
H           50.62602169039949       67.33439809536722       47.93373422234423
H           64.63733198018396       66.88429523803433       65.55461567967794
H           63.69187284099222       65.53652396651174       64.91712024866864
H           62.99135351216442       66.60807944885200       66.12882917431511
H           63.12709585721321       63.63012381636125       66.37398239556394
H           62.54412825207781       64.59717159618846       67.72403771588847
H           62.04333814063630       62.21908536259429       68.51167599476231
H           63.34099485660246       61.26337482626587       69.21934805278410
H           62.96440476648655       61.58755353290564       66.22467748932743
H           64.63227948673257       59.65750573311498       67.88853418586791
H           64.39825182967709       59.53294579570306       66.14497712834398
H           65.23737178474256       60.92308608463848       66.82257237026823
H           61.09388245794362       60.35813919451638       67.71499940009714
H           62.26963712518688       59.05270158009493       67.67965704937291
H           60.97391534857582       61.63141106562518       65.43826179010276
H           59.57459079503865       60.61509807783841       65.70471091831973
H           64.97371118465826       62.77530429314552       67.92634682796496
H           64.57172261516290       62.95346903490594       70.35510647373555
H           64.79666059298972       64.55351809871121       69.65983967913135
H           63.17333838519218       63.98885021807411       70.06432435069098
H           62.28220800507294       59.39656418996545       65.09787422402859
H           59.83956586839809       58.31106798369060       66.55865494262653
H           60.22622105940567       57.96945280051683       64.87159273252112
H           61.30833034559540       57.42155511565596       66.14895391463224
H           60.62009973900061       59.61263898618881       63.30580359038353
H           58.23440706152006       60.01570160263712       63.87521921906569
H           58.48153022144776       61.75060360797499       63.66971970095763
H           58.63755693936587       60.67288491017470       62.28629610139429
H           60.87851539202133       62.63851258456990       63.38477311599662
H           60.76152528600785       61.72076495263136       61.89267717110543
H           62.93176225609579       61.10814664336033       63.90663805338832
H           64.04805457113966       60.10348738718552       61.99372807260205
H           62.39264198532378       59.51720013675846       62.00503523234354
H           62.86507819816904       60.78789917162388       60.87594940518230
H           63.03949820311302       63.50322063315360       63.44014186914093
H           62.91276851572290       63.20355954406917       61.70944125972421
H           65.12018763328447       62.10333242720631       61.72169061975197
H           64.86505915518356       64.49366759334536       61.18869280467740
H           65.05267790686605       64.91739740846388       62.88892897857140
H           66.40022647633880       64.21428591942777       61.99892505620199
H           64.97372266613108       61.48018654249818       64.23848790694092
H           65.44018831461558       63.14616252162055       64.55449155331915
H           67.49770112559391       62.68427737763888       63.08096135158255
H           67.54505678726863       62.84724104668771       65.56419505191340
H           67.19980626666442       61.11935791836409       65.68024432430164
H           68.71628126000745       61.67155142260953       64.98085981746615
H           66.49286616213320       60.57413165937535       62.08058641036192
H           66.67410888761673       59.81102224706088       63.65578911891970
H           69.15993889449962       60.13815588288924       63.46898985820808
H           68.03855456759563       58.01514470401958       62.85314671063321
H           67.79527892589660       58.61692666958847       61.21000114989783
H           69.42598437805127       58.30326416891221       61.81047882371934
H           69.01572467940477       62.05968523181732       61.84550712344217
H           68.49733045495599       60.93280385776997       60.60836451380063
H           70.97437287632808       60.00491636681930       61.87305314673868
H           70.09463081398528       59.28599513506036       59.64350165837681
H           70.40411865756863       60.90952939569479       59.02279923757887
H           71.74729518583152       59.89610885849989       59.55100095940600
H           70.95849652968172       62.80379448961538       60.70069850876850
H           72.41718910765958       61.83430326095819       60.85253249052581
H           70.69610384257516       62.34356028381407       63.28700326084962
H           72.50553784402673       60.62026562008977       63.38245472735815
H           73.68414105999548       61.85842674251832       62.95272954610608
H           72.80355188806364       61.96625275521690       64.47703010912829
H           72.78430511098676       64.16665403026701       62.04940185755105
H           72.41608569633765       64.21380128796253       63.76915722483148
H           70.31494773700443       64.66807168004607       61.61975192773472
H           68.98854277519912       65.57796418925950       63.48881994047180
H           69.50413415114075       63.95336155727535       63.90492273782213
H           70.33817697907793       65.34032018260108       64.59903211201899
H           72.18979375139246       66.32014130965042       61.53754566295180
H           71.93251665551654       66.66546504406077       63.24318961403011
H           69.63285147991992       67.49826189571569       62.68699355666335
H           71.57265309276330       68.99290308511812       62.99929349943776
H           71.96197850946065       68.86448730354684       61.28393604560776
H           70.46131744569774       69.64194385317474       61.79527455273730
H           70.48503933919282       66.62777576994102       59.96812194622458
H           69.79197602067833       68.23893808169696       60.02315634200215
H           68.36489778582717       65.82359417330250       61.17866047399713
H           67.33838990497169       68.57328742825304       60.37030448495492
H           66.40218044967303       67.26803741463590       61.10738888092696
H           67.65937547092017       68.08044493027271       62.03202398896340
H           68.22302135711827       67.12497940393088       58.44008761763970
H           66.91805958171049       66.12994362046322       59.07299972911055
H           69.75308117546956       65.08132641893458       58.71647280807024
H           68.39724927935868       63.82713796220546       60.35724791803727
H           67.08068745456285       63.69729683746419       59.19587041623292
H           68.61526310933347       62.88059006663001       58.89374958850512
H           67.31791457115999       64.73848967218464       56.93761902476248
H           68.85187554791820       63.89012323998136       56.74819545351687
H           68.32200945336346       66.84837113106346       56.29408713840667
H           70.97649404811430       65.35214701504165       56.30702250925132
H           70.73723365293274       66.95183025780290       55.60596797354003
H           70.52558632350913       66.71659302427230       57.33540988705771
H           69.40042383771969       64.67736018489815       54.46383747789576
H           69.06771067493045       66.34859377600546       54.02603564454488
H           66.97435713396223       64.28659997448301       54.81347676944191
H           65.32688724335502       65.95790412713421       54.10802560733062
H           66.32877514242286       66.64680993498021       55.37457641361294
H           66.61057096240623       67.10158518202583       53.69274720985610
H           68.08293621761739       63.78586855152474       52.70206144479771
H           67.88400697132633       65.44744508251840       52.15907621651451
H           65.43566768086426       65.13161831350136       52.04210326843476
H           66.92752466725400       64.79997888037690       50.10054263618522
H           67.11784462947723       63.09736607326711       50.52036145548323
H           65.55117396598042       63.71359987587201       49.99837425612647
H           65.33695903570026       63.27450858372533       53.78286100806373
H           66.06204012026357       62.20561804627609       52.58475475471552
H           64.02607091702352       62.79737705685369       51.09369197147892
H           63.60693231381978       61.20567553591311       53.65868071875022
H           62.68085662810387       61.02575433566402       52.17083733096467
H           64.38890667542000       60.61124407857529       52.19474315903481
H           63.30951973077088       64.75768582354283       52.50166025465222
H           62.95503398146195       63.64966215272762       53.81151141367840
H           61.20899513757101       62.56824371172521       52.55060502480389
H           59.60407560877874       64.47198260141430       52.55156671431017
H           60.63905610324473       64.43008325494159       53.97720192105562
H           60.95865793141752       65.59511441106424       52.70175720879228
H           60.34728346862033       63.14625008887461       50.52137438543210
H           62.05023408875414       62.84815627243901       50.24470394563073
H           60.94492867151673       65.66732114776291       50.48352465436832
H           63.43136503708862       65.42564030065925       50.58359411740367
H           63.39388594364565       64.56416377357685       49.04743480918284
H           62.90428745983998       66.25329199471607       49.12389000387528
H           61.21394192023374       63.92030184711320       48.00564198385045
H           60.95805951610613       65.66031108310214       47.97689680398691
H           58.98690723128818       63.61328854999419       49.06411314580598
H           58.85038657603599       65.83080904819410       50.21441961364303
H           58.65674364641936       66.61850178581460       48.64705432937252
H           57.42708507080397       65.49550212451962       49.24070730392535
H           59.33263570829104       63.53076312426832       46.62895549814399
H           59.09322287529677       65.27071208552761       46.51914840015885
H           56.73828285278594       65.00501814154487       47.20694852199028
H           56.00358693057172       64.12847168569670       45.04712265731245
H           57.51084095297273       65.00253199887469       44.82465576122267
H           57.51724034595292       63.24106280215813       44.84997571774345
H           56.95006727804986       62.93327741402685       48.54374479029016
H           57.41356391493186       62.03690597791496       47.10004944242542
H           55.14154482697425       62.46457229727996       46.14927751848865
H           55.74868395648837       60.38269569202826       47.37185669643598
H           55.17040648187884       61.10368536447594       48.87447016065269
H           54.04405331143880       60.77194611854674       47.55705931712239
H           54.66800832470609       64.53097584154362       47.49553813734192
H           54.56111971445022       63.53106143078389       48.94148987303287
H           52.58578056367996       62.37176809290662       47.96375161355709
H           52.45714596141615       64.40324579287459       49.45343587350960
H           52.30112358973859       65.40303832125342       48.00920953406303
H           51.05730110350076       64.21647999759242       48.40855790772082
H           53.05069379218050       62.64703370054762       45.58740921748152
H           53.03070330988957       64.40333465624107       45.74339715947818
H           50.60127606776992       64.34263643752053       46.18504879578886
H           49.97753138476497       63.79010655081506       43.86383853820483
H           51.52901448548675       64.61425172788135       43.90737202792819
H           51.47032962994435       62.86840794798043       43.67165099296150
H           50.58312444712405       62.01211471364235       47.18760759662021
H           50.84571914610443       61.36858085152521       45.57249785395356
H           48.65718727410314       62.39182775677335       44.87136923240914
H           48.56447399980184       60.46850084418038       47.22604354800159
H           47.29531587628161       60.68280113037222       46.01901029887392
H           48.86222201301849       60.02482581535579       45.54564987592870
H           48.89097349705988       63.74969790309849       47.38157640255068
H           47.53100451311374       62.66017559007385       47.54547125597848
H           47.78987992117771       64.49458871965651       45.15106870712373
H           45.35634960295398       64.16339863263714       45.01445200394411
H           46.16535128692096       62.59907363750408       45.04805653437305
H           45.37570283616696       63.21336949761631       46.50139567500454
H           46.69139368006994       65.07751093808737       47.91548237568557
H           46.06306620203809       65.91125311423379       46.50030846356846
H           49.01951848706576       65.91681731953067       47.18809970347047
H           47.35587148297016       67.83281405922173       45.49773575702528
H           49.11453102064304       67.81467489794224       45.65723101314919
H           48.29788866218358       66.50095726474994       44.83091177463796
H           47.70694729998161       66.83042093392874       49.06895678513148
H           46.83813015163584       67.89124564133363       47.96354643774836
H           48.96764792013165       69.08778139467398       47.45633947379859
H           47.41722567131944       69.89778570860611       49.20962637226157
H           48.26483867604566       68.92886449450002       50.41585028159118
H           49.09393307384484       70.26277837885158       49.61622624831421
H           64.68343924590802       65.82691195310611       67.79031262161426
H           65.37034543211018       64.74436645177826       66.58224075612075
C           49.38722727425620       51.40591610308381       68.98501798772020
C           48.01938767552225       51.45355151151482       68.30893836290886
C           47.48341933407555       52.88192250751332       68.34889712503335
C           47.07215488454284       50.46662931045096       68.99831978706371
C           45.73626742273291       50.22950287277313       68.28362979910170
C           44.82803644017417       49.39108275336234       69.18501597116878
C           45.92011010499337       49.53727459035510       66.92084680016141
C           45.74855594946060       50.44202067925517       65.69143839101217
C           44.30172075623551       50.91066996932761       65.56705462820707
C           46.18094563128723       49.65562306556157       64.44656244413346
C           46.25439160655232       50.43733791913342       63.12662258592274
C           46.40828641454429       49.43077566844819       61.98524735005161
C           47.40297293448334       51.46141927912529       63.13277533712115
C           47.04911637286519       52.81601589631014       62.50750035677139
C           46.81729635947228       52.69984585580904       61.00090455333066
C           48.15060641338835       53.85689466956162       62.76019504465802
C           48.41667457689681       54.22734011915230       64.22442462859152
C           47.12828801558459       54.65240750049643       64.92727110398772
C           49.42575833659428       55.38157974055108       64.32366140548214
C           50.81181724775270       55.13537418105551       63.71883647447640
C           51.50651976429800       53.95082778494662       64.38878996490648
C           51.70271913054983       56.37809954482644       63.86612147233174
C           51.20361668692787       57.65496256338079       63.18149977423722
C           50.96006829214726       57.43027108068073       61.68964371323377
C           52.21175356756726       58.79925296801094       63.35952406714639
C           52.47110435376465       59.27073727704610       64.79855652626337
C           51.16667481835258       59.56820932614659       65.53517185786853
C           53.35358733661842       60.52801900840156       64.75241903766603
C           54.01664440087674       60.89319538354726       66.08966251210288
C           54.31061234973640       62.39118006443981       66.13379068740373
C           55.29694846735726       60.07740531224659       66.29755137550259
C           55.84615594225165       60.09298935987387       67.73055110461237
C           57.21211384909918       59.40856680023095       67.75598886539056
C           54.88647146934539       59.41951588709100       68.72985342767947
C           54.16903354615194       60.39126459385287       69.67501308706989
C           55.14095505458957       60.94688653411230       70.71442129236711
C           53.00530785535512       59.69389301003804       70.39223266582900
C           51.75015845762461       59.48325880029662       69.53734988681539
C           50.96246474911364       60.78460593944374       69.39897813725369
C           50.85993183111551       58.39665456974773       70.15646840162013
C           51.30829398749744       56.96281652770985       69.83080394469056
C           50.78298323833172       56.54910807029859       68.45832374138256
C           50.81494430753531       56.01678127758102       70.93327953322363
C           51.15161200373834       54.52646972028997       70.77507489449916
C           50.46971626250588       53.75879703798627       71.90733460025093
C           52.66639649013947       54.29441918048217       70.76761563920086
C           53.10118870108884       52.83942046774565       70.51004410810761
C           53.54344818466819       52.15998785810326       71.80643199358356
C           54.25017962991652       52.77502300882784       69.49184322166714
C           53.81667197810604       53.02835498503064       68.04250733838654
C           53.17791889708499       51.77313867833618       67.45017347770282
C           55.00368753699965       53.44778297282853       67.16382105384018
C           55.48820157604911       54.89053615144855       67.35057786623304
C           54.49728718188076       55.87979543103161       66.74087089595611
C           56.86259802851624       55.08241305098465       66.69165226693859
C           58.05049617090616       54.51731313568443       67.48263111060788
C           58.40005645877404       55.42784086503127       68.65860591480582
C           59.26569468596970       54.35227267012259       66.56006077216088
C           60.35389817002331       53.40877577811121       67.09333240353156
C           61.67620174319330       53.71802102108022       66.39466608398195
C           59.94159389398078       51.95027587666812       66.85928789392541
C           60.74781971100961       50.89552555523034       67.63205920267436
C           60.55302326183434       49.53500530898709       66.96338336474062
C           60.31595915610011       50.85930969795537       69.10335007442481
C           61.18310033596719       50.00632185398155       70.04372557626874
C           60.42290734845618       49.77676408001398       71.34967977844771
C           62.54060522628747       50.67662744307763       70.28636966833119
C           63.56631510894226       49.84197929396665       71.07409053665276
C           63.57685777718137       50.21136499918658       72.55828739805023
C           64.97755971957568       50.04892916686165       70.50171237208099
C           65.23278498615453       49.28379180464898       69.19524669163053
C           65.75763728074728       47.88225092203664       69.50605970224450
C           66.23059412237856       50.02399474394293       68.29429920439308
C           65.64879623361760       51.24327723119677       67.56809165166077
C           64.73619724986435       50.79579052048032       66.42618955511961
C           66.75612476801481       52.13201999188568       66.98299266057479
C           67.65073764165034       52.86837886243124       67.98635690278205
C           66.85544363696377       53.89241275393039       68.79624778685091
C           68.79355989769313       53.60253109743224       67.26597909214514
C           69.75622691145507       52.73532346444747       66.44644901337634
C           70.35459485011076       51.60991633254487       67.29074334402264
C           70.90811313793901       53.57090633087032       65.86718201021071
C           70.53076832746702       54.77913464321791       64.99688652996888
C           69.62187458305330       54.38428654095500       63.83643679001439
C           71.83105035250560       55.41930929636884       64.48946802370530
C           71.68152466415017       56.74671011896126       63.73734083909309
C           73.05454723642403       57.20561331081465       63.24367666032374
C           70.98627015268183       57.84537277790240       64.55206642659181
C           71.60732856673317       58.16889889877469       65.90844190287423
C           70.88707338351212       59.34152219442166       66.56527379053621
H           49.80555098206759       50.40205276126803       68.94692183319066
H           50.07766672278353       52.08614206325016       68.49152422011196
H           49.30276066788745       51.69729867420835       70.02970230782445
H           69.83058676678614       59.11555702857337       66.69423124846202
H           71.31415535712628       59.55903191099647       67.54184048894727
H           70.97282297435271       60.23443871109302       65.94915183553432
H           70.98773330250926       58.75723887697275       63.95020193093765
H           69.94177025000575       57.56890794844193       64.70577899821588
H           72.50084896519354       55.57494036384739       65.33848419605890
H           72.32446708601641       54.70665910716274       63.82163491874554
H           70.00838190275243       55.50589054672787       65.62461539404364
H           70.11944096784353       53.66376934994738       63.19044352022350
H           68.69932250066373       53.94060500805339       64.20136116972337
H           69.35851037354580       55.25323483231963       63.23918072787536
H           71.52092755941889       53.92937598859920       66.69973031690120
H           71.53765407399143       52.90477968473686       65.26900401188010
H           68.34242191188272       54.34611655558219       66.60709755384146
H           69.37890484132390       54.14141770957277       68.01669297486124
H           71.06293053034800       56.57279732955276       62.84970594426763
H           73.48860202268406       56.45945690910992       62.58107160480358
H           72.97279381965866       58.13995468632430       62.69201308252760