      -----------------------------------------------------------      
     |                   =====================                   |     
     |                           x T B                           |     
     |                   =====================                   |     
     |                         S. Grimme                         |     
     |          Mulliken Center for Theoretical Chemistry        |     
     |                    University of Bonn                     |     
      -----------------------------------------------------------      

   * xtb version 6.6.1 (8d0f1dd) compiled by 'stahn@M-Bot' on 2023-08-01

   xtb is free software: you can redistribute it and/or modify it under
   the terms of the GNU Lesser General Public License as published by
   the Free Software Foundation, either version 3 of the License, or
   (at your option) any later version.
   
   xtb is distributed in the hope that it will be useful,
   but WITHOUT ANY WARRANTY; without even the implied warranty of
   MERCHANTABILITY or FITNESS FOR A PARTICULAR PURPOSE.  See the
   GNU Lesser General Public License for more details.
   
   Cite this work as:
   * C. Bannwarth, E. Caldeweyher, S. Ehlert, A. Hansen, P. Pracht,
     J. Seibert, S. Spicher, S. Grimme, WIREs Comput. Mol. Sci., 2020, 11,
     e01493. DOI: 10.1002/wcms.1493
   
   for GFN2-xTB:
   * C. Bannwarth, S. Ehlert and S. Grimme., J. Chem. Theory Comput., 2019,
     15, 1652-1671. DOI: 10.1021/acs.jctc.8b01176
   for GFN1-xTB:
   * S. Grimme, C. Bannwarth, P. Shushkov, J. Chem. Theory Comput., 2017,
     13, 1989-2009. DOI: 10.1021/acs.jctc.7b00118
   for GFN0-xTB:
   * P. Pracht, E. Caldeweyher, S. Ehlert, S. Grimme, ChemRxiv, 2019, preprint.
     DOI: 10.26434/chemrxiv.8326202.v1
   for GFN-FF:
   * S. Spicher and S. Grimme, Angew. Chem. Int. Ed., 2020, 59, 15665-15673.
     DOI: 10.1002/anie.202004239
   
   for ALPB and GBSA implicit solvation:
   * S. Ehlert, M. Stahn, S. Spicher, S. Grimme, J. Chem. Theory Comput.,
     2021, 17, 4250-4261. DOI: 10.1021/acs.jctc.1c00471
   
   for DFT-D4:
   * E. Caldeweyher, C. Bannwarth and S. Grimme, J. Chem. Phys., 2017,
     147, 034112. DOI: 10.1063/1.4993215
   * E. Caldeweyher, S. Ehlert, A. Hansen, H. Neugebauer, S. Spicher,
     C. Bannwarth and S. Grimme, J. Chem. Phys., 2019, 150, 154122.
     DOI: 10.1063/1.5090222
   * E. Caldeweyher, J.-M. Mewes, S. Ehlert and S. Grimme, Phys. Chem. Chem. Phys.
     2020, 22, 8499-8512. DOI: 10.1039/D0CP00502A
   
   for sTDA-xTB:
   * S. Grimme and C. Bannwarth, J. Chem. Phys., 2016, 145, 054103.
     DOI: 10.1063/1.4959605
   
   in the mass-spec context:
   * V. Asgeirsson, C. Bauer and S. Grimme, Chem. Sci., 2017, 8, 4879.
     DOI: 10.1039/c7sc00601b
   * J. Koopman and S. Grimme, ACS Omega 2019, 4, 12, 15120-15133.
     DOI: 10.1021/acsomega.9b02011
   
   for metadynamics refer to:
   * S. Grimme, J. Chem. Theory Comput., 2019, 155, 2847-2862
     DOI: 10.1021/acs.jctc.9b00143
   
   for SPH calculations refer to:
   * S. Spicher and S. Grimme, J. Chem. Theory Comput., 2021, 17, 1701-1714
     DOI: 10.1021/acs.jctc.0c01306
   
   with help from (in alphabetical order)
   P. Atkinson, C. Bannwarth, F. Bohle, G. Brandenburg, E. Caldeweyher
   M. Checinski, S. Dohm, S. Ehlert, S. Ehrlich, I. Gerasimov, C. Hölzer
   A. Katbashev, J. Koopman, C. Lavigne, S. Lehtola, F. März, M. Müller,
   F. Musil, H. Neugebauer, J. Pisarek, C. Plett, P. Pracht, F. Pultar,
   J. Seibert, P. Shushkov, S. Spicher, M. Stahn, M. Steiner, T. Strunk,
   J. Stückrath, T. Rose, and J. Unsleber
   
 * started run on 2024/06/17 at 15:18:46.295     

           -------------------------------------------------
          |                Calculation Setup                |
           -------------------------------------------------

          program call               : /home/abt-grimme/AK-bin/xtb input.xyz --input input.inp --opt --gbsa water
          hostname                   : boar028.thch.uni-bonn.de
          coordinate file            : input.xyz
          omp threads                :                     8

   ID    Z sym.   atoms
    1    6 C      1-120, 363-482, 725-844, 1087-1206, 1449-1568, 1811-1930,
                  2173-2292, 2535-2654, 2897-3016
    2    1 H      121-362, 483-724, 845-1086, 1207-1448, 1569-1810,
                  1931-2172, 2293-2534, 2655-2896, 3017-3258

molecular fragmentation (1/2 indicates fragments):
111111111111111111111111111111111111111111111111111111111111111111111111
111111111111111111111111111111111111111111111111111111111111111111111111
111111111111111111111111111111111111111111111111111111111111111111111111
111111111111111111111111111111111111111111111111111111111111111111111111
111111111111111111111111111111111111111111111111111111111111111111111111
112222222222222222222222222222222222222222222222222222222222222222222222
222222222222222222222222222222222222222222222222222222222222222222222222
222222222222222222222222222222222222222222222222222222222222222222222222
222222222222222222222222222222222222222222222222222222222222222222222222
222222222222222222222222222222222222222222222222222222222222222222222222
222222222222222222222222222222222222222222222222222222222222222222222222
222222222222222222222222222222222222222222222222222222222222222222222222
222222222222222222222222222222222222222222222222222222222222222222222222
222222222222222222222222222222222222222222222222222222222222222222222222
222222222222222222222222222222222222222222222222222222222222222222222222
222222222222222222222222222222222222222222222222222222222222222222222222
222222222222222222222222222222222222222222222222222222222222222222222222
222222222222222222222222222222222222222222222222222222222222222222222222
222222222222222222222222222222222222222222222222222222222222222222222222
222222222222222222222222222222222222222222222222222222222222222222222222
222222222222222222222222222222222222222222222222222222222222222222222222
222222222222222222222222222222222222222222222222222222222222222222222222
222222222222222222222222222222222222222222222222222222222222222222222222
222222222222222222222222222222222222222222222222222222222222222222222222
222222222222222222222222222222222222222222222222222222222222222222222222
222222222222222222222222222222222222222222222222222222222222222222222222
222222222222222222222222222222222222222222222222222222222222222222222222
222222222222222222222222222222222222222222222222222222222222222222222222
222222222222222222222222222222222222222222222222222222222222222222222222
222222222222222222222222222222222222222222222222222222222222222222222222
222222222222222222222222222222222222222222222222222222222222222222222222
222222222222222222222222222222222222222222222222222222222222222222222222
222222222222222222222222222222222222222222222222222222222222222222222222
222222222222222222222222222222222222222222222222222222222222222222222222
222222222222222222222222222222222222222222222222222222222222222222222222
222222222222222222222222222222222222222222222222222222222222222222222222
222222222222222222222222222222222222222222222222222222222222222222222222
222222222222222222222222222222222222222222222222222222222222222222222222
222222222222222222222222222222222222222222222222222222222222222222222222
222222222222222222222222222222222222222222222222222222222222222222222222
222222222222222222222222222222222222222222222222222222222222222222222222
222222222222222222222222222222222222222222222222222222222222222222222222
222222222222222222222222222222222222222222222222222222222222222222222222
222222222222222222222222222222222222222222222222222222222222222222222222
222222222222222222222222222222222222222222222222222222222222222222222222
222222222222222222
# atoms in fragment 1/2:   362  2896
 fragment masses (1/2) :     1685.21    13481.68
CMA distance (Bohr)    :   3.901
constraining FC (au)   :  0.0500

           -------------------------------------------------
          |                 G F N 2 - x T B                 |
           -------------------------------------------------

        Reference                      10.1021/acs.jctc.8b01176
      * Hamiltonian:
        H0-scaling (s, p, d)           1.850000    2.230000    2.230000
        zeta-weighting                 0.500000
      * Dispersion:
        s8                             2.700000
        a1                             0.520000
        a2                             5.000000
        s9                             5.000000
      * Repulsion:
        kExp                           1.500000    1.000000
        rExp                           1.000000
      * Coulomb:
        alpha                          2.000000
        third order                    shell-resolved
        anisotropic                    true
        a3                             3.000000
        a5                             4.000000
        cn-shift                       1.200000
        cn-exp                         4.000000
        max-rad                        5.000000

      * Solvation model:               GBSA
        Solvent                        water
        Parameter file                 internal GFN2-xTB/GBSA
        Dielectric constant                8.0200E+01
        Reference state                gsolv [1 M gas/solution]
        Free energy shift                  1.8574E-03 Eh       1.1656E+00 kcal/mol
        Temperature                        2.9815E+02 K
        Density                            1.0000E+00 kg/L
        Solvent mass                       1.8000E+01 g/mol
        Interaction kernel             Still
        Born radius scaling (c1)           1.5524E+00
        Born radii integrator          GBOBC
        Born offset                        2.4628E-02 a0       4.6540E-02 AA
        H-bond correction              true
        Ion screening                  false
        Surface tension                    1.0000E-05 Eh       1.5569E+01 dyn/cm
        Grid points                               230 per atom
q/qsh data taken from xtbrestart
CAMM data taken from xtbrestart

          ...................................................
          :                      SETUP                      :
          :.................................................:
          :  # basis functions                6498          :
          :  # atomic orbitals                6498          :
          :  # shells                         4338          :
          :  # electrons                      6498          :
          :  max. iterations                   250          :
          :  Hamiltonian                  GFN2-xTB          :
          :  restarted?                       true          :
          :  GBSA solvation                   true          :
          :  PC potential                    false          :
          :  electronic temp.          300.0000000     K    :
          :  accuracy                    1.0000000          :
          :  -> integral cutoff          0.2500000E+02      :
          :  -> integral neglect         0.1000000E-07      :
          :  -> SCF convergence          0.1000000E-05 Eh   :
          :  -> wf. convergence          0.1000000E-03 e    :
          :  Broyden damping             0.4000000          :
          ...................................................

 iter      E             dE          RMSdq      gap      omega  full diag
   1  -3472.3198387 -0.347232E+04  0.783E-05   10.58       0.0  T
   2  -3472.3198387 -0.437649E-08  0.616E-05   10.58      28.5  T
   3  -3472.3198387 -0.639193E-08  0.316E-05   10.58      55.5  T

   *** convergence criteria satisfied after 3 iterations ***

         #    Occupation            Energy/Eh            Energy/eV
      -------------------------------------------------------------
         1        2.0000           -0.6156123             -16.7517
       ...           ...                  ...                  ...
      3243        2.0000           -0.3841842             -10.4542
      3244        2.0000           -0.3840019             -10.4492
      3245        2.0000           -0.3838369             -10.4447
      3246        2.0000           -0.3836901             -10.4407
      3247        2.0000           -0.3832832             -10.4297
      3248        2.0000           -0.3821119             -10.3978
      3249        2.0000           -0.3800903             -10.3428 (HOMO)
      3250                          0.0085915               0.2338 (LUMO)
      3251                          0.0145438               0.3958
      3252                          0.0165637               0.4507
      3253                          0.0171471               0.4666
      3254                          0.0175007               0.4762
       ...                                ...                  ...
      6498                          0.3889156              10.5829
      -------------------------------------------------------------
                  HL-Gap            0.3886818 Eh           10.5766 eV
             Fermi-level           -0.1857494 Eh           -5.0545 eV

 SCC (total)                   0 d,  0 h,  7 min,  7.709 sec
 SCC setup                      ...        0 min,  1.749 sec (  0.409%)
 Dispersion                     ...        0 min,  4.027 sec (  0.942%)
 classical contributions        ...        0 min,  0.165 sec (  0.039%)
 integral evaluation            ...        0 min,  5.923 sec (  1.385%)
 iterations                     ...        3 min,  0.849 sec ( 42.283%)
 molecular gradient             ...        3 min, 46.381 sec ( 52.929%)
 printout                       ...        0 min,  8.615 sec (  2.014%)

         :::::::::::::::::::::::::::::::::::::::::::::::::::::
         ::                     SUMMARY                     ::
         :::::::::::::::::::::::::::::::::::::::::::::::::::::
         :: total energy           -3426.818872737497 Eh    ::
         :: total w/o Gsasa/hb     -3426.730631638522 Eh    ::
         :: gradient norm              0.631822283140 Eh/a0 ::
         :: HOMO-LUMO gap             10.576571252530 eV    ::
         ::.................................................::
         :: SCC energy             -3472.319838687874 Eh    ::
         :: -> isotropic ES            0.280645139213 Eh    ::
         :: -> anisotropic ES          1.286165722284 Eh    ::
         :: -> anisotropic XC          2.129702777143 Eh    ::
         :: -> dispersion             -4.317319880453 Eh    ::
         :: -> Gsolv                  -0.025825789371 Eh    ::
         ::    -> Gelec                0.062415309604 Eh    ::
         ::    -> Gsasa               -0.086455000393 Eh    ::
         ::    -> Ghb                 -0.003643541708 Eh    ::
         ::    -> Gshift               0.001857443127 Eh    ::
         :: repulsion energy          44.781105725560 Eh    ::
         :: add. restraining           0.000000000000 Eh    ::
         :: total charge              -0.000000000011 e     ::
         :::::::::::::::::::::::::::::::::::::::::::::::::::::

      ----------------------------------------------------------- 
     |              Fast Inertial Relaxation Engine              |
      ----------------------------------------------------------- 

          ...................................................
          :                      SETUP                      :
          :.................................................:
          :   energy convergence        0.5000000E-05 Eh    :
          :   grad. convergence         0.1000000E-02 Eh/a0 :
          :   optimization log               true           :
          :   writing optlog all                1     steps :
          :   Hessian reset                    20     steps :
          :   time step scaling                 5     steps :
          :   maximium step len.        1.0000000     a0    :
          :   initial time step         0.2500000     fs    :
          :   maximum time step         1.2500000     fs    :
          :   power reset thr           0.0000000     au    :
          :   alpha parameter           0.1000000           :
          :   BFGS update                   false           :
          :   preconditioning               false           :
          ...................................................

........................................................................
.............................. CYCLE    1 ..............................
........................................................................

 iter      E             dE          RMSdq      gap      omega  full diag
   1  -3472.5537152 -0.347255E+04  0.741E-03   10.61       0.0  T
   2  -3472.5537588 -0.436671E-04  0.390E-03   10.61       1.0  T
   3  -3472.5537593 -0.419830E-06  0.181E-03   10.61       1.0  T
   4  -3472.5537594 -0.146787E-06  0.220E-04   10.61       8.0  T
   5  -3472.5537594 -0.363202E-07  0.138E-04   10.61      12.7  T
     SCC iter.                  ...        4 min, 54.629 sec
     gradient                   ...        3 min, 47.233 sec
 * total energy  : -3426.8642909 Eh     change    :  -0.4541815E-01 Eh
   gradient norm :     0.5983363 Eh/a0  converged?    E=F G=F D=F
   time step     :     0.2500000 fs     power     :   0.2344201E-05
   step length   :     0.0740482 a0     speed     :   0.7164564E-02

........................................................................
.............................. CYCLE    2 ..............................
........................................................................

 iter      E             dE          RMSdq      gap      omega  full diag
   1  -3472.8983414 -0.347290E+04  0.108E-02   10.67       0.0  T
   2  -3472.8984349 -0.934612E-04  0.571E-03   10.67       1.0  T
   3  -3472.8984358 -0.962738E-06  0.264E-03   10.67       1.0  T
   4  -3472.8984362 -0.356830E-06  0.339E-04   10.67       5.2  T
   5  -3472.8984363 -0.855130E-07  0.219E-04   10.67       8.0  T
     SCC iter.                  ...        4 min, 58.268 sec
     gradient                   ...        3 min, 46.917 sec
 * total energy  : -3426.9267690 Eh     change    :  -0.6247814E-01 Eh
   gradient norm :     0.5499219 Eh/a0  converged?    E=F G=F D=F
   time step     :     0.2500000 fs     power     :   0.3172006E-05
   step length   :     0.1090278 a0     speed     :   0.1054902E-01

........................................................................
.............................. CYCLE    3 ..............................
........................................................................

 iter      E             dE          RMSdq      gap      omega  full diag
   1  -3473.3446283 -0.347334E+04  0.139E-02   10.73       0.0  T
   2  -3473.3447803 -0.151993E-03  0.731E-03   10.73       1.0  T
   3  -3473.3447820 -0.165471E-05  0.337E-03   10.73       1.0  T
   4  -3473.3447826 -0.607977E-06  0.444E-04   10.73       3.9  T
   5  -3473.3447827 -0.142422E-06  0.289E-04   10.73       6.1  T
     SCC iter.                  ...        4 min, 57.808 sec
     gradient                   ...        3 min, 46.814 sec
 * total energy  : -3426.9998312 Eh     change    :  -0.7306214E-01 Eh
   gradient norm :     0.4894998 Eh/a0  converged?    E=F G=F D=F
   time step     :     0.2500000 fs     power     :   0.3638496E-05
   step length   :     0.1411548 a0     speed     :   0.1365749E-01

........................................................................
.............................. CYCLE    4 ..............................
........................................................................

 iter      E             dE          RMSdq      gap      omega  full diag
   1  -3473.8810372 -0.347388E+04  0.165E-02   10.79       0.0  T
   2  -3473.8812465 -0.209362E-03  0.866E-03   10.79       1.0  T
   3  -3473.8812490 -0.244611E-05  0.395E-03   10.79       1.0  T
   4  -3473.8812499 -0.869239E-06  0.536E-04   10.78       3.3  T
   5  -3473.8812501 -0.197030E-06  0.348E-04   10.78       5.0  T
     SCC iter.                  ...        4 min, 58.748 sec
     gradient                   ...        3 min, 45.664 sec
 * total energy  : -3427.0761983 Eh     change    :  -0.7636713E-01 Eh
   gradient norm :     0.4214920 Eh/a0  converged?    E=F G=F D=F
   time step     :     0.2500000 fs     power     :   0.3714173E-05
   step length   :     0.1695861 a0     speed     :   0.1640837E-01

........................................................................
.............................. CYCLE    5 ..............................
........................................................................

 iter      E             dE          RMSdq      gap      omega  full diag
   1  -3474.4936774 -0.347449E+04  0.185E-02   10.80       0.0  T
   2  -3474.4939323 -0.254931E-03  0.970E-03   10.80       1.0  T
   3  -3474.4939356 -0.328292E-05  0.435E-03   10.80       1.0  T
   4  -3474.4939367 -0.110668E-05  0.614E-04   10.80       2.9  T
   5  -3474.4939369 -0.238745E-06  0.395E-04   10.80       4.4  T
   6  -3474.4939371 -0.126184E-06  0.169E-04   10.80      10.4  T
     SCC iter.                  ...        6 min,  1.478 sec
     gradient                   ...        3 min, 50.045 sec
 * total energy  : -3427.1488220 Eh     change    :  -0.7262370E-01 Eh
   gradient norm :     0.3526019 Eh/a0  converged?    E=F G=F D=F
   time step     :     0.2500000 fs     power     :   0.3428254E-05
   step length   :     0.1935955 a0     speed     :   0.1873141E-01

........................................................................
.............................. CYCLE    6 ..............................
........................................................................

 iter      E             dE          RMSdq      gap      omega  full diag
   1  -3475.2397272 -0.347524E+04  0.219E-02   10.81       0.0  T
   2  -3475.2400681 -0.340994E-03  0.115E-02   10.81       1.0  T
   3  -3475.2400731 -0.498897E-05  0.502E-03   10.81       1.0  T
   4  -3475.2400746 -0.150945E-05  0.738E-04   10.81       2.4  T
   5  -3475.2400750 -0.304038E-06  0.464E-04   10.81       3.8  T
   6  -3475.2400751 -0.142147E-06  0.179E-04   10.81       9.8  T
     SCC iter.                  ...        5 min, 56.993 sec
     gradient                   ...        3 min, 49.131 sec
 * total energy  : -3427.2179215 Eh     change    :  -0.6909951E-01 Eh
   gradient norm :     0.2863053 Eh/a0  converged?    E=F G=F D=F
   time step     :     0.2750000 fs     power     :   0.2788677E-05
   step length   :     0.2359411 a0     speed     :   0.2075325E-01

........................................................................
.............................. CYCLE    7 ..............................
........................................................................

 iter      E             dE          RMSdq      gap      omega  full diag
   1  -3476.1136607 -0.347611E+04  0.250E-02   10.81       0.0  T
   2  -3476.1140608 -0.400093E-03  0.132E-02   10.81       1.0  T
   3  -3476.1140681 -0.731806E-05  0.545E-03   10.81       1.0  T
   4  -3476.1140701 -0.196338E-05  0.869E-04   10.81       2.0  T
   5  -3476.1140704 -0.343509E-06  0.536E-04   10.81       3.3  T
   6  -3476.1140706 -0.157963E-06  0.185E-04   10.81       9.5  T
     SCC iter.                  ...        5 min, 56.863 sec
     gradient                   ...        3 min, 48.870 sec
 * total energy  : -3427.2754084 Eh     change    :  -0.5748693E-01 Eh
   gradient norm :     0.2425099 Eh/a0  converged?    E=F G=F D=F
   time step     :     0.3025000 fs     power     :   0.1891719E-05
   step length   :     0.2780589 a0     speed     :   0.2223445E-01

........................................................................
.............................. CYCLE    8 ..............................
........................................................................

 iter      E             dE          RMSdq      gap      omega  full diag
   1  -3477.0791367 -0.347708E+04  0.274E-02   10.81       0.0  T
   2  -3477.0795194 -0.382713E-03  0.146E-02   10.81       1.0  T
   3  -3477.0795294 -0.998253E-05  0.536E-03   10.81       1.0  T
   4  -3477.0795316 -0.221349E-05  0.976E-04   10.80       1.8  T
   5  -3477.0795319 -0.308125E-06  0.583E-04   10.80       3.0  T
   6  -3477.0795321 -0.143720E-06  0.168E-04   10.80      10.4  T
     SCC iter.                  ...        6 min,  3.439 sec
     gradient                   ...        3 min, 46.263 sec
 * total energy  : -3427.3158331 Eh     change    :  -0.4042468E-01 Eh
   gradient norm :     0.2365196 Eh/a0  converged?    E=F G=F D=F
   time step     :     0.3327500 fs     power     :   0.9767528E-06
   step length   :     0.3140345 a0     speed     :   0.2282835E-01

........................................................................
.............................. CYCLE    9 ..............................
........................................................................

 iter      E             dE          RMSdq      gap      omega  full diag
   1  -3478.0599139 -0.347806E+04  0.292E-02   10.80       0.0  T
   2  -3478.0601862 -0.272204E-03  0.159E-02   10.80       1.0  T
   3  -3478.0601984 -0.122964E-04  0.450E-03   10.80       1.0  T
   4  -3478.0602004 -0.198904E-05  0.103E-03   10.80       1.7  T
   5  -3478.0602006 -0.191567E-06  0.581E-04   10.80       3.0  T
   6  -3478.0602007 -0.101400E-06  0.124E-04   10.80      14.1  T
     SCC iter.                  ...        5 min, 52.897 sec
     gradient                   ...        3 min, 45.913 sec
 * total energy  : -3427.3397159 Eh     change    :  -0.2388283E-01 Eh
   gradient norm :     0.2498771 Eh/a0  converged?    E=F G=F D=F
   time step     :     0.3660250 fs     power     :   0.3020812E-06
   step length   :     0.3380815 a0     speed     :   0.2234219E-01

........................................................................
.............................. CYCLE   10 ..............................
........................................................................

 iter      E             dE          RMSdq      gap      omega  full diag
   1  -3478.9618565 -0.347896E+04  0.314E-02   10.80       0.0  T
   2  -3478.9619853 -0.128811E-03  0.178E-02   10.80       1.0  T
   3  -3478.9619989 -0.135187E-04  0.289E-03   10.80       1.0  T
   4  -3478.9620003 -0.144034E-05  0.104E-03   10.80       1.7  T
   5  -3478.9620004 -0.605164E-07  0.511E-04   10.80       3.4  T
   6  -3478.9620004 -0.622563E-07  0.647E-05   10.80      27.1  T
     SCC iter.                  ...        5 min, 55.211 sec
     gradient                   ...        3 min, 46.854 sec
 * total energy  : -3427.3515955 Eh     change    :  -0.1187955E-01 Eh
   gradient norm :     0.2491480 Eh/a0  converged?    E=F G=F D=F
   time step     :     0.4026275 fs     power     :  -0.9985390E-07
   step length   :     0.3511799 a0     speed     :   0.2109800E-01

........................................................................
.............................. CYCLE   11 ..............................
........................................................................
 * reset velocities

 iter      E             dE          RMSdq      gap      omega  full diag
   1  -3478.9449450 -0.347894E+04  0.115E-03   10.80       0.0  T
   2  -3478.9449458 -0.773324E-06  0.663E-04   10.80       2.6  T
   3  -3478.9449458 -0.377167E-08  0.263E-04   10.80       6.7  T
     SCC iter.                  ...        2 min, 58.919 sec
     gradient                   ...        3 min, 47.180 sec
 * total energy  : -3427.3539209 Eh     change    :  -0.2325400E-02 Eh
   gradient norm :     0.2421179 Eh/a0  converged?    E=F G=F D=F
   time step     :     0.2013138 fs     power     :   0.1510830E-06
   step length   :     0.0094670 a0     speed     :   0.1137511E-02

........................................................................
.............................. CYCLE   12 ..............................
........................................................................

 iter      E             dE          RMSdq      gap      omega  full diag
   1  -3478.9112705 -0.347891E+04  0.227E-03   10.80       0.0  T
   2  -3478.9112735 -0.299174E-05  0.131E-03   10.80       1.3  T
   3  -3478.9112735 -0.182604E-07  0.518E-04   10.80       3.4  T
   4  -3478.9112735 -0.910268E-08  0.454E-05   10.80      38.6  T
     SCC iter.                  ...        3 min, 56.828 sec
     gradient                   ...        3 min, 45.731 sec
 * total energy  : -3427.3583118 Eh     change    :  -0.4390923E-02 Eh
   gradient norm :     0.2283408 Eh/a0  converged?    E=F G=F D=F
   time step     :     0.2013138 fs     power     :   0.2809241E-06
   step length   :     0.0186669 a0     speed     :   0.2242917E-02

........................................................................
.............................. CYCLE   13 ..............................
........................................................................

 iter      E             dE          RMSdq      gap      omega  full diag
   1  -3478.8618441 -0.347886E+04  0.332E-03   10.80       0.0  T
   2  -3478.8618506 -0.647916E-05  0.191E-03   10.80       1.0  T
   3  -3478.8618507 -0.446062E-07  0.764E-04   10.80       2.3  T
   4  -3478.8618507 -0.236437E-07  0.746E-05   10.80      23.5  T
     SCC iter.                  ...        4 min,  4.672 sec
     gradient                   ...        3 min, 46.539 sec
 * total energy  : -3427.3642797 Eh     change    :  -0.5967876E-02 Eh
   gradient norm :     0.2082637 Eh/a0  converged?    E=F G=F D=F
   time step     :     0.2013138 fs     power     :   0.3751831E-06
   step length   :     0.0273426 a0     speed     :   0.3285345E-02

........................................................................
.............................. CYCLE   14 ..............................
........................................................................

 iter      E             dE          RMSdq      gap      omega  full diag
   1  -3478.7979653 -0.347880E+04  0.427E-03   10.80       0.0  T
   2  -3478.7979761 -0.107795E-04  0.246E-03   10.80       1.0  T
   3  -3478.7979762 -0.773907E-07  0.986E-04   10.80       1.8  T
   4  -3478.7979762 -0.419641E-07  0.993E-05   10.80      17.6  T
     SCC iter.                  ...        4 min,  1.480 sec
     gradient                   ...        3 min, 49.307 sec
 * total energy  : -3427.3711647 Eh     change    :  -0.6884965E-02 Eh
   gradient norm :     0.1826158 Eh/a0  converged?    E=F G=F D=F
   time step     :     0.2013138 fs     power     :   0.4237326E-06
   step length   :     0.0352528 a0     speed     :   0.4235802E-02

........................................................................
.............................. CYCLE   15 ..............................
........................................................................

 iter      E             dE          RMSdq      gap      omega  full diag
   1  -3478.7213632 -0.347872E+04  0.508E-03   10.80       0.0  T
   2  -3478.7213786 -0.154254E-04  0.293E-03   10.80       1.0  T
   3  -3478.7213788 -0.112772E-06  0.118E-03   10.80       1.5  T
   4  -3478.7213788 -0.614859E-07  0.121E-04   10.80      14.5  T
   5  -3478.7213788 -0.172536E-07  0.817E-05   10.80      21.4  T
     SCC iter.                  ...        4 min, 49.903 sec
     gradient                   ...        3 min, 51.963 sec
 * total energy  : -3427.3782140 Eh     change    :  -0.7049348E-02 Eh
   gradient norm :     0.1523873 Eh/a0  converged?    E=F G=F D=F
   time step     :     0.2013138 fs     power     :   0.4218492E-06
   step length   :     0.0421805 a0     speed     :   0.5068200E-02

........................................................................
.............................. CYCLE   16 ..............................
........................................................................

 iter      E             dE          RMSdq      gap      omega  full diag
   1  -3478.6342148 -0.347863E+04  0.574E-03   10.80       0.0  T
   2  -3478.6342346 -0.198548E-04  0.331E-03   10.80       1.0  T
   3  -3478.6342348 -0.134115E-06  0.134E-03   10.80       1.3  T
   4  -3478.6342349 -0.706041E-07  0.129E-04   10.80      13.6  T
   5  -3478.6342349 -0.201576E-07  0.848E-05   10.80      20.6  T
     SCC iter.                  ...        4 min, 57.700 sec
     gradient                   ...        3 min, 45.244 sec
 * total energy  : -3427.3846726 Eh     change    :  -0.6458579E-02 Eh
   gradient norm :     0.1190205 Eh/a0  converged?    E=F G=F D=F
   time step     :     0.2013138 fs     power     :   0.3710153E-06
   step length   :     0.0479366 a0     speed     :   0.5759816E-02

........................................................................
.............................. CYCLE   17 ..............................
........................................................................

 iter      E             dE          RMSdq      gap      omega  full diag
   1  -3478.5287941 -0.347853E+04  0.689E-03   10.80       0.0  T
   2  -3478.5288230 -0.288988E-04  0.397E-03   10.80       1.0  T
   3  -3478.5288232 -0.189991E-06  0.161E-03   10.80       1.1  T
   4  -3478.5288233 -0.987748E-07  0.153E-04   10.80      11.5  T
   5  -3478.5288233 -0.286609E-07  0.988E-05   10.80      17.7  T
     SCC iter.                  ...        4 min, 57.282 sec
     gradient                   ...        3 min, 45.333 sec
 * total energy  : -3427.3903303 Eh     change    :  -0.5657706E-02 Eh
   gradient norm :     0.0813167 Eh/a0  converged?    E=F G=F D=F
   time step     :     0.2214451 fs     power     :   0.2672439E-06
   step length   :     0.0580845 a0     speed     :   0.6344677E-02

........................................................................
.............................. CYCLE   18 ..............................
........................................................................

 iter      E             dE          RMSdq      gap      omega  full diag
   1  -3478.4067501 -0.347841E+04  0.789E-03   10.80       0.0  T
   2  -3478.4067887 -0.385964E-04  0.455E-03   10.80       1.0  T
   3  -3478.4067889 -0.251617E-06  0.187E-03   10.80       1.0  T
   4  -3478.4067891 -0.128702E-06  0.175E-04   10.80      10.0  T
   5  -3478.4067891 -0.379737E-07  0.111E-04   10.80      15.7  T
     SCC iter.                  ...        5 min,  1.133 sec
     gradient                   ...        3 min, 45.189 sec
 * total energy  : -3427.3940530 Eh     change    :  -0.3722687E-02 Eh
   gradient norm :     0.0487344 Eh/a0  converged?    E=F G=F D=F
   time step     :     0.2435896 fs     power     :   0.1164425E-06
   step length   :     0.0679058 a0     speed     :   0.6743158E-02

........................................................................
.............................. CYCLE   19 ..............................
........................................................................

 iter      E             dE          RMSdq      gap      omega  full diag
   1  -3478.2777059 -0.347828E+04  0.827E-03   10.80       0.0  T
   2  -3478.2777493 -0.433291E-04  0.479E-03   10.80       1.0  T
   3  -3478.2777495 -0.285242E-06  0.198E-03   10.80       1.0  T
   4  -3478.2777497 -0.140848E-06  0.185E-04   10.80       9.5  T
   5  -3478.2777497 -0.425307E-07  0.113E-04   10.80      15.4  T
     SCC iter.                  ...        4 min, 49.488 sec
     gradient                   ...        3 min, 45.783 sec
 * total energy  : -3427.3949287 Eh     change    :  -0.8757109E-03 Eh
   gradient norm :     0.0544270 Eh/a0  converged?    E=F G=F D=F
   time step     :     0.2679486 fs     power     :  -0.4416465E-07
   step length   :     0.0746630 a0     speed     :   0.6740144E-02

........................................................................
.............................. CYCLE   20 ..............................
........................................................................
 * reset velocities

 iter      E             dE          RMSdq      gap      omega  full diag
   1  -3478.2788988 -0.347828E+04  0.119E-04   10.80       0.0  T
   2  -3478.2788988 -0.571799E-08  0.773E-05   10.80      22.7  T
   3  -3478.2788989 -0.346654E-08  0.339E-05   10.80      51.6  T
     SCC iter.                  ...        2 min, 56.755 sec
     gradient                   ...        3 min, 45.762 sec
 * total energy  : -3427.3949784 Eh     change    :  -0.4969031E-04 Eh
   gradient norm :     0.0540689 Eh/a0  converged?    E=F G=F D=T
   time step     :     0.1339743 fs     power     :   0.4904994E-08
   step length   :     0.0009159 a0     speed     :   0.1653717E-03
 * RMSD in coord.:     0.0348297 a0     energy gain  -0.5761056E+00 Eh

........................................................................
.............................. CYCLE   21 ..............................
........................................................................

 iter      E             dE          RMSdq      gap      omega  full diag
   1  -3478.2849781 -0.347828E+04  0.545E-04   10.80       0.0  T
   2  -3478.2849782 -0.824066E-07  0.311E-04   10.80       5.6  T
   3  -3478.2849782 -0.762611E-09  0.829E-05   10.80      21.1  T
     SCC iter.                  ...        3 min,  3.813 sec
     gradient                   ...        3 min, 45.649 sec
 * total energy  : -3427.3952378 Eh     change    :  -0.2593999E-03 Eh
   gradient norm :     0.0523310 Eh/a0  converged?    E=F G=F D=F
   time step     :     0.2500000 fs     power     :   0.1353928E-07
   step length   :     0.0048775 a0     speed     :   0.4719269E-03

........................................................................
.............................. CYCLE   22 ..............................
........................................................................

 iter      E             dE          RMSdq      gap      omega  full diag
   1  -3478.2946971 -0.347829E+04  0.888E-04   10.80       0.0  T
   2  -3478.2946973 -0.210758E-06  0.507E-04   10.80       3.5  T
   3  -3478.2946973 -0.384762E-08  0.133E-04   10.80      13.1  T
     SCC iter.                  ...        2 min, 58.068 sec
     gradient                   ...        3 min, 45.486 sec
 * total energy  : -3427.3956424 Eh     change    :  -0.4045989E-03 Eh
   gradient norm :     0.0496927 Eh/a0  converged?    E=F G=F D=F
   time step     :     0.2500000 fs     power     :   0.2088629E-07
   step length   :     0.0079428 a0     speed     :   0.7685094E-03

........................................................................
.............................. CYCLE   23 ..............................
........................................................................

 iter      E             dE          RMSdq      gap      omega  full diag
   1  -3478.3075669 -0.347831E+04  0.119E-03   10.80       0.0  T
   2  -3478.3075673 -0.368182E-06  0.682E-04   10.80       2.6  T
   3  -3478.3075673 -0.891487E-08  0.177E-04   10.80       9.9  T
     SCC iter.                  ...        2 min, 57.491 sec
     gradient                   ...        3 min, 45.423 sec
 * total energy  : -3427.3961614 Eh     change    :  -0.5190658E-03 Eh
   gradient norm :     0.0464805 Eh/a0  converged?    E=F G=F D=F
   time step     :     0.2500000 fs     power     :   0.2650848E-07
   step length   :     0.0108473 a0     speed     :   0.1049538E-02

........................................................................
.............................. CYCLE   24 ..............................
........................................................................

 iter      E             dE          RMSdq      gap      omega  full diag
   1  -3478.3229021 -0.347832E+04  0.145E-03   10.80       0.0  T
   2  -3478.3229026 -0.517832E-06  0.832E-04   10.80       2.1  T
   3  -3478.3229026 -0.148871E-07  0.209E-04   10.80       8.4  T
     SCC iter.                  ...        2 min, 59.306 sec
     gradient                   ...        3 min, 43.884 sec
 * total energy  : -3427.3967604 Eh     change    :  -0.5989106E-03 Eh
   gradient norm :     0.0431492 Eh/a0  converged?    E=F G=F D=F
   time step     :     0.2500000 fs     power     :   0.3029779E-07
   step length   :     0.0135451 a0     speed     :   0.1310564E-02

........................................................................
.............................. CYCLE   25 ..............................
........................................................................

 iter      E             dE          RMSdq      gap      omega  full diag
   1  -3478.3398235 -0.347834E+04  0.166E-03   10.80       0.0  T
   2  -3478.3398241 -0.620037E-06  0.949E-04   10.80       1.8  T
   3  -3478.3398241 -0.208779E-07  0.228E-04   10.80       7.7  T
     SCC iter.                  ...        2 min, 55.877 sec
     gradient                   ...        3 min, 50.772 sec
 * total energy  : -3427.3974077 Eh     change    :  -0.6473023E-03 Eh
   gradient norm :     0.0402263 Eh/a0  converged?    E=F G=F D=F
   time step     :     0.2500000 fs     power     :   0.3251616E-07
   step length   :     0.0160047 a0     speed     :   0.1548543E-02

........................................................................
.............................. CYCLE   26 ..............................
........................................................................

 iter      E             dE          RMSdq      gap      omega  full diag
   1  -3478.3591695 -0.347836E+04  0.199E-03   10.80       0.0  T
   2  -3478.3591703 -0.788162E-06  0.114E-03   10.80       1.5  T
   3  -3478.3591704 -0.307300E-07  0.254E-04   10.80       6.9  T
   4  -3478.3591704 -0.119667E-07  0.633E-05   10.80      27.7  T
     SCC iter.                  ...        3 min, 59.151 sec
     gradient                   ...        3 min, 45.738 sec
 * total energy  : -3427.3981542 Eh     change    :  -0.7465570E-03 Eh
   gradient norm :     0.0380184 Eh/a0  converged?    E=F G=F D=F
   time step     :     0.2750000 fs     power     :   0.3379828E-07
   step length   :     0.0202835 a0     speed     :   0.1784129E-02

........................................................................
.............................. CYCLE   27 ..............................
........................................................................

 iter      E             dE          RMSdq      gap      omega  full diag
   1  -3478.3796817 -0.347838E+04  0.229E-03   10.80       0.0  T
   2  -3478.3796826 -0.857028E-06  0.131E-03   10.80       1.3  T
   3  -3478.3796826 -0.382765E-07  0.260E-04   10.80       6.7  T
   4  -3478.3796827 -0.153054E-07  0.702E-05   10.80      25.0  T
     SCC iter.                  ...        3 min, 53.917 sec
     gradient                   ...        3 min, 45.251 sec
 * total energy  : -3427.3990027 Eh     change    :  -0.8484585E-03 Eh
   gradient norm :     0.0370803 Eh/a0  converged?    E=F G=F D=F
   time step     :     0.3025000 fs     power     :   0.3483903E-07
   step length   :     0.0251763 a0     speed     :   0.2013175E-02

........................................................................
.............................. CYCLE   28 ..............................
........................................................................

 iter      E             dE          RMSdq      gap      omega  full diag
   1  -3478.3992691 -0.347840E+04  0.253E-03   10.80       0.0  T
   2  -3478.3992698 -0.726747E-06  0.145E-03   10.80       1.2  T
   3  -3478.3992699 -0.475302E-07  0.233E-04   10.80       7.5  T
   4  -3478.3992699 -0.179402E-07  0.767E-05   10.80      22.8  T
     SCC iter.                  ...        4 min,  4.453 sec
     gradient                   ...        3 min, 46.831 sec
 * total energy  : -3427.3999794 Eh     change    :  -0.9767489E-03 Eh
   gradient norm :     0.0373437 Eh/a0  converged?    E=F G=F D=F
   time step     :     0.3327500 fs     power     :   0.3674588E-07
   step length   :     0.0307577 a0     speed     :   0.2235894E-02

........................................................................
.............................. CYCLE   29 ..............................
........................................................................

 iter      E             dE          RMSdq      gap      omega  full diag
   1  -3478.4152402 -0.347842E+04  0.269E-03   10.80       0.0  T
   2  -3478.4152406 -0.448448E-06  0.156E-03   10.80       1.1  T
   3  -3478.4152407 -0.544078E-07  0.182E-04   10.80       9.6  T
   4  -3478.4152407 -0.199607E-07  0.802E-05   10.80      21.8  T
     SCC iter.                  ...        4 min,  3.142 sec
     gradient                   ...        3 min, 44.990 sec
 * total energy  : -3427.4011426 Eh     change    :  -0.1163147E-02 Eh
   gradient norm :     0.0377997 Eh/a0  converged?    E=F G=F D=F
   time step     :     0.3660250 fs     power     :   0.4033882E-07
   step length   :     0.0372528 a0     speed     :   0.2461858E-02

........................................................................
.............................. CYCLE   30 ..............................
........................................................................

 iter      E             dE          RMSdq      gap      omega  full diag
   1  -3478.4248785 -0.347842E+04  0.286E-03   10.80       0.0  T
   2  -3478.4248787 -0.262599E-06  0.167E-03   10.80       1.0  T
   3  -3478.4248788 -0.563118E-07  0.149E-04   10.80      11.8  T
   4  -3478.4248788 -0.231257E-07  0.801E-05   10.80      21.9  T
     SCC iter.                  ...        4 min,  2.462 sec
     gradient                   ...        3 min, 45.797 sec
 * total energy  : -3427.4025651 Eh     change    :  -0.1422564E-02 Eh
   gradient norm :     0.0369794 Eh/a0  converged?    E=F G=F D=F
   time step     :     0.4026275 fs     power     :   0.4522381E-07
   step length   :     0.0450841 a0     speed     :   0.2708541E-02

........................................................................
.............................. CYCLE   31 ..............................
........................................................................

 iter      E             dE          RMSdq      gap      omega  full diag
   1  -3478.4263375 -0.347843E+04  0.313E-03   10.80       0.0  T
   2  -3478.4263381 -0.541494E-06  0.185E-03   10.80       1.0  T
   3  -3478.4263381 -0.550467E-07  0.169E-04   10.80      10.4  T
   4  -3478.4263382 -0.274481E-07  0.748E-05   10.80      23.4  T
     SCC iter.                  ...        3 min, 58.130 sec
     gradient                   ...        3 min, 46.914 sec
 * total energy  : -3427.4042851 Eh     change    :  -0.1719937E-02 Eh
   gradient norm :     0.0338934 Eh/a0  converged?    E=F G=F D=F
   time step     :     0.4428903 fs     power     :   0.4936378E-07
   step length   :     0.0547477 a0     speed     :   0.2990095E-02

........................................................................
.............................. CYCLE   32 ..............................
........................................................................

 iter      E             dE          RMSdq      gap      omega  full diag
   1  -3478.4201590 -0.347842E+04  0.359E-03   10.80       0.0  T
   2  -3478.4201604 -0.146121E-05  0.215E-03   10.80       1.0  T
   3  -3478.4201605 -0.624309E-07  0.265E-04   10.80       6.6  T
   4  -3478.4201605 -0.316700E-07  0.761E-05   10.80      23.0  T
     SCC iter.                  ...        4 min,  1.464 sec
     gradient                   ...        3 min, 44.719 sec
 * total energy  : -3427.4062481 Eh     change    :  -0.1963032E-02 Eh
   gradient norm :     0.0292687 Eh/a0  converged?    E=F G=F D=F
   time step     :     0.4871793 fs     power     :   0.5002310E-07
   step length   :     0.0665619 a0     speed     :   0.3304851E-02

........................................................................
.............................. CYCLE   33 ..............................
........................................................................

 iter      E             dE          RMSdq      gap      omega  full diag
   1  -3478.4116065 -0.347841E+04  0.414E-03   10.80       0.0  T
   2  -3478.4116089 -0.235674E-05  0.249E-03   10.80       1.0  T
   3  -3478.4116090 -0.749119E-07  0.339E-04   10.80       5.2  T
   4  -3478.4116090 -0.355203E-07  0.799E-05   10.80      21.9  T
     SCC iter.                  ...        3 min, 55.283 sec
     gradient                   ...        3 min, 44.583 sec
 * total energy  : -3427.4083210 Eh     change    :  -0.2072852E-02 Eh
   gradient norm :     0.0264381 Eh/a0  converged?    E=F G=F D=F
   time step     :     0.5358972 fs     power     :   0.4662571E-07
   step length   :     0.0804062 a0     speed     :   0.3629304E-02

........................................................................
.............................. CYCLE   34 ..............................
........................................................................

 iter      E             dE          RMSdq      gap      omega  full diag
   1  -3478.4126249 -0.347841E+04  0.463E-03   10.80       0.0  T
   2  -3478.4126267 -0.182058E-05  0.278E-03   10.80       1.0  T
   3  -3478.4126268 -0.918494E-07  0.254E-04   10.80       6.9  T
   4  -3478.4126268 -0.358164E-07  0.835E-05   10.80      21.0  T
     SCC iter.                  ...        3 min, 56.719 sec
     gradient                   ...        3 min, 44.773 sec
 * total energy  : -3427.4104417 Eh     change    :  -0.2120771E-02 Eh
   gradient norm :     0.0272543 Eh/a0  converged?    E=F G=F D=F
   time step     :     0.5894869 fs     power     :   0.4316566E-07
   step length   :     0.0954627 a0     speed     :   0.3917188E-02

........................................................................
.............................. CYCLE   35 ..............................
........................................................................

 iter      E             dE          RMSdq      gap      omega  full diag
   1  -3478.4369144 -0.347844E+04  0.526E-03   10.81       0.0  T
   2  -3478.4369149 -0.469428E-06  0.311E-03   10.81       1.0  T
   3  -3478.4369150 -0.126378E-06  0.163E-04   10.81      10.7  T
   4  -3478.4369150 -0.246928E-07  0.914E-05   10.81      19.2  T
     SCC iter.                  ...        3 min, 59.271 sec
     gradient                   ...        3 min, 46.439 sec
 * total energy  : -3427.4127285 Eh     change    :  -0.2286766E-02 Eh
   gradient norm :     0.0268925 Eh/a0  converged?    E=F G=F D=F
   time step     :     0.6484356 fs     power     :   0.4301977E-07
   step length   :     0.1112576 a0     speed     :   0.4150286E-02

........................................................................
.............................. CYCLE   36 ..............................
........................................................................

 iter      E             dE          RMSdq      gap      omega  full diag
   1  -3478.4904902 -0.347849E+04  0.630E-03   10.81       0.0  T
   2  -3478.4904915 -0.125016E-05  0.365E-03   10.81       1.0  T
   3  -3478.4904916 -0.170363E-06  0.239E-04   10.81       7.3  T
   4  -3478.4904917 -0.217201E-07  0.104E-04   10.81      16.8  T
     SCC iter.                  ...        3 min, 54.608 sec
     gradient                   ...        3 min, 45.038 sec
 * total energy  : -3427.4152276 Eh     change    :  -0.2499063E-02 Eh
   gradient norm :     0.0227479 Eh/a0  converged?    E=F G=F D=F
   time step     :     0.7132792 fs     power     :   0.4187391E-07
   step length   :     0.1292287 a0     speed     :   0.4382424E-02

........................................................................
.............................. CYCLE   37 ..............................
........................................................................

 iter      E             dE          RMSdq      gap      omega  full diag
   1  -3478.5616132 -0.347856E+04  0.715E-03   10.81       0.0  T
   2  -3478.5616163 -0.308168E-05  0.410E-03   10.81       1.0  T
   3  -3478.5616165 -0.187067E-06  0.397E-04   10.81       4.4  T
   4  -3478.5616165 -0.325540E-07  0.110E-04   10.81      15.9  T
     SCC iter.                  ...        4 min,  6.928 sec
     gradient                   ...        3 min, 46.207 sec
 * total energy  : -3427.4177261 Eh     change    :  -0.2498574E-02 Eh
   gradient norm :     0.0223847 Eh/a0  converged?    E=F G=F D=F
   time step     :     0.7846071 fs     power     :   0.3640801E-07
   step length   :     0.1501464 a0     speed     :   0.4628901E-02

........................................................................
.............................. CYCLE   38 ..............................
........................................................................

 iter      E             dE          RMSdq      gap      omega  full diag
   1  -3478.6148679 -0.347861E+04  0.675E-03   10.82       0.0  T
   2  -3478.6148689 -0.907445E-06  0.393E-03   10.82       1.0  T
   3  -3478.6148690 -0.163408E-06  0.202E-04   10.82       8.7  T
   4  -3478.6148690 -0.186637E-07  0.923E-05   10.82      19.0  T
     SCC iter.                  ...        4 min,  1.192 sec
     gradient                   ...        3 min, 45.668 sec
 * total energy  : -3427.4202947 Eh     change    :  -0.2568554E-02 Eh
   gradient norm :     0.0246300 Eh/a0  converged?    E=F G=F D=F
   time step     :     0.8630678 fs     power     :   0.3536806E-07
   step length   :     0.1714947 a0     speed     :   0.4806411E-02

........................................................................
.............................. CYCLE   39 ..............................
........................................................................

 iter      E             dE          RMSdq      gap      omega  full diag
   1  -3478.6258473 -0.347863E+04  0.622E-03   10.82       0.0  T
   2  -3478.6258495 -0.216367E-05  0.373E-03   10.82       1.0  T
   3  -3478.6258497 -0.190257E-06  0.239E-04   10.82       7.3  T
   4  -3478.6258497 -0.267896E-07  0.113E-04   10.82      15.5  T
     SCC iter.                  ...        3 min, 59.898 sec
     gradient                   ...        3 min, 51.015 sec
 * total energy  : -3427.4232161 Eh     change    :  -0.2921424E-02 Eh
   gradient norm :     0.0213521 Eh/a0  converged?    E=F G=F D=F
   time step     :     0.9493746 fs     power     :   0.3653150E-07
   step length   :     0.1949763 a0     speed     :   0.4967744E-02

........................................................................
.............................. CYCLE   40 ..............................
........................................................................

 iter      E             dE          RMSdq      gap      omega  full diag
   1  -3478.6130219 -0.347861E+04  0.629E-03   10.82       0.0  T
   2  -3478.6130270 -0.514131E-05  0.379E-03   10.82       1.0  T
   3  -3478.6130273 -0.273558E-06  0.462E-04   10.82       3.8  T
   4  -3478.6130273 -0.559371E-07  0.157E-04   10.82      11.2  T
     SCC iter.                  ...        3 min, 57.852 sec
     gradient                   ...        3 min, 46.326 sec
 * total energy  : -3427.4263161 Eh     change    :  -0.3100044E-02 Eh
   gradient norm :     0.0236017 Eh/a0  converged?    E=F G=F D=F
   time step     :     1.0443120 fs     power     :   0.3443674E-07
   step length   :     0.2234767 a0     speed     :   0.5176271E-02

........................................................................
.............................. CYCLE   41 ..............................
........................................................................

 iter      E             dE          RMSdq      gap      omega  full diag
   1  -3478.6327309 -0.347863E+04  0.708E-03   10.83       0.0  T
   2  -3478.6327318 -0.873117E-06  0.415E-03   10.83       1.0  T
   3  -3478.6327320 -0.273107E-06  0.243E-04   10.83       7.2  T
   4  -3478.6327321 -0.345676E-07  0.144E-04   10.83      12.2  T
     SCC iter.                  ...        3 min, 54.787 sec
     gradient                   ...        3 min, 46.459 sec
 * total energy  : -3427.4299373 Eh     change    :  -0.3621182E-02 Eh
   gradient norm :     0.0215461 Eh/a0  converged?    E=F G=F D=F
   time step     :     1.1487432 fs     power     :   0.3846070E-07
   step length   :     0.2542453 a0     speed     :   0.5353589E-02

........................................................................
.............................. CYCLE   42 ..............................
........................................................................

 iter      E             dE          RMSdq      gap      omega  full diag
   1  -3478.6813593 -0.347868E+04  0.863E-03   10.84       0.0  T
   2  -3478.6813632 -0.382273E-05  0.500E-03   10.84       1.0  T
   3  -3478.6813634 -0.263200E-06  0.404E-04   10.84       4.3  T
   4  -3478.6813635 -0.451796E-07  0.128E-04   10.84      13.6  T
     SCC iter.                  ...        3 min, 54.097 sec
     gradient                   ...        3 min, 47.377 sec
 * total energy  : -3427.4339102 Eh     change    :  -0.3972853E-02 Eh
   gradient norm :     0.0219306 Eh/a0  converged?    E=F G=F D=F
   time step     :     1.2500000 fs     power     :   0.3656198E-07
   step length   :     0.2899254 a0     speed     :   0.5610369E-02
 * RMSD in coord.:     0.0330500 a0     energy gain  -0.3893180E-01 Eh

........................................................................
.............................. CYCLE   43 ..............................
........................................................................

 iter      E             dE          RMSdq      gap      omega  full diag
   1  -3478.6840456 -0.347868E+04  0.140E-03   10.84       0.0  T
   2  -3478.6840456 -0.383693E-07  0.820E-04   10.84       2.1  T
   3  -3478.6840456 -0.111941E-07  0.518E-05   10.84      33.8  T
     SCC iter.                  ...        3 min,  0.012 sec
     gradient                   ...        3 min, 47.044 sec
 * total energy  : -3427.4346734 Eh     change    :  -0.7632038E-03 Eh
   gradient norm :     0.0218406 Eh/a0  converged?    E=F G=F D=F
   time step     :     0.2500000 fs     power     :   0.3985978E-07
   step length   :     0.0563392 a0     speed     :   0.5451121E-02

........................................................................
.............................. CYCLE   44 ..............................
........................................................................

 iter      E             dE          RMSdq      gap      omega  full diag
   1  -3478.6804611 -0.347868E+04  0.134E-03   10.84       0.0  T
   2  -3478.6804612 -0.174279E-06  0.791E-04   10.84       2.2  T
   3  -3478.6804612 -0.120967E-07  0.868E-05   10.84      20.2  T
     SCC iter.                  ...        2 min, 56.644 sec
     gradient                   ...        3 min, 46.499 sec
 * total energy  : -3427.4354842 Eh     change    :  -0.8108160E-03 Eh
   gradient norm :     0.0202181 Eh/a0  converged?    E=F G=F D=F
   time step     :     0.2500000 fs     power     :   0.4218222E-07
   step length   :     0.0551971 a0     speed     :   0.5340620E-02

........................................................................
.............................. CYCLE   45 ..............................
........................................................................

 iter      E             dE          RMSdq      gap      omega  full diag
   1  -3478.6724588 -0.347867E+04  0.148E-03   10.85       0.0  T
   2  -3478.6724592 -0.412973E-06  0.869E-04   10.85       2.0  T
   3  -3478.6724592 -0.149817E-07  0.159E-04   10.85      11.0  T
     SCC iter.                  ...        2 min, 59.785 sec
     gradient                   ...        3 min, 45.657 sec
 * total energy  : -3427.4363090 Eh     change    :  -0.8247940E-03 Eh
   gradient norm :     0.0181244 Eh/a0  converged?    E=F G=F D=F
   time step     :     0.2500000 fs     power     :   0.4238926E-07
   step length   :     0.0546549 a0     speed     :   0.5288158E-02

........................................................................
.............................. CYCLE   46 ..............................
........................................................................

 iter      E             dE          RMSdq      gap      omega  full diag
   1  -3478.6630138 -0.347866E+04  0.161E-03   10.85       0.0  T
   2  -3478.6630143 -0.526229E-06  0.943E-04   10.85       1.9  T
   3  -3478.6630143 -0.169562E-07  0.185E-04   10.85       9.5  T
     SCC iter.                  ...        2 min, 57.367 sec
     gradient                   ...        3 min, 46.437 sec
 * total energy  : -3427.4371143 Eh     change    :  -0.8052610E-03 Eh
   gradient norm :     0.0170322 Eh/a0  converged?    E=F G=F D=F
   time step     :     0.2500000 fs     power     :   0.4103622E-07
   step length   :     0.0545888 a0     speed     :   0.5281760E-02

........................................................................
.............................. CYCLE   47 ..............................
........................................................................

 iter      E             dE          RMSdq      gap      omega  full diag
   1  -3478.6557456 -0.347866E+04  0.163E-03   10.85       0.0  T
   2  -3478.6557460 -0.388802E-06  0.955E-04   10.85       1.8  T
   3  -3478.6557460 -0.160735E-07  0.146E-04   10.85      12.0  T
     SCC iter.                  ...        2 min, 59.223 sec
     gradient                   ...        3 min, 46.811 sec
 * total energy  : -3427.4378923 Eh     change    :  -0.7780190E-03 Eh
   gradient norm :     0.0172592 Eh/a0  converged?    E=F G=F D=F
   time step     :     0.2500000 fs     power     :   0.3980805E-07
   step length   :     0.0546170 a0     speed     :   0.5284486E-02

........................................................................
.............................. CYCLE   48 ..............................
........................................................................

 iter      E             dE          RMSdq      gap      omega  full diag
   1  -3478.6532230 -0.347865E+04  0.175E-03   10.85       0.0  T
   2  -3478.6532231 -0.182910E-06  0.102E-03   10.85       1.7  T
   3  -3478.6532232 -0.154787E-07  0.828E-05   10.85      21.2  T
   4  -3478.6532232 -0.446425E-08  0.315E-05   10.85      55.6  T
     SCC iter.                  ...        4 min,  1.470 sec
     gradient                   ...        3 min, 46.115 sec
 * total energy  : -3427.4387357 Eh     change    :  -0.8434064E-03 Eh
   gradient norm :     0.0176141 Eh/a0  converged?    E=F G=F D=F
   time step     :     0.2750000 fs     power     :   0.3954149E-07
   step length   :     0.0599846 a0     speed     :   0.5276214E-02

........................................................................
.............................. CYCLE   49 ..............................
........................................................................

 iter      E             dE          RMSdq      gap      omega  full diag
   1  -3478.6578545 -0.347866E+04  0.192E-03   10.85       0.0  T
   2  -3478.6578546 -0.655318E-07  0.112E-03   10.85       1.6  T
   3  -3478.6578546 -0.152581E-07  0.600E-05   10.85      29.2  T
   4  -3478.6578546 -0.483124E-08  0.275E-05   10.85      63.6  T
     SCC iter.                  ...        3 min, 58.495 sec
     gradient                   ...        3 min, 45.716 sec
 * total energy  : -3427.4396650 Eh     change    :  -0.9292988E-03 Eh
   gradient norm :     0.0168175 Eh/a0  converged?    E=F G=F D=F
   time step     :     0.3025000 fs     power     :   0.3968632E-07
   step length   :     0.0658852 a0     speed     :   0.5268382E-02

........................................................................
.............................. CYCLE   50 ..............................
........................................................................

 iter      E             dE          RMSdq      gap      omega  full diag
   1  -3478.6702049 -0.347867E+04  0.220E-03   10.86       0.0  T
   2  -3478.6702052 -0.222165E-06  0.128E-03   10.86       1.4  T
   3  -3478.6702052 -0.201162E-07  0.940E-05   10.86      18.6  T
   4  -3478.6702052 -0.494902E-08  0.331E-05   10.86      53.0  T
     SCC iter.                  ...        3 min, 56.400 sec
     gradient                   ...        3 min, 47.236 sec
 * total energy  : -3427.4406739 Eh     change    :  -0.1008915E-02 Eh
   gradient norm :     0.0148890 Eh/a0  converged?    E=F G=F D=F
   time step     :     0.3327500 fs     power     :   0.3873694E-07
   step length   :     0.0727754 a0     speed     :   0.5290314E-02

........................................................................
.............................. CYCLE   51 ..............................
........................................................................

 iter      E             dE          RMSdq      gap      omega  full diag
   1  -3478.6876173 -0.347869E+04  0.246E-03   10.86       0.0  T
   2  -3478.6876178 -0.497647E-06  0.143E-03   10.86       1.2  T
   3  -3478.6876178 -0.262730E-07  0.153E-04   10.86      11.4  T
   4  -3478.6876178 -0.638147E-08  0.410E-05   10.86      42.7  T
     SCC iter.                  ...        4 min,  0.065 sec
     gradient                   ...        3 min, 44.863 sec
 * total energy  : -3427.4417273 Eh     change    :  -0.1053439E-02 Eh
   gradient norm :     0.0138289 Eh/a0  converged?    E=F G=F D=F
   time step     :     0.3660250 fs     power     :   0.3619760E-07
   step length   :     0.0810380 a0     speed     :   0.5355415E-02

........................................................................
.............................. CYCLE   52 ..............................
........................................................................

 iter      E             dE          RMSdq      gap      omega  full diag
   1  -3478.7027950 -0.347870E+04  0.248E-03   10.86       0.0  T
   2  -3478.7027953 -0.376411E-06  0.145E-03   10.86       1.2  T
   3  -3478.7027954 -0.286254E-07  0.125E-04   10.86      14.0  T
   4  -3478.7027954 -0.617320E-08  0.411E-05   10.86      42.6  T
     SCC iter.                  ...        3 min, 56.942 sec
     gradient                   ...        3 min, 44.720 sec
 * total energy  : -3427.4428139 Eh     change    :  -0.1086590E-02 Eh
   gradient norm :     0.0146450 Eh/a0  converged?    E=F G=F D=F
   time step     :     0.4026275 fs     power     :   0.3403628E-07
   step length   :     0.0902109 a0     speed     :   0.5419641E-02

........................................................................
.............................. CYCLE   53 ..............................
........................................................................

 iter      E             dE          RMSdq      gap      omega  full diag
   1  -3478.7080669 -0.347871E+04  0.237E-03   10.86       0.0  T
   2  -3478.7080670 -0.105299E-06  0.139E-03   10.86       1.3  T
   3  -3478.7080670 -0.300261E-07  0.756E-05   10.86      23.2  T
   4  -3478.7080670 -0.521004E-08  0.397E-05   10.86      44.1  T
     SCC iter.                  ...        3 min, 58.319 sec
     gradient                   ...        3 min, 44.979 sec
 * total energy  : -3427.4439753 Eh     change    :  -0.1161404E-02 Eh
   gradient norm :     0.0146148 Eh/a0  converged?    E=F G=F D=F
   time step     :     0.4428903 fs     power     :   0.3346504E-07
   step length   :     0.0995651 a0     speed     :   0.5437838E-02

........................................................................
.............................. CYCLE   54 ..............................
........................................................................

 iter      E             dE          RMSdq      gap      omega  full diag
   1  -3478.7007908 -0.347870E+04  0.245E-03   10.87       0.0  T
   2  -3478.7007913 -0.462018E-06  0.144E-03   10.87       1.2  T
   3  -3478.7007913 -0.393084E-07  0.131E-04   10.87      13.3  T
   4  -3478.7007913 -0.688760E-08  0.506E-05   10.87      34.6  T
     SCC iter.                  ...        3 min, 55.738 sec
     gradient                   ...        3 min, 46.770 sec
 * total energy  : -3427.4452279 Eh     change    :  -0.1252578E-02 Eh
   gradient norm :     0.0130305 Eh/a0  converged?    E=F G=F D=F
   time step     :     0.4871793 fs     power     :   0.3251476E-07
   step length   :     0.1099658 a0     speed     :   0.5459891E-02

........................................................................
.............................. CYCLE   55 ..............................
........................................................................

 iter      E             dE          RMSdq      gap      omega  full diag
   1  -3478.6871585 -0.347869E+04  0.254E-03   10.87       0.0  T
   2  -3478.6871594 -0.922541E-06  0.150E-03   10.87       1.2  T
   3  -3478.6871594 -0.517930E-07  0.220E-04   10.87       8.0  T
   4  -3478.6871595 -0.102036E-07  0.652E-05   10.87      26.9  T
     SCC iter.                  ...        3 min, 58.465 sec
     gradient                   ...        3 min, 46.863 sec
 * total energy  : -3427.4465363 Eh     change    :  -0.1308398E-02 Eh
   gradient norm :     0.0133076 Eh/a0  converged?    E=F G=F D=F
   time step     :     0.5358972 fs     power     :   0.3053999E-07
   step length   :     0.1222773 a0     speed     :   0.5519244E-02

........................................................................
.............................. CYCLE   56 ..............................
........................................................................

 iter      E             dE          RMSdq      gap      omega  full diag
   1  -3478.6824123 -0.347868E+04  0.243E-03   10.88       0.0  T
   2  -3478.6824126 -0.352117E-06  0.144E-03   10.88       1.2  T
   3  -3478.6824127 -0.507393E-07  0.128E-04   10.88      13.7  T
   4  -3478.6824127 -0.844420E-08  0.638E-05   10.88      27.5  T
     SCC iter.                  ...        4 min,  2.138 sec
     gradient                   ...        3 min, 44.997 sec
 * total energy  : -3427.4479354 Eh     change    :  -0.1399112E-02 Eh
   gradient norm :     0.0140361 Eh/a0  converged?    E=F G=F D=F
   time step     :     0.5894869 fs     power     :   0.3024919E-07
   step length   :     0.1352293 a0     speed     :   0.5548963E-02

........................................................................
.............................. CYCLE   57 ..............................
........................................................................

 iter      E             dE          RMSdq      gap      omega  full diag
   1  -3478.6955307 -0.347870E+04  0.281E-03   10.88       0.0  T
   2  -3478.6955310 -0.336284E-06  0.164E-03   10.88       1.1  T
   3  -3478.6955310 -0.420055E-07  0.144E-04   10.88      12.2  T
   4  -3478.6955310 -0.110631E-07  0.582E-05   10.88      30.1  T
     SCC iter.                  ...        3 min, 58.041 sec
     gradient                   ...        3 min, 46.720 sec
 * total energy  : -3427.4494792 Eh     change    :  -0.1543812E-02 Eh
   gradient norm :     0.0125108 Eh/a0  converged?    E=F G=F D=F
   time step     :     0.6484356 fs     power     :   0.3020781E-07
   step length   :     0.1493134 a0     speed     :   0.5569894E-02

........................................................................
.............................. CYCLE   58 ..............................
........................................................................

 iter      E             dE          RMSdq      gap      omega  full diag
   1  -3478.7195315 -0.347872E+04  0.327E-03   10.89       0.0  T
   2  -3478.7195322 -0.702691E-06  0.189E-03   10.89       1.0  T
   3  -3478.7195323 -0.425230E-07  0.203E-04   10.89       8.6  T
   4  -3478.7195323 -0.124642E-07  0.587E-05   10.89      29.8  T
     SCC iter.                  ...        3 min, 59.306 sec
     gradient                   ...        3 min, 47.073 sec
 * total energy  : -3427.4511273 Eh     change    :  -0.1648118E-02 Eh
   gradient norm :     0.0131126 Eh/a0  converged?    E=F G=F D=F
   time step     :     0.7132792 fs     power     :   0.2900637E-07
   step length   :     0.1663347 a0     speed     :   0.5640770E-02

........................................................................
.............................. CYCLE   59 ..............................
........................................................................

 iter      E             dE          RMSdq      gap      omega  full diag
   1  -3478.7331616 -0.347873E+04  0.311E-03   10.90       0.0  T
   2  -3478.7331618 -0.224517E-06  0.184E-03   10.90       1.0  T
   3  -3478.7331619 -0.524742E-07  0.120E-04   10.90      14.6  T
   4  -3478.7331619 -0.100176E-07  0.682E-05   10.90      25.7  T
     SCC iter.                  ...        4 min,  3.127 sec
     gradient                   ...        3 min, 46.423 sec
 * total energy  : -3427.4529350 Eh     change    :  -0.1807699E-02 Eh
   gradient norm :     0.0125843 Eh/a0  converged?    E=F G=F D=F
   time step     :     0.7846071 fs     power     :   0.2942410E-07
   step length   :     0.1844694 a0     speed     :   0.5687051E-02

........................................................................
.............................. CYCLE   60 ..............................
........................................................................

 iter      E             dE          RMSdq      gap      omega  full diag
   1  -3478.7339553 -0.347873E+04  0.333E-03   10.90       0.0  T
   2  -3478.7339566 -0.137524E-05  0.203E-03   10.90       1.0  T
   3  -3478.7339567 -0.686023E-07  0.241E-04   10.90       7.3  T
   4  -3478.7339567 -0.176146E-07  0.819E-05   10.90      21.4  T
     SCC iter.                  ...        3 min, 58.756 sec
     gradient                   ...        3 min, 45.552 sec
 * total energy  : -3427.4548953 Eh     change    :  -0.1960259E-02 Eh
   gradient norm :     0.0117610 Eh/a0  converged?    E=F G=F D=F
   time step     :     0.8630678 fs     power     :   0.2827875E-07
   step length   :     0.2057618 a0     speed     :   0.5766801E-02

........................................................................
.............................. CYCLE   61 ..............................
........................................................................

 iter      E             dE          RMSdq      gap      omega  full diag
   1  -3478.7533560 -0.347875E+04  0.389E-03   10.91       0.0  T
   2  -3478.7533563 -0.305520E-06  0.231E-03   10.91       1.0  T
   3  -3478.7533564 -0.591808E-07  0.122E-04   10.91      14.3  T
   4  -3478.7533564 -0.991713E-08  0.645E-05   10.91      27.2  T
     SCC iter.                  ...        3 min, 55.409 sec
     gradient                   ...        3 min, 45.521 sec
 * total energy  : -3427.4569891 Eh     change    :  -0.2093841E-02 Eh
   gradient norm :     0.0113822 Eh/a0  converged?    E=F G=F D=F
   time step     :     0.9493746 fs     power     :   0.2783959E-07
   step length   :     0.2299430 a0     speed     :   0.5858652E-02

........................................................................
.............................. CYCLE   62 ..............................
........................................................................

 iter      E             dE          RMSdq      gap      omega  full diag
   1  -3478.7984550 -0.347880E+04  0.539E-03   10.92       0.0  T
   2  -3478.7984563 -0.128646E-05  0.312E-03   10.92       1.0  T
   3  -3478.7984563 -0.782229E-07  0.252E-04   10.92       6.9  T
   4  -3478.7984563 -0.159166E-07  0.712E-05   10.92      24.6  T
     SCC iter.                  ...        3 min, 57.359 sec
     gradient                   ...        3 min, 46.431 sec
 * total energy  : -3427.4591909 Eh     change    :  -0.2201760E-02 Eh
   gradient norm :     0.0109729 Eh/a0  converged?    E=F G=F D=F
   time step     :     1.0443120 fs     power     :   0.2567156E-07
   step length   :     0.2574683 a0     speed     :   0.5963600E-02

........................................................................
.............................. CYCLE   63 ..............................
........................................................................

 iter      E             dE          RMSdq      gap      omega  full diag
   1  -3478.8111355 -0.347881E+04  0.498E-03   10.93       0.0  T
   2  -3478.8111364 -0.909595E-06  0.296E-03   10.93       1.0  T
   3  -3478.8111365 -0.653558E-07  0.174E-04   10.93      10.0  T
   4  -3478.8111365 -0.274272E-07  0.690E-05   10.93      25.4  T
     SCC iter.                  ...        4 min,  3.488 sec
     gradient                   ...        3 min, 46.131 sec
 * total energy  : -3427.4614718 Eh     change    :  -0.2280857E-02 Eh
   gradient norm :     0.0094566 Eh/a0  converged?    E=F G=F D=F
   time step     :     1.1487432 fs     power     :   0.2442202E-07
   step length   :     0.2872113 a0     speed     :   0.6047748E-02

........................................................................
.............................. CYCLE   64 ..............................
........................................................................

 iter      E             dE          RMSdq      gap      omega  full diag
   1  -3478.8098714 -0.347881E+04  0.507E-03   10.95       0.0  T
   2  -3478.8098730 -0.152388E-05  0.303E-03   10.95       1.0  T
   3  -3478.8098730 -0.686687E-07  0.212E-04   10.95       8.3  T
   4  -3478.8098730 -0.291539E-07  0.740E-05   10.95      23.7  T
     SCC iter.                  ...        3 min, 57.124 sec
     gradient                   ...        3 min, 47.564 sec
 * total energy  : -3427.4637604 Eh     change    :  -0.2288607E-02 Eh
   gradient norm :     0.0109322 Eh/a0  converged?    E=F G=F D=F
   time step     :     1.2500000 fs     power     :   0.2218360E-07
   step length   :     0.3184301 a0     speed     :   0.6161965E-02

........................................................................
.............................. CYCLE   65 ..............................
........................................................................

 iter      E             dE          RMSdq      gap      omega  full diag
   1  -3478.8512615 -0.347885E+04  0.602E-03   10.96       0.0  T
   2  -3478.8512634 -0.197971E-05  0.348E-03   10.96       1.0  T
   3  -3478.8512635 -0.663222E-07  0.315E-04   10.96       5.6  T
   4  -3478.8512635 -0.307723E-07  0.715E-05   10.96      24.5  T
     SCC iter.                  ...        4 min,  0.544 sec
     gradient                   ...        3 min, 45.536 sec
 * total energy  : -3427.4659119 Eh     change    :  -0.2151556E-02 Eh
   gradient norm :     0.0109659 Eh/a0  converged?    E=F G=F D=F
   time step     :     1.2500000 fs     power     :   0.2040003E-07
   step length   :     0.3191612 a0     speed     :   0.6176111E-02

........................................................................
.............................. CYCLE   66 ..............................
........................................................................

 iter      E             dE          RMSdq      gap      omega  full diag
   1  -3478.8498135 -0.347885E+04  0.445E-03   10.98       0.0  T
   2  -3478.8498150 -0.154284E-05  0.266E-03   10.98       1.0  T
   3  -3478.8498151 -0.805271E-07  0.233E-04   10.98       7.5  T
   4  -3478.8498151 -0.245341E-07  0.884E-05   10.98      19.8  T
     SCC iter.                  ...        4 min,  4.337 sec
     gradient                   ...        3 min, 48.640 sec
 * total energy  : -3427.4679767 Eh     change    :  -0.2064788E-02 Eh
   gradient norm :     0.0092478 Eh/a0  converged?    E=F G=F D=F
   time step     :     1.2500000 fs     power     :   0.2016803E-07
[...]
  3011   6 C     3012   6 C                                       1.5265300
  3012   6 C     3013   6 C                                       1.5255344
  3013   6 C     3014   6 C                                       1.5262710
  3014   6 C     3015   6 C                                       1.5257774
  3015   6 C     3016   6 C                                       1.5227604
  3015   6 C     3017   1 H                                       1.0931114
  3015   6 C     3018   1 H                                       1.0918137
  3014   6 C     3019   1 H                                       1.0919455
  3014   6 C     3020   1 H                                       1.0929065
  3013   6 C     3021   1 H                                       1.0938185
  3013   6 C     3022   1 H                                       1.0921596
  3012   6 C     3023   1 H                                       1.0931819
  3012   6 C     3024   1 H                                       1.0924281
  3011   6 C     3025   1 H                                       1.0934286
  3011   6 C     3026   1 H                                       1.0921812
  3010   6 C     3027   1 H                                       1.0934439
  3010   6 C     3028   1 H                                       1.0919664
  3009   6 C     3029   1 H                                       1.0923364
  3009   6 C     3030   1 H                                       1.0925904
  3008   6 C     3031   1 H                                       1.0935690
  3008   6 C     3032   1 H                                       1.0918974
  3007   6 C     3033   1 H                                       1.0922612
  3007   6 C     3034   1 H                                       1.0929607
  3006   6 C     3035   1 H                                       1.0935345
  3006   6 C     3036   1 H                                       1.0919798
  3005   6 C     3037   1 H                                       1.0931325
  3005   6 C     3038   1 H                                       1.0931043
  3004   6 C     3039   1 H                                       1.0935023
  3004   6 C     3040   1 H                                       1.0920347
  3003   6 C     3041   1 H                                       1.0940549
  3003   6 C     3042   1 H                                       1.0931922
  3002   6 C     3043   1 H                                       1.0932510
  3002   6 C     3044   1 H                                       1.0921646
  3001   6 C     3045   1 H                                       1.0923153
  3001   6 C     3046   1 H                                       1.0926685
  3000   6 C     3047   1 H                                       1.0930635
  3000   6 C     3048   1 H                                       1.0925407
  2999   6 C     3049   1 H                                       1.0905939
  2999   6 C     3050   1 H                                       1.0932566
  2998   6 C     3051   1 H                                       1.0930814
  2998   6 C     3052   1 H                                       1.0906707
  2997   6 C     3053   1 H                                       1.0920274
  2997   6 C     3054   1 H                                       1.0937931
  2996   6 C     3055   1 H                                       1.0926514
  2996   6 C     3056   1 H                                       1.0918122
  2995   6 C     3057   1 H                                       1.0914495
  2995   6 C     3058   1 H                                       1.0933537
  2994   6 C     3059   1 H                                       1.0926161
  2994   6 C     3060   1 H                                       1.0937009
  2993   6 C     3061   1 H                                       1.0931877
  2993   6 C     3062   1 H                                       1.0924256
  2992   6 C     3063   1 H                                       1.0935164
  2992   6 C     3064   1 H                                       1.0919931
  2991   6 C     3065   1 H                                       1.0931411
  2991   6 C     3066   1 H                                       1.0928713
  2990   6 C     3067   1 H                                       1.0935196
  2990   6 C     3068   1 H                                       1.0906140
  2989   6 C     3069   1 H                                       1.0932397
  2989   6 C     3070   1 H                                       1.0937011
  2988   6 C     3071   1 H                                       1.0935563
  2988   6 C     3072   1 H                                       1.0933804
  2987   6 C     3073   1 H                                       1.0910693
  2987   6 C     3074   1 H                                       1.0917352
  2986   6 C     3075   1 H                                       1.0927871
  2986   6 C     3076   1 H                                       1.0934638
  2985   6 C     3077   1 H                                       1.0936290
  2985   6 C     3078   1 H                                       1.0910549
  2984   6 C     3079   1 H                                       1.0914411
  2984   6 C     3080   1 H                                       1.0931552
  2983   6 C     3081   1 H                                       1.0927538
  2983   6 C     3082   1 H                                       1.0930478
  2982   6 C     3083   1 H                                       1.0911585
  2982   6 C     3084   1 H                                       1.0918187
  2981   6 C     3085   1 H                                       1.0924812
  2981   6 C     3086   1 H                                       1.0930811
  2980   6 C     3087   1 H                                       1.0930449
  2980   6 C     3088   1 H                                       1.0912771
  2979   6 C     3089   1 H                                       1.0929364
  2979   6 C     3090   1 H                                       1.0932202
  2978   6 C     3091   1 H                                       1.0913249
  2978   6 C     3092   1 H                                       1.0916547
  2977   6 C     3093   1 H                                       1.0935181
  2977   6 C     3094   1 H                                       1.0932296
  2976   6 C     3095   1 H                                       1.0928796
  2976   6 C     3096   1 H                                       1.0932296
  2975   6 C     3097   1 H                                       1.0932318
  2975   6 C     3098   1 H                                       1.0912998
  2974   6 C     3099   1 H                                       1.0926748
  2974   6 C     3100   1 H                                       1.0925678
  2973   6 C     3101   1 H                                       1.0933563
  2973   6 C     3102   1 H                                       1.0924009
  2972   6 C     3103   1 H                                       1.0926641
  2972   6 C     3104   1 H                                       1.0926369
  2971   6 C     3105   1 H                                       1.0932060
  2971   6 C     3106   1 H                                       1.0924652
  2970   6 C     3107   1 H                                       1.0926743
  2970   6 C     3108   1 H                                       1.0929299
  2969   6 C     3109   1 H                                       1.0929544
  2969   6 C     3110   1 H                                       1.0924138
  2968   6 C     3111   1 H                                       1.0925318
  2968   6 C     3112   1 H                                       1.0931989
  2967   6 C     3113   1 H                                       1.0928277
  2967   6 C     3114   1 H                                       1.0926274
  2966   6 C     3115   1 H                                       1.0923770
  2966   6 C     3116   1 H                                       1.0933080
  2965   6 C     3117   1 H                                       1.0927697
  2965   6 C     3118   1 H                                       1.0926243
  2964   6 C     3119   1 H                                       1.0922888
  2964   6 C     3120   1 H                                       1.0933573
  2963   6 C     3121   1 H                                       1.0926790
  2963   6 C     3122   1 H                                       1.0922753
  2962   6 C     3123   1 H                                       1.0927595
  2962   6 C     3124   1 H                                       1.0934652
  2961   6 C     3125   1 H                                       1.0928443
  2961   6 C     3126   1 H                                       1.0903407
  2960   6 C     3127   1 H                                       1.0925484
  2960   6 C     3128   1 H                                       1.0941586
  2959   6 C     3129   1 H                                       1.0937648
  2959   6 C     3130   1 H                                       1.0932801
  2958   6 C     3131   1 H                                       1.0921535
  2958   6 C     3132   1 H                                       1.0913221
  2957   6 C     3133   1 H                                       1.0916144
  2957   6 C     3134   1 H                                       1.0942758
  2956   6 C     3135   1 H                                       1.0941620
  2956   6 C     3136   1 H                                       1.0930367
  2955   6 C     3137   1 H                                       1.0916203
  2955   6 C     3138   1 H                                       1.0925393
  2954   6 C     3139   1 H                                       1.0931678
  2954   6 C     3140   1 H                                       1.0936168
  2953   6 C     3141   1 H                                       1.0924819
  2953   6 C     3142   1 H                                       1.0919286
  2952   6 C     3143   1 H                                       1.0929156
  2952   6 C     3144   1 H                                       1.0943203
  2951   6 C     3145   1 H                                       1.0943497
  2951   6 C     3146   1 H                                       1.0933777
  2950   6 C     3147   1 H                                       1.0903496
  2950   6 C     3148   1 H                                       1.0935505
  2949   6 C     3149   1 H                                       1.0920560
  2949   6 C     3150   1 H                                       1.0920350
  2948   6 C     3151   1 H                                       1.0917676
  2948   6 C     3152   1 H                                       1.0936503
  2947   6 C     3153   1 H                                       1.0933171
  2947   6 C     3154   1 H                                       1.0920949
  2946   6 C     3155   1 H                                       1.0928357
  2946   6 C     3156   1 H                                       1.0915916
  2945   6 C     3157   1 H                                       1.0929535
  2945   6 C     3158   1 H                                       1.0917950
  2944   6 C     3159   1 H                                       1.0913592
  2944   6 C     3160   1 H                                       1.0924294
  2943   6 C     3161   1 H                                       1.0930642
  2943   6 C     3162   1 H                                       1.0917107
  2942   6 C     3163   1 H                                       1.0926793
  2942   6 C     3164   1 H                                       1.0920882
  2941   6 C     3165   1 H                                       1.0912188
  2941   6 C     3166   1 H                                       1.0941015
  2940   6 C     3167   1 H                                       1.0940382
  2940   6 C     3168   1 H                                       1.0928237
  2939   6 C     3169   1 H                                       1.0938941
  2939   6 C     3170   1 H                                       1.0901860
  2938   6 C     3171   1 H                                       1.0897185
  2938   6 C     3172   1 H                                       1.0940205
  2937   6 C     3173   1 H                                       1.0938522
  2937   6 C     3174   1 H                                       1.0938511
  2936   6 C     3175   1 H                                       1.0940254
  2936   6 C     3176   1 H                                       1.0911704
  2935   6 C     3177   1 H                                       1.0911014
  2935   6 C     3178   1 H                                       1.0931909
  2934   6 C     3179   1 H                                       1.0938854
  2934   6 C     3180   1 H                                       1.0919637
  2933   6 C     3181   1 H                                       1.0924719
  2933   6 C     3182   1 H                                       1.0936787
  2932   6 C     3183   1 H                                       1.0937833
  2932   6 C     3184   1 H                                       1.0923281
  2931   6 C     3185   1 H                                       1.0910037
  2931   6 C     3186   1 H                                       1.0922588
  2930   6 C     3187   1 H                                       1.0932960
  2930   6 C     3188   1 H                                       1.0933100
  2929   6 C     3189   1 H                                       1.0935703
  2929   6 C     3190   1 H                                       1.0914116
  2928   6 C     3191   1 H                                       1.0914543
  2928   6 C     3192   1 H                                       1.0938249
  2927   6 C     3193   1 H                                       1.0937921
  2927   6 C     3194   1 H                                       1.0922404
  2926   6 C     3195   1 H                                       1.0916779
  2926   6 C     3196   1 H                                       1.0933779
  2925   6 C     3197   1 H                                       1.0934516
  2925   6 C     3198   1 H                                       1.0927639
  2924   6 C     3199   1 H                                       1.0912820
  2924   6 C     3200   1 H                                       1.0927147
  2923   6 C     3201   1 H                                       1.0938679
  2923   6 C     3202   1 H                                       1.0927452
  2922   6 C     3203   1 H                                       1.0913243
  2922   6 C     3204   1 H                                       1.0922443
  2921   6 C     3205   1 H                                       1.0940923
  2921   6 C     3206   1 H                                       1.0925266
  2920   6 C     3207   1 H                                       1.0916642
  2920   6 C     3208   1 H                                       1.0922133
  2919   6 C     3209   1 H                                       1.0941980
  2919   6 C     3210   1 H                                       1.0925525
  2918   6 C     3211   1 H                                       1.0919803
  2918   6 C     3212   1 H                                       1.0927142
  2917   6 C     3213   1 H                                       1.0942743
  2917   6 C     3214   1 H                                       1.0933270
  2916   6 C     3215   1 H                                       1.0921548
  2916   6 C     3216   1 H                                       1.0911066
  2915   6 C     3217   1 H                                       1.0928426
  2915   6 C     3218   1 H                                       1.0942088
  2914   6 C     3219   1 H                                       1.0937277
  2914   6 C     3220   1 H                                       1.0922479
  2913   6 C     3221   1 H                                       1.0927709
  2913   6 C     3222   1 H                                       1.0883332
  2912   6 C     3223   1 H                                       1.0903599
  2912   6 C     3224   1 H                                       1.0940870
  2911   6 C     3225   1 H                                       1.0938825
  2911   6 C     3226   1 H                                       1.0927098
  2910   6 C     3227   1 H                                       1.0930426
  2910   6 C     3228   1 H                                       1.0916646
  2909   6 C     3229   1 H                                       1.0905850
  2909   6 C     3230   1 H                                       1.0931731
  2908   6 C     3231   1 H                                       1.0923052
  2908   6 C     3232   1 H                                       1.0932984
  2907   6 C     3233   1 H                                       1.0933816
  2907   6 C     3234   1 H                                       1.0931821
  2906   6 C     3235   1 H                                       1.0925365
  2906   6 C     3236   1 H                                       1.0927750
  2905   6 C     3237   1 H                                       1.0930051
  2905   6 C     3238   1 H                                       1.0933820
  2904   6 C     3239   1 H                                       1.0927589
  2904   6 C     3240   1 H                                       1.0924536
  2903   6 C     3241   1 H                                       1.0928860
  2903   6 C     3242   1 H                                       1.0934673
  2902   6 C     3243   1 H                                       1.0928958
  2902   6 C     3244   1 H                                       1.0921809
  2901   6 C     3245   1 H                                       1.0930452
  2901   6 C     3246   1 H                                       1.0934713
  2900   6 C     3247   1 H                                       1.0931042
  2900   6 C     3248   1 H                                       1.0919379
  2899   6 C     3249   1 H                                       1.0932883
  2899   6 C     3250   1 H                                       1.0934689
  2898   6 C     3251   1 H                                       1.0929825
  2898   6 C     3252   1 H                                       1.0914954
  2897   6 C     3253   1 H                                       1.0876197
  2897   6 C     3254   1 H                                       1.0883093
  2897   6 C     3255   1 H                                       1.0883578
  3016   6 C     3256   1 H                                       1.0878503
  3016   6 C     3257   1 H                                       1.0879671
  3016   6 C     3258   1 H                                       1.0881154

 * 2 distinct bonds (by element types)

   Z      Z             #   av. dist./Å        max./Å        min./Å
   1 H    6 C        2178     1.0925659     1.0948098     1.0863749
   6 C    6 C        1071     1.5272282     1.5356688     1.5214890


optimized geometry written to: xtbopt.xyz


           -------------------------------------------------
          | TOTAL ENERGY            -3427.560955198370 Eh   |
          | GRADIENT NORM               0.000813705422 Eh/α |
          | HOMO-LUMO GAP              11.323936258369 eV   |
           -------------------------------------------------

------------------------------------------------------------------------
 * finished run on 2024/06/20 at 20:25:29.476     
------------------------------------------------------------------------
 total:
 * wall-time:     3 d,  5 h,  6 min, 43.177 sec
 *  cpu-time:    16 d, 22 h, 45 min, 43.368 sec
 * ratio c/w:     5.275 speedup
 SCF:
 * wall-time:     0 d,  0 h,  7 min,  7.896 sec
 *  cpu-time:     0 d,  0 h, 37 min,  6.608 sec
 * ratio c/w:     5.204 speedup
 ANC optimizer:
 * wall-time:     3 d,  4 h, 58 min, 53.579 sec
 *  cpu-time:    16 d, 22 h,  7 min, 39.564 sec
 * ratio c/w:     5.276 speedup

