3258
 energy: -3427.458162315484 gnorm: 0.000745733520 xtb: 6.6.1 (8d0f1dd)
C          104.78797305092563      111.57964566577745      109.34851185069726
C          104.70470132581784      110.63894789245121      108.15338662470631
C          105.98084410631250      110.59671339340146      107.30981271311850
C          107.21725792393619      110.05140655766108      108.02742839193216
C          107.08490057671759      108.58308806248023      108.42085422932068
C          108.33724989310035      108.03951788513797      109.10539952754299
C          108.12577861781055      106.61158372932056      109.60315924184036
C          109.30055815770741      106.04601384519393      110.40046606989850
C          109.57906663384973      106.82483645645003      111.68505230555763
C          110.37340478070557      106.02589449915232      112.71506168516673
C          110.74808589963348      106.89038610232961      113.91650650951530
C          111.46317487780401      106.11705567673522      115.02370657252816
C          110.52803800544558      105.27135046484122      115.88365133026298
C          111.28158274336542      104.60723638323243      117.03270792765902
C          110.38903743084056      103.68596441562818      117.86189702669982
C          111.14624081044803      102.91204078053836      118.94406462510089
C          112.27316450385271      102.07134237228883      118.34857340716967
C          112.84005261271780      101.01457197057393      119.29510155218024
C          114.23241987107041      100.54741926362581      118.86014482907869
C          114.30734338228118      100.03537753150482      117.42285509649724
C          115.75026010457087       99.80186049102663      116.98211845780898
C          115.88278593954770       99.50959154677611      115.48697905900633
C          115.50951093366787      100.70494699257451      114.60762912836428
C          116.07112244273524      100.61246012942628      113.18806988254350
C          115.43675270869200       99.50011713154026      112.35657626868833
C          116.10432518709123       99.30974729198266      110.99347615551467
C          115.86243268909135      100.46154786520776      110.02035176762959
C          116.57159368340776      100.23937261826013      108.68523548320969
C          116.27022717801158      101.32148476188019      107.64704028221152
C          116.84424105316735      102.68650922676781      108.01523038596964
C          116.47886569630415      103.77244399192233      107.00600431575344
C          117.05651687139880      105.12274444237488      107.41869832485889
C          116.64505930296806      106.27557429982956      106.50776564428494
C          117.16645967325512      107.60531315170863      107.04680356052114
C          116.78672868538814      108.79931605072277      106.17787926266107
C          117.27663349731476      110.11267705621546      106.78200913997406
C          116.94675430537085      111.31683701008672      105.90491825455963
C          117.47397854871450      112.62009158667550      106.49916329974376
C          117.25395139116769      113.81139535553064      105.57120295533861
C          117.78782832770722      115.11296130738235      106.16423021034633
C          117.69788623468271      116.26845849123910      105.17141224458132
C          118.10304992593794      117.61701091854322      105.77148350701208
C          116.96239984278517      118.26254028662140      106.55355262378225
C          117.35850652405925      119.59567475132856      107.17897012731552
C          116.19441537604840      120.31013505167508      107.86878255856983
C          115.50700057007504      119.50026702385668      108.96819357471780
C          116.43991679055212      119.08301274509770      110.10207417064244
C          115.77127561804745      118.06921626068282      111.02387848505929
C          116.63315806200312      117.65773885336415      112.21616415817333
C          118.01272026053391      117.11066516567929      111.85223205725994
C          117.98295135797969      115.90847094094816      110.91194922934088
C          119.38291416393795      115.32821848656110      110.73765942578835
C          119.42405040008869      114.10140129244283      109.83018230894879
C          120.78271214440623      113.41148727960703      109.90435940347244
C          120.88799041272898      112.17910889783622      109.00981056167197
C          122.11897990961711      111.34975531541882      109.36525807682779
C          122.33974232079784      110.17073612179964      108.42478012244261
C          123.48962512377796      109.28077347846403      108.88861110419998
C          123.79126028346498      108.17118333234626      107.88459220572865
C          124.87273852502439      107.19979490070084      108.35928470029155
C          124.36948606319687      106.23715907967731      109.43197399030511
C          125.45724324495588      105.26907595408291      109.88883207884741
C          124.95483202941607      104.22084989996340      110.88210745875041
C          124.48648577530589      104.81605652722422      112.20905976699638
C          124.22626172122669      103.72644564053522      113.24617457008242
C          123.61885539398403      104.24878516721766      114.54749034740071
C          124.55589598660225      105.14411917640605      115.35687268611241
C          123.92532162149547      105.54240649393255      116.68883507536908
C          124.81007538706045      106.46401585486760      117.52342748083153
C          124.13652056788142      106.83868817934598      118.84259055073255
C          124.99680912341408      107.77260294357758      119.69002093359084
C          124.29925545621848      108.24802763872600      120.96626898204556
C          124.02678206220892      107.11848449467671      121.95963863888002
C          123.64308353450549      107.61721854869025      123.35398371868686
C          122.31370190217638      108.36707075333861      123.38605130107611
C          121.90971754408845      108.76486655686053      124.80440606670963
C          120.56540405521120      109.48794622226023      124.82902461356073
C          120.15483909250918      109.92890355834075      126.23223385866518
C          118.78074183803292      110.59545681944456      126.22560332114125
C          118.31865577693873      111.00260072169878      127.62318810144481
C          116.91908441780819      111.62441933563858      127.64654343865806
C          115.84400565298621      110.64715806945921      127.17697429091029
C          114.41271261176685      111.09714016768660      127.46948380723839
C          113.44327242357154      110.03315132432223      126.96108080985213
C          111.97280008856082      110.24684905133701      127.31153221707216
C          111.15448345336428      109.08275156111056      126.75380401866346
C          109.67261085567934      109.10330262344364      127.11699881853984
C          108.94510167440519      107.93843798505183      126.44716202444548
C          107.43123832209963      107.97847632638765      126.63682818585110
C          106.72948274219043      106.92343215092809      125.78258311050679
C          105.20824172087100      107.01611801793121      125.87923659786732
C          104.50757537719403      106.13160386665223      124.84998662213357
C          102.99711256818334      106.35965749370042      124.83267667158728
C          102.32514448804471      105.69610353009787      123.63279750791925
C          100.82396839894196      105.97715470856528      123.59311976176983
C          100.15481571728459      105.52714097825576      122.29431915902838
C          100.06560054604057      104.01191894225200      122.13056976913742
C           99.35595261183327      103.63863478530131      120.83067821893674
C           99.35840114062319      102.13505357102331      120.56687256381608
C           98.59989887630688      101.78733133190462      119.28731110216691
C           98.61030410882691      100.29108612964124      118.96545067178073
C           99.92526028200353       99.78602799257580      118.36606568656541
C          100.11529252388216      100.20782726040787      116.91080856234566
C          101.39346042584835       99.63566086838155      116.30269777955014
C          101.58880153035723      100.09017266963242      114.85760344505280
C          102.91452177511069       99.61318690024268      114.26772300395180
C          103.25306123138725      100.27536655324930      112.93138026913799
C          102.46131177823281       99.74683125789279      111.73426828951087
C          103.00584152812826       98.42916213541682      111.18403651399289
C          102.23662822634014       97.98731634637751      109.94182199761664
C          102.76309571016814       96.69162974619766      109.32968916181282
C          101.84989942640615       96.19764110659908      108.20975857062200
C          102.31001912477541       94.86733804542979      107.62020587197189
C          101.31417040052585       94.31228785096206      106.60251263890979
C          101.54214064648760       92.83614900995431      106.27397349943769
C          102.84297398471200       92.56301085111158      105.52396811501596
C          103.01988991556152       91.07653891432787      105.22054288720344
C          104.28585765129307       90.80477335705527      104.41298930787815
C          104.51453631698904       89.31855847166477      104.15399359456347
C          105.77588358396237       89.07900174373599      103.33220401707302
H          104.59652983920377       88.79256883286291      105.10855741987110
H          103.65209815154905       88.90696589633068      103.62401644487004
H          104.21865942645087       91.32566072855948      103.45587451137916
H          105.14780084139819       91.21040197329192      104.94850221071441
H          103.06247620069490       90.51947025431456      106.16035495803364
H          102.15230619867204       90.71332017559196      104.66328223825484
H          102.84207541102946       93.12433785129703      104.58678842240694
H          103.69139277268842       92.90617490998189      106.11818755808018
H          101.53713444755184       92.25910497277815      107.20292520988477
H          100.70651299449571       92.47949491616160      105.66514860773043
H          100.30431087453690       94.41447345773545      107.01095050522534
H          101.35775688001530       94.90166230944442      105.68392784935106
H          103.28486314583337       95.00280549953527      107.15015478786435
H          102.42872705671896       94.14322895131421      108.42885360869884
H          100.83746335252667       96.08174763410585      108.60704886158639
H          101.80370686501654       96.94849475494131      107.41813468853525
H          103.77250983916588       96.84500530345029      108.94061948658063
H          102.82377257375876       95.92567806965380      110.10647321043760
H          101.18761627213458       97.84525183072905      110.21070372074755
H          102.27673902484983       98.78266345374506      109.19239201990331
H          104.06323818599384       98.54924672638101      110.93355311552165
H          102.93714356292632       97.65087101841543      111.94717716880911
H          101.41248230091591       99.62020771386968      112.00974301484798
H          102.49735432082882      100.49298476467597      110.93555125902124
H          103.07737652606802      101.34939538344777      113.02826388090988
H          104.31675474119668      100.13109315506270      112.72907824356253
H          103.70821447723772       99.85343490875921      114.97983009580146
H          102.89756985428616       98.52860205548910      114.14867142389473
H          100.75557711917963       99.72974710843731      114.25000617116729
H          101.56513830361328      101.18193702162864      114.83327399866999
H          102.24879037529546       99.96210886095641      116.90074321937560
H          101.35796680240698       98.54458675636324      116.34704836051428
H           99.25457494607518       99.86768030742579      116.32844514520636
H          100.15102814214910      101.29747018588317      116.84413142350080
H          100.76625835846720      100.14495898846894      118.96239563722366
H           99.93459758390964       98.69388985812148      118.41473948649298
H           98.39880074999574       99.73693858976358      119.88354170315837
H           97.80438857266317      100.07287380086807      118.25997181413211
H           97.56390514792800      102.11704962525981      119.39813234223777
H           99.02803137180445      102.34564775694324      118.45323475403244
H          100.39126564652838      101.78868655198761      120.49127905447723
H           98.89834110664668      101.61549712232384      121.41143153766089
H           98.32445318004916      103.99858768314918      120.86506585773724
H           99.85188676041133      104.14334692265206      119.99886152161878
H          101.06869967479574      103.58381873181999      122.12616874278810
H           99.52464227908010      103.58446877335003      122.97844947805032
H           99.14433504234746      105.94222781970193      122.25737805191247
H          100.70975171667983      105.94183418455086      121.44897741817941
H          100.33781189404441      105.49002525817228      124.44173972826640
H          100.67071914031891      107.05449724755069      123.70259296295268
H          102.78379134197844      106.08063575011126      122.71841710898555
H          102.50357376507564      104.62009266852482      123.66655561260333
H          102.55597844406529      105.98163485239891      125.75810982068377
H          102.80159676235165      107.43502551634575      124.79497920038195
H          104.90978126262658      106.35854212219409      123.86058291298589
H          104.71999190398655      105.08045391650407      125.05852167861178
H          104.88401973693091      106.74192107923130      126.88597451180216
H          104.90641063244166      108.05333860298961      125.71095287966217
H          107.02516579569115      107.06261041449730      124.73940119742399
H          107.05806770616381      105.92661593691064      126.08674652137572
H          107.18497436507413      107.82675434204894      127.69028936500085
H          107.06267483937565      108.96840565661154      126.35423894610439
H          109.16337155912282      107.96017947524923      125.37548484679604
H          109.33591796082823      106.99751185979382      126.84189507609619
H          109.55314859203244      109.04183797904798      128.20111979862875
H          109.22563342278018      110.04469221579663      126.79002609965771
H          111.24766141823864      109.08570671575426      125.66439677065209
H          111.58788526166295      108.14775513978718      127.11824938586111
H          111.85428649603647      110.29835382557610      128.39642253685156
H          111.61741307675007      111.19015856996062      126.89123260292858
H          113.53770885787209      109.96723080833543      125.87422705421788
H          113.75212699292355      109.07043294698657      127.37518498685181
H          114.28137161851758      111.23586756697379      128.54522476937490
H          114.21394430747068      112.05439350151221      126.98290901543879
H          115.93904441775909      110.48928659576463      126.10117828525071
H          116.00934269905764      109.68414910555038      127.66779712863558
H          116.69532224002066      111.93462977928445      128.67057038826107
H          116.90403534116680      112.51861616130300      127.02022294628401
H          118.32507050243075      110.12239735719002      128.27188445017040
H          119.03232816180090      111.71918960029153      128.03823795293704
H          118.81398347430166      111.47974784646865      125.58712772318822
H          118.06337302926570      109.89633150518090      125.79278897015895
H          120.13081175312533      109.05782854221503      126.89217125188846
H          120.89915282150329      110.62266240483956      126.63142762945120
H          120.61961125726654      110.36386343355721      124.17959939402765
H          119.79453992835589      108.82596037145031      124.42679042680153
H          121.85104413889505      107.87048616778907      125.43019605961392
H          122.67898710029691      109.41370521684686      125.23117924364912
H          122.38253861418255      109.26631585451760      122.77170246833354
H          121.53547099243329      107.73160297104278      122.95788341304049
H          123.57553505244724      106.75646009622567      124.02507708262344
H          124.43469587443658      108.26756848398112      123.73540820654709
H          123.22761297579943      106.47904014623276      121.58028375473170
H          124.92696320320205      106.50432108042300      122.04821226633072
H          124.93590752764372      108.99318862661715      121.45093082217450
H          123.36117427315422      108.73710646996611      120.69654554536667
H          125.92863813148833      107.26590920168404      119.95497556988664
H          125.26032408951346      108.64800349957093      119.09000416432517
H          123.18032851607774      107.32392302228958      118.63361950935165
H          123.92869046033051      105.92509544880164      119.40273350996490
H          125.76413093527657      105.97150787887374      117.72943980800675
H          125.02590575353668      107.37194773935749      116.95402000811899
H          122.97806747817404      106.04854741408697      116.49649076765681
H          123.70258747718836      104.64031232509912      117.26304432970500
H          125.49492620946263      104.61500102780123      115.54039292464635
H          124.79117481843880      106.04711074960296      114.79004232686074
H          122.70539269816227      104.80221602799169      114.31597444788189
H          123.33726187260527      103.39424900643698      115.16832638422986
H          123.53969139638248      102.99405010988657      112.81254185969694
H          125.16460316494762      103.20967774393259      113.46539800075510
H          125.25068014071343      105.50201689941090      112.57977568778661
H          123.56796543275705      105.38429135092690      112.05308971481362
H          124.13496847091942      103.65752580549967      110.42945352645796
H          125.76668202564477      103.51555539744658      111.08114305232836
H          125.86379613994261      104.75489499462182      109.01324955172223
H          126.27536088370387      105.83335817203873      110.34444242746835
H          124.00918176205614      106.80595770063539      110.28860299842067
H          123.52802597786345      105.66795317565833      109.03026724260991
H          125.22725664945033      106.61653869546744      107.50480598644531
H          125.72544139729379      107.76465424674419      108.74495538465995
H          122.87658638567447      107.61043343026741      107.68044007552861
H          124.11382750468661      108.63153113433421      106.94684996102919
H          124.38612079907156      109.89082594157065      109.02961655748804
H          123.23031727551115      108.84439590633519      109.85475491157698
H          121.42602245152634      109.57424116018645      108.37147285605042
H          122.55227182502630      110.54271203599285      107.42081951870269
H          123.00302782368152      111.99193378898134      109.34540469215101
H          122.00912723418766      110.97551621483920      110.38591293877361
H          119.99249156452467      111.56338617969055      109.12802368703575
H          120.94238797204217      112.48760981484227      107.96270767484764
H          121.56614307028435      114.12210939322806      109.63260063399279
H          120.96531769140965      113.10963143322513      110.93902781962043
H          118.64930308329737      113.39477258207995      110.13635010886976
H          119.21165658582343      114.39491357292009      108.79998497380797
H          120.04046911820997      116.09982700422114      110.33006771238109
H          119.77196456787978      115.05572387013592      111.72150149436216
H          117.31730376489080      115.14371136072947      111.32111820943057
H          117.59124470251859      116.20156211861091      109.93644663621293
H          118.61360119155364      117.90273070433005      111.40162483673942
H          118.51626632705724      116.81833460993128      112.77850811421757
H          116.77198689574637      118.52323059635971      112.86946269790690
H          116.09075544578064      116.89872613738012      112.78614676736127
H          114.84168981508661      118.49741527405099      111.40271842357507
H          115.50800934083522      117.18057496807282      110.44504825935168
H          117.34058427562816      118.63878465357060      109.68111634562807
H          116.74075308118813      119.96104034769996      110.67816670252803
H          114.68688715475072      120.09695034897989      109.37736792543478
H          115.06345191420145      118.60590873086105      108.52572641828932
H          116.56671034100444      121.24628536295025      108.29170993100573
H          115.44281162015663      120.56660855414319      107.11706619657576
H          118.16836470416068      119.43525965286538      107.89284157338778
H          117.74976052416817      120.25530249751280      106.39850642154204
H          116.11746028327397      118.42435866733906      105.88024952525156
H          116.63997967066830      117.57762370353454      107.33804590163740
H          118.96918722349172      117.47945899914239      106.42489818242500
H          118.41030063032913      118.29289074466115      104.96900984644591
H          118.34393600011207      116.03964113734091      104.32095070525813
H          116.67376074854148      116.34010875598624      104.79652190515115
H          117.22579260808531      115.35254958670464      107.07010859229240
H          118.83348432537143      114.97446078461348      106.45308601994975
H          117.75669549928230      113.61963861852541      104.61938496957046
H          116.18573258946410      113.92002947622545      105.36453017078570
H          116.98198502637653      112.80805619005775      107.45727211181642
H          118.54357587639890      112.51463519622807      106.69717977824855
H          117.38741087882622      111.16941726731358      104.91575052996559
H          115.86341263064432      111.38672809896067      105.77566012214261
H          116.82407762232292      110.24699608433977      107.76850185276095
H          118.35966510874985      110.06090451320449      106.92240148292750
H          117.21774264899037      108.67640367398593      105.18165604594799
H          115.70113408115047      108.83670975889234      106.06264159509149
H          116.76643692923192      107.75937804261882      108.05153588239826
H          118.25477537231319      107.55381908024742      107.13053828440087
H          117.03763306114720      106.10499376892732      105.50156659089426
H          115.55483529410230      106.31513403794763      106.43440859567403
H          116.72982107415119      105.34685721829851      108.43732830229536
H          118.14665218634460      105.05518211078271      107.42936465150690
H          116.84854843888141      103.49765678139049      106.01514708227336
H          115.39063780308614      103.84920372816218      106.94211575016351
H          116.47109556028036      102.98619356151633      108.99624972384468
H          117.93226854323532      102.60982205023356      108.08503113880458
H          116.68739963950783      101.01417687494929      106.68331961572666
H          115.18784408079009      101.40237611220368      107.51704038724944
H          117.65019560626968      100.19324997093847      108.85328559938252
H          116.26204425573000       99.27152411991231      108.27912011510139
H          114.78934260089954      100.56371742192580      109.84263835945917
H          116.21878591653973      101.38938643467152      110.46763873726360
H          117.17987441868272       99.18252638124419      111.14098732018748
H          115.72410364590372       98.38699590901842      110.54608995104864
H          115.51499451755738       98.56197903056243      112.90850696420455
H          114.37381182651316       99.71126720046611      112.21351098995201
H          115.90700377241595      101.57140367301729      112.69188622291571
H          117.15128207931602      100.44734094911193      113.23968739655791
H          114.42385784341282      100.80350397519308      114.55070685571378
H          115.89875579900971      101.61472614036289      115.07128264703921
H          116.92009813655214       99.23255269894420      115.28303645068247
H          115.25814410136499       98.65315474164612      115.23356250392034
H          116.34009898139831      100.69065145880288      117.21880132997060
H          116.17266335510413       98.96844424939383      117.55124419825715
H          113.73954904129251       99.10746359635611      117.32618332534034
H          113.86374427122118      100.77477114403713      116.75817184947890
H          114.91888699980096      101.39281471705461      118.95366512277489
H          114.58263832813529       99.76956779036286      119.54420435982485
H          112.91943602803052      101.43423123205848      120.30177792357158
H          112.15751981824359      100.16274215877451      119.35082916843540
H          111.89230718291886      101.58113552481512      117.45121820138482
H          113.08844723607943      102.73371081154109      118.05311254827953
H          111.55694250625442      103.60762914363013      119.68016046421224
H          110.44102100327383      102.25889429385875      119.46502175274993
H          109.59728473678284      104.27555982806872      118.33259129077975
H          109.90673715732002      102.96815442595032      117.19334751443735
H          112.10396161382015      104.03169488314690      116.60671566437541
H          111.71628338767313      105.37370297199909      117.68026742420845
H          109.73232922361188      105.90189379268259      116.28395155654927
H          110.06174681657684      104.49813608701480      115.27007655781031
H          112.22384896597033      105.47252209178863      114.57810215401949
H          111.97477494300068      106.82781091716330      115.67720138131834
H          111.39707934544488      107.70031113167275      113.57153742921045
H          109.84703806681198      107.35290495574249      114.32702509307151
H          109.78135338048389      105.16894912451423      113.04290351658831
H          111.28789346631048      105.64469681725807      112.25489742802144
H          110.13333018978255      107.73348495069276      111.44126415354553
H          108.62711126097970      107.12347712037041      112.13308285155983
H          109.06880798780763      105.00874223293910      110.65521498170506
H          110.19802253816464      106.03598505835365      109.77748418186667
H          107.23224718156216      106.58791901986692      110.23379132292411
H          107.93797338280470      105.95970138022439      108.74736272990788
H          109.18109660672954      108.06625680181665      108.41144533593403
H          108.58278982579357      108.68427342060507      109.94910561954711
H          106.23934804252447      108.46049142326862      109.10090782126086
H          106.87315796068192      107.99408651444793      107.52412381800102
H          108.07746168289189      110.16239767965702      107.36131928169388
H          107.41724807268156      110.64972688953165      108.91790406566949
H          105.78987650794619      109.98057626205902      106.42653999861737
H          106.19784609571225      111.60977026050946      106.95837722642015
H          104.45876869628573      109.63411589989767      108.50216788687739
H          103.88439102158550      110.96442260218950      107.50732470174427
H          103.83592270542391      111.60270297983176      109.87382276386482
H          105.55292161317847      111.25843899079372      110.04997696501859
H          105.02286772578870      112.59124734039987      109.02614634691616
H          105.92837745800520       88.01565464201121      103.16219166042674
H          105.70035947132581       89.57364641345319      102.36615439184004
H          106.64828865075167       89.47304615982094      103.84911965693833
C          115.97333883841073      127.49246373612345      102.27985860852512
C          116.80334402463291      127.98470519208882      103.45885449301697
C          117.93681399250697      127.01922885322614      103.79988406236085
C          118.70252629296479      127.46011120487103      105.04526856715583
C          119.87988360724724      126.55046012565852      105.40018010785718
C          119.45602075178611      125.15308082979533      105.84875306526729
C          120.62931794034274      124.34946423447397      106.40577951439931
C          120.20418708894955      122.94980709138360      106.83979251021415
C          121.35949760843212      122.13033833188996      107.40978409539278
C          120.87620733638362      120.77271871569754      107.91285481104734
C          122.01137048303036      119.84733082817124      108.34322255378399
C          121.47892348269347      118.61112057678605      109.06730619628857
C          122.54568249557137      117.53671500752755      109.28691969555024
C          122.76499006932059      116.66400286162323      108.05294907603898
C          123.86521453804289      115.62845699426327      108.26945944974904
C          124.00871401280261      114.68515948929371      107.07878111606925
C          125.12354067112148      113.66459048531850      107.29123570097109
C          125.24463499055699      112.65543892783961      106.14927481580165
C          125.64853956692583      113.29937708658589      104.82266732857560
C          126.13656670524981      112.28831217991814      103.78468516594572
C          125.06045022492631      111.29400945303168      103.35576679505243