3536
 energy: -3716.242681324061 gnorm: 0.000980481282 xtb: 6.6.1 (8d0f1dd)
C           57.69015814136797       54.18576260707462       45.55965210229734
C           58.58566279125732       54.85581771543006       46.60211645324549
C           60.03283957342899       54.43809765134408       46.36874873769960
C           58.10295655411213       54.46460127151909       48.00186071097614
C           58.83805871878526       55.07085934557418       49.20469516885983
C           58.26121824830172       54.44814619045739       50.47559817397900
C           58.71005197317933       56.59638786065369       49.22311453990697
C           59.42001516204048       57.30323207612310       50.38612742000225
C           58.99323760805248       58.77077249122539       50.40226226630115
C           60.95748327167798       57.18992235428821       50.31293062235053
C           61.59033763577816       56.35656322476123       51.43509549500725
C           61.31310162962659       56.97725988416300       52.80521180163221
C           63.11644010243523       56.25125488867905       51.28976034207203
C           63.67266424736695       55.66044336984320       49.99028131650064
C           63.04760258726694       54.30490804465595       49.66327263850588
C           65.19275456407497       55.46841831596295       50.09815725500894
C           66.04720003512227       56.70989439444609       50.39402125119439
C           65.89831712864132       57.76331908513013       49.30066675243845
C           67.50320080447642       56.24286021395591       50.53242741158109
C           68.56276853212573       57.30682589970726       50.85522066540847
C           69.91503359454799       56.60489212809358       50.96582247854046
C           68.21905424782535       58.06153924557277       52.14431598627852
C           69.29211186541986       59.01101042298333       52.70327441251493
C           68.75373569296623       59.61663756685535       53.99959074033136
C           69.65444106616081       60.10279807848992       51.68860872416598
C           70.75045225871183       61.09175537433805       52.13438490172057
C           70.31358303673059       62.52540791705474       51.82537351979581
C           72.09993723052550       60.82325495793065       51.45376093241029
C           72.84342458006786       59.56031342449752       51.91328924347577
C           73.32639365731568       59.71066078087598       53.35371899433432
C           74.01962129307512       59.30800541548302       50.95888454481611
C           74.76864355853472       57.97604545081212       51.12215822826681
C           76.06259793957935       58.04894674825869       50.31054800422449
C           73.90338593512389       56.79975805963448       50.65369127974589
C           74.45835340482138       55.39830926752172       50.96748501077308
C           74.30008012637346       54.49416779643428       49.74324806890008
C           73.75472932399281       54.73704953715801       52.16107155709167
C           73.91762490471220       55.43999058149287       53.51275058280519
C           75.37926181179493       55.44620525839589       53.96158698467602
C           73.08255371603545       54.73839187055083       54.59533594311882
C           71.55903001407255       54.91481532675787       54.51279211328009
C           71.15741746119777       56.34725640341406       54.85348865440915
C           70.91534907930263       53.91344911698125       55.48242164355615
C           69.38130619432810       53.89622771354212       55.56588289116566
C           68.98244144724207       52.94700251353944       56.69659037900491
C           68.76950927022847       53.47147840116250       54.22542589842018
C           67.24024140956901       53.33410869425863       54.19638867110205
C           66.82835026339069       52.64831456957038       52.89201609568148
C           66.52233858064720       54.68992017949318       54.35844256415000
C           65.50306239846624       54.72182704271685       55.50366165586981
C           64.37409881936632       53.72023876990753       55.26765377986778
C           64.86727793074562       56.10812520328101       55.67424287404865
C           65.80151804893914       57.26816160714169       56.03268298020689
C           66.66283224250040       56.95041784226432       57.25526962311704
C           64.99311277893665       58.54241869699479       56.32527972388920
C           64.03346569985243       59.01383608696884       55.22576151804518
C           64.77241269802930       59.26989105930062       53.91442691873405
C           63.30713725154433       60.29218270666895       55.67369252020976
C           62.11831509107456       60.05874658864948       56.61802528075252
C           60.92937952744216       59.49705906871511       55.84140892875836
C           61.75333420355917       61.38320544636132       57.29890705712236
C           60.63336555195506       61.32025187890901       58.34532550289530
C           60.29056726181783       62.74411599804657       58.78196632649615
C           61.02008800705641       60.47615436931623       59.57282492717081
C           60.38556637114929       59.08143542753546       59.62211608145581
C           58.89673802257973       59.18641891170029       59.95158848560335
C           61.07339823655273       58.20435416823744       60.67703375601906
C           62.47963437894260       57.70738331273993       60.31714862963288
C           62.43550479023128       56.70111651855073       59.16831306385686
C           63.13829665474191       57.06446190603302       61.54739262779988
C           64.67262840345117       57.09384222951830       61.52135379271138
C           65.20447489181744       56.08905607799202       62.54159081314308
C           65.20357230940091       58.50919175818954       61.81372615620541
C           66.28247118069508       59.01718541726274       60.84606189573882
C           67.54277392414771       58.15981063163041       60.91353821271995
C           66.57778906188855       60.48451979209582       61.19046363215927
C           67.61746087764473       61.21328895460078       60.32789469692946
C           67.83891136426554       62.60929463688520       60.91063068237969
C           67.14790378337041       61.28553257103163       58.87156478493863
C           68.06618834315820       62.02348545891377       57.88591158788901
C           67.34191327620971       62.11609960905293       56.54364389662267
C           69.41015793148328       61.30174734439849       57.74728558606569
C           70.46242096852295       62.00355709017246       56.87826051778647
C           71.68332972083746       61.09063561156596       56.75221121767094
C           70.87557684212992       63.37457991627921       57.44583324056994
C           70.33171235729799       64.57084308179402       56.65412282339533
C           71.07526289385102       64.70896013268201       55.32573378883516
C           70.46765617772654       65.87365897317413       57.45437908056140
C           69.43931151761180       66.04878813465044       58.57361914688681
C           68.03117499040906       66.31599539224139       58.05449533304836
H           56.65438324035691       54.49632564062749       45.67305018038211
H           58.01687001470119       54.44210466563182       44.55515402096884
H           57.73642034856417       53.10373981456414       45.65945871702993
H           67.65927005544680       65.47599513109954       57.47337968150455
H           67.34873106048931       66.48192150276115       58.88528493815890
H           68.02252854527744       67.19955605168303       57.41958166330677
H           71.47238621008736       65.91467986756389       57.88283538008875
H           70.37052441587608       66.71969238263432       56.76953385406562
H           70.54678519400694       63.44312875639677       58.48343112583961
H           71.96538651416668       63.44973560051751       57.45614533483094
H           70.04803088725065       62.14403254180866       55.87621128811206
H           72.42667198019049       61.53195471654333       56.09177622606381
H           72.14137469540563       60.93243435912444       57.72662880426279
H           71.40043201226422       60.11861808456064       56.35124784785258
H           69.84246640737938       61.16164955606899       58.73993483166848
H           69.22212296960585       60.30859715261440       57.32898348603950
H           67.00824090574689       60.26907961645060       58.49820752677682
H           66.17066473604041       61.77654731501683       58.86086955834327
H           69.27383367784022       64.40397824259904       56.43798468319720
H           70.63567125477768       65.49880216604203       54.71971470984437
H           72.12048896669107       64.95559723155183       55.50272460185185
H           71.03579646187376       63.78324278398032       54.75706216560519
H           68.23688173583541       63.03820105018673       58.25085367917813
H           67.17501904395037       61.12073264889093       56.13680092911629
H           66.37718079984938       62.60339929976656       56.67200069374579
H           67.91343081338889       62.68670972918473       55.81708761705735
H           68.56240984143905       60.66724711797497       60.38449689323836
H           68.67642188899552       63.10682730177144       60.42960119187416
H           66.94961970868160       63.22219383604754       60.77793193018671
H           68.05640453123117       62.54615909858210       61.97480546883029
H           65.64329103794061       61.04717357875696       61.12653788165216
H           66.91324783263288       60.52458548174063       62.23072527645076
H           65.87664497209651       58.96071398980790       59.83079163275925
H           68.27631901104800       58.49164601564113       60.18356115532394
H           67.99119769801904       58.21918752517870       61.90342064620449
H           67.31268480729925       57.11969936777212       60.69919743831787
H           64.36994822266161       59.21379271647525       61.77947579778537
H           65.60597024693669       58.53504034442847       62.82903521350640
H           65.00858420424741       56.78645359506850       60.52620891488963
H           66.28964311672233       56.11463213840544       62.59111097334529
H           64.81062077844052       56.31596142213820       63.52988257289162
H           64.89368475508384       55.08128090415887       62.27847430728070
H           62.80876053571532       57.57613809210663       62.45452691350432
H           62.80160601717494       56.02737182820551       61.61903374554884
H           63.08914048492298       58.56127256080939       60.00634491726099
H           63.42956507074854       56.30515340082122       58.97183627565992
H           61.78071588869543       55.86826788436579       59.41987423013248
H           62.06996054379315       57.15659726960036       58.25119412898724
H           61.12807812018254       58.77820275042432       61.60661715189925
H           60.44478220378368       57.33110345028752       60.86979791287332
H           60.48663493945401       58.60485058325074       58.64482009111028
H           58.37798259363421       59.81400721975218       59.23117080256684
H           58.43235464404037       58.20350194760319       59.94106651866792
H           58.75820278234099       59.62039358319063       60.94032622169022
H           62.10667595836963       60.38447813709515       59.60455702872458
H           60.71636280869862       61.00443948661366       60.48034667341122
H           59.74175271130327       60.89628339778775       57.87729573453294
H           59.44954168133989       62.74067207993038       59.47190606526607
H           61.14421951831066       63.19636450377268       59.28371191054165
H           60.02852546494881       63.35973376295988       57.92354755402768
H           62.64816627687390       61.78761165535776       57.78068285030223
H           61.45665551386266       62.09007191183164       56.52037994727862
H           62.41522944202632       59.34006139516269       57.38622698882572
H           60.11493610040589       59.22943807550002       56.50891831539172
H           60.55978197432670       60.23544885266196       55.13338520403560
H           61.20965823627281       58.60406143895173       55.28942055937711
H           64.03161932055056       60.94909455566243       56.16068368240925
H           62.93749651918298       60.82121005012635       54.79234336430304
H           63.28687812808669       58.23597965839677       55.05003523422833
H           65.22080951183430       58.35659261625110       53.53343162180780
H           64.08965739498363       59.65275137994675       53.15830792416708
H           65.56040631478589       60.00369891740541       54.06383287043405
H           64.41892464797687       58.37626514513001       57.23960600460045
H           65.69940668209689       59.35174383220434       56.52858678141406
H           66.46728177956224       57.46671137595520       55.18771875332274
H           67.24211583733856       57.82421701797041       57.54772771735286
H           66.03795854144025       56.65976347545331       58.09708048008840
H           67.35972287333907       56.14188053437096       57.05248893153046
H           64.35471399157049       56.35058058381558       54.74102328518570
H           64.10779666382254       56.03355747936702       56.45722212640196
H           66.01336724559302       54.44800646257613       56.43149066574937
H           63.81716159060147       53.98371991146493       54.37096047829736
H           64.75702349512144       52.71146264231879       55.14932064216954
H           63.68330362131403       53.72585441560056       56.10857287772016
H           67.26550891620651       55.46732135314890       54.53581848044391
H           66.00779994805119       54.94600976850205       53.42917124017674
H           66.94544114166354       52.67538719280004       55.01668870699774
H           67.26202077359271       51.65146519580866       52.82867866353799
H           65.74718188442135       52.54901664944455       52.83086828708447
H           67.17386792635340       53.22147389659727       52.03312035011844
H           69.06108294127613       54.19016914238458       53.45619072034472
H           69.20561647519932       52.50641566494975       53.95208533529587
H           69.02828252310997       54.89813833448441       55.82609246390084
H           69.49917384652498       53.21731738183344       57.61516120349590
H           67.91529369513790       52.98990981963419       56.89451901434437
H           69.24608513165585       51.92287897345164       56.44352171407014
H           71.24689451786359       52.90759568113107       55.21026600886688
H           71.30566922529961       54.12407874988400       56.48197455038121
H           71.23350447694943       54.68451645546332       53.49481480860290
H           71.69651990092028       57.05695734364190       54.23209681648702
H           70.09396048154883       56.50319565800019       54.69274179949432
H           71.38418581669993       56.56619975994911       55.89521981690115
H           73.31385837966850       53.67067703138157       54.55706550599410
H           73.40632414558539       55.10436838690012       55.57319956503819
H           73.58015831063067       56.47443156238968       53.41647359415896
H           75.74663259855234       54.42684382206890       54.06357217995271
H           76.01288378241503       55.96765079441954       53.24961371565590
H           75.47904317136103       55.94268576815735       54.92496665980251
H           72.69145524642953       54.66381636943251       51.92473142308068
H           74.13598966310300       53.71717685509072       52.26175152962814
H           75.52584284058989       55.46814889846297       51.18843574234569
H           73.25113104167923       54.41528746676785       49.46533248490889
H           74.85174929884170       54.89719757001117       48.89657443230369
H           74.67533214835497       53.49372048695216       49.94858272893737
H           72.91273624172375       56.88042857998040       51.09956941462422
H           73.77835438963731       56.89925159645935       49.57355001343601
H           75.03398627302340       57.83724869883844       52.17255714751185
H           76.62008293022335       57.11757993858171       50.36798417046266
H           75.83997068897739       58.24720901558758       49.26372789988130
H           76.70195632426666       58.84734877437002       50.68150567683381
H           73.65295600653067       59.35906118150098       49.92974951215194
H           74.73458599674140       60.12464408002363       51.08836233258319
H           72.15464068086881       58.71380043406471       51.86234386692345
H           73.98178031978425       60.57468197122017       53.44434216672366
H           72.48792345595652       59.84243184208972       54.03189948733469
H           73.87770978182773       58.83190640386781       53.67784292697507
H           71.93300830755116       60.76508895270402       50.37470390842259
H           72.75541303124487       61.68017188482109       51.63100636552176
H           70.89216717879575       61.01931872510569       53.21414920761593
H           69.38248987001793       62.75871335560641       52.33665890620539
H           71.06847300770146       63.23957539537464       52.14856019222027
H           70.16090556873985       62.65454979665983       50.75551085861277
H           69.97207276053236       59.63121956827687       50.75797808142527
H           68.74221179399107       60.66040362797620       51.46703973878050
H           70.18689127087615       58.43495717886582       52.94849629489129
H           69.50782354691071       60.20602063339791       54.51181172467294
H           67.90411315395539       60.26253968985044       53.78937095920392
H           68.42859281994197       58.83226304323332       54.68030803302551
H           67.31257327364614       58.64637657696511       51.97448696665311
H           67.99252746716463       57.31902684455984       52.91484774734491
H           68.60955294431082       58.01641264769783       50.02392661345501
H           69.95603215148049       55.99558474369204       51.86617388822903
H           70.07916435986445       55.95637795702126       50.10768626349534
H           70.72620158336390       57.32545193965313       50.99686999098961
H           67.54372189870656       55.48415996415735       51.31872475113406
H           67.79079299791222       55.75684872262634       49.59641382737925
H           65.72676341924102       57.14040041080577       51.34620164481755
H           66.48124906995835       58.64967342113850       49.53665824409400
H           66.23927093979961       57.36904509373587       48.34640982535581
H           64.86063054833421       58.06998463417128       49.19769066300710
H           65.37891040315630       54.72964155924896       50.88265731338632
H           65.54475331355046       55.03365424714949       49.15981686200374
H           63.45938686938550       56.34411962854890       49.16323830349067
H           63.17849792355747       53.61233866401543       50.49197126935731
H           61.98458202602454       54.40299086118095       49.46180217150654
H           63.51957760348032       53.87160687229105       48.78343249844392
H           63.52688873268173       57.25561698221529       51.41205549964207
H           63.48752625617084       55.64326220087748       52.12049392644617
H           61.15710078401549       55.35175940384638       51.41643162764107
H           61.74832562720442       56.36426245094190       53.59288878975298
H           61.75292720492659       57.97113551830804       52.85931706597486
H           60.24920825130676       57.06588407307031       53.00146322868468
H           61.23595653069015       56.76009192918197       49.35071434936267
H           61.39476160295863       58.19044333558571       50.35250120554890
H           59.06921381054017       56.85222143145420       51.31646807219475
H           57.91863958304879       58.85507141524911       50.54880814903927
H           59.48689139880078       59.30790119411677       51.20769607380228
H           59.24381950548550       59.25162106989949       49.45910924447010
H           59.09876383640425       57.00064306913271       48.28791382847682
H           57.64660465839068       56.84781161993958       49.26772238434987
H           59.89591832401773       54.80259748777990       49.14346446935491
H           58.85938894726490       54.69774432742038       51.34609366540852
H           57.24612815408289       54.79818624735023       50.64745816594397
H           58.23532762415192       53.36621949871072       50.38722140178065
H           57.04922909859288       54.73602940914416       48.08702919281323
H           58.17013633911066       53.37651806942862       48.08151139239064
H           58.50373624458154       55.94014165485976       46.47571896992120
H           60.33022100818918       54.66776107163918       45.34828003983090
H           60.70717852582337       54.95742047348342       47.04436012046799
H           60.14385956851633       53.36761590098342       46.52507960847107
H           69.42732257381495       65.16492124343473       59.21402604545431
H           69.74772760453904       66.89270847381783       59.19548708620206
C           35.88447465088475       61.71336692804569       49.56568459569078
C           35.82462243568423       62.74146248386938       48.43845898465346
C           34.56488242364492       62.51870947990290       47.60195996824505
C           37.05456139618987       62.67471178309447       47.52371351519508
C           38.41619860881323       62.88288526978958       48.20171601248407
C           38.51566003963468       64.26638850846641       48.83574160762113
C           39.51670700581990       62.66571881213198       47.15220345685589
C           40.97075344451786       62.84870898146340       47.61771066799727
C           41.88990710106837       62.61185030459189       46.41952526300702
C           41.30471044874974       61.89470776286547       48.76835243441701
C           42.67735536104204       62.05620669981626       49.44259888247092
C           42.78664960061123       60.99240884928730       50.53601445229381
C           42.84136913259270       63.47130032235744       50.01520587247175
C           44.00790944323225       63.68399527755064       50.98861934024369
C           43.87516497849382       65.05850858023814       51.64520568546708
C           45.40317244920728       63.48823596930428       50.37437446976534
C           45.83578650139174       64.48217855701678       49.28266785360870
C           45.65568993276659       63.88938499214663       47.88614544258721
C           47.31064136224439       64.87522725475763       49.45258048261429
C           47.59349448909337       65.88159391992025       50.57531313778422
C           47.16380399673058       67.28242617077792       50.13291607343792
C           49.08707241117040       65.91095107664809       50.94727699889511
C           49.58529936719042       64.94194952909741       52.03504510462191
C           49.63520620455109       63.48508314026701       51.56972745995351
C           48.79869470614037       65.01149044674828       53.35107838576473
C           48.66823296929460       66.39733141627633       53.98881899693104
C           50.02529060045573       66.88775932436435       54.49039072299102
C           47.66908272947545       66.37538215589946       55.15733760550217
C           46.19146373265108       66.27563110743615       54.75745945719079
C           45.72287173745160       67.54425990140135       54.04655901756455
C           45.29950435778319       66.05080502156437       55.98834286951380
C           45.32479313533467       64.63896508406404       56.58373482921341
C           44.67356823319764       63.63113756480753       55.63543722418214
C           44.58681700002436       64.59786246797462       57.93151164733499
C           45.19210270290560       65.44148911789716       59.05988941345003
C           46.65652458998948       65.08723673674830       59.31523342573872
C           44.41081194561097       65.26112087821311       60.36870133706319
C           42.93250535446930       65.68218505719143       60.36309567588126
C           42.74635046755844       67.06354140706991       59.74412188253962
C           42.44590400587798       65.66414134563337       61.81967849073941
C           40.95731096142083       65.93318032279674       62.08080491541210
C           40.77325277703638       66.15463718604231       63.58460040866553
C           40.04092371649539       64.78981901601340       61.61283145390229
C           39.47159805367274       64.90760324750802       60.19165577046687
C           38.55454489035946       66.12075174048395       60.04627321973885
C           38.68362964518159       63.63195466234463       59.84104600212030
C           38.76143112212076       63.22754512540683       58.35971230678623
C           37.58732095658015       62.31364814420677       58.01419953910019
C           40.11512453254640       62.55367187334750       58.09032838801545
C           40.29418611811590       61.83248721461018       56.74746363779534
C           41.67423863842453       61.17524748177133       56.74098690421956
C           40.13265790525447       62.77389165091786       55.54917889435959
C           39.98334606509203       62.06445582881700       54.19306117067912
C           40.16289078633621       63.07928919216510       53.06610286705837
C           38.61819344797025       61.37384152136748       54.09856454464197
C           38.35633073079733       60.52431721257290       52.84506577697846
C           36.94687531407279       59.94100422696911       52.95387235124274
C           39.42033710355198       59.42809542794223       52.69980819247058
C           39.16366420913391       58.34538447400188       51.64121545510640
C           40.30449928632843       57.33055253225059       51.70944522278553
C           39.03997383891379       58.96000385312686       50.24273119344129
C           38.63571828446165       57.99089031114871       49.12345529085729
C           38.70791207104916       58.71946498326258       47.78147519194628
C           37.23262492639586       57.39491760595560       49.35390753363879
C           37.23475549734768       55.86177593456171       49.39147757923525
C           37.40145016792066       55.29883320236195       47.98162425299721
C           35.95902255945473       55.30784368197776       50.03930640867091
C           36.08611813018202       53.83678137155081       50.47990771038126
C           34.87662922306771       53.03035968114747       50.00502989406342
C           36.20475063284648       53.68920455891609       52.00312589157894
C           37.41286035509989       54.36340007574680       52.66367893767060
C           38.72748712197274       53.72565167168381       52.21265043805133
C           37.33701969262278       54.25946733952775       54.19640960473223
C           36.09672270029653       54.85590133648683       54.86840524205251
C           35.99016431262134       56.35482153840007       54.58863835674870
C           36.12821112215004       54.64059425762692       56.38824829118833
C           36.21930884025145       53.19253224195881       56.89621894900277
C           35.15682539578941       52.29609647412425       56.26571892225466
C           36.06008559781693       53.22503392673473       58.42383435372015
C           36.47016170036778       51.96034168139850       59.19511210324346
C           36.04820863588912       52.14581690191184       60.65311017035612
C           37.97989700244676       51.71780012248868       59.03629070250807
C           38.66261489835627       50.79370114346374       60.05536542958706
C           40.16754730848389       50.78701437523488       59.78150706708270
C           38.09195789626819       49.37261988241973       59.99927518960930
C           38.55456031750402       48.42337825944725       61.11511031511901
C           38.09686971179909       47.00373876800221       60.77987939429398
C           38.01824486995525       48.85702822281357       62.48433999901320
C           38.69697769523290       48.15077447353171       63.65616300084577
C           38.20250051883775       48.68490775907761       64.99528178643526
H           36.03358065893720       60.71368775333399       49.16215050189511
H           36.69366881361228       61.93393358785328       50.25684311684780
H           34.95366691988648       61.71702039312029       50.12924966274525
H           38.41088317325852       49.74928617469774       65.08313648381568
H           37.12881534541514       48.53839389676533       65.09171079030460
H           38.69311644897338       48.17152900302329       65.81950093783408
H           38.17231720324465       49.93011048166363       62.61065435351870
H           36.94191661955274       48.67158536711231       62.52308640964013
H           37.00211195465182       49.41736583797434       60.02652606887174
H           38.37723293718135       48.93582369303543       59.03860136928193
H           38.50925408931036       51.21408599776217       61.05131327834145
H           40.70457618286802       50.23706263895022       60.54917264143052
H           40.38179424669733       50.32787417762310       58.81835280215434
H           40.55683806925096       51.80276222556748       59.76868208094841
H           38.15956385025662       51.31308782724732       58.03750953954341
H           38.47756802917757       52.68900310251414       59.09152739913653
H           36.65201544561809       54.05531811119328       58.81920412125369
H           35.01213617311800       53.44272864956672       58.64595462764295
H           39.64854742071144       48.42840072986485       61.15531275613073
H           38.43986939714907       46.29419852718998       61.52802867719111
H           37.01047709651071       46.95837240060563       60.73539630647728