3536
 energy: -3716.237223019745 gnorm: 0.000848070106 xtb: 6.6.1 (8d0f1dd)
C           55.14281571680110       60.24215887936018       64.22962260273427
C           54.72436634987714       61.71222454205294       64.20781957957374
C           55.73443886224056       62.54316349781938       64.99487143101722
C           53.30583608595515       61.84779387609383       64.77266315305037
C           52.66997386441621       63.24171339111167       64.67423170455845
C           51.45970596647166       63.30306243691529       65.60674231875971
C           52.24472144761160       63.54256862328754       63.23438018735123
C           51.90162223157882       65.01094205898119       62.93353452942669
C           50.87087445399189       65.05014877822532       61.80778188979564
C           53.16994890522335       65.79369345488726       62.56714022944750
C           52.96969265752544       67.29271394679353       62.30914318485386
C           54.21169436926318       67.88221597837044       61.63966036385118
C           52.55923679131082       68.09678226675517       63.55415317436549
C           53.57156573914903       68.14848910004575       64.71363998909564
C           53.15202857568087       67.22277837442755       65.85532829228804
C           53.71108097281769       69.58083629163308       65.25179797291537
C           54.49218346139742       70.51587984929542       64.31652328728519
C           55.99425597095262       70.36424974174305       64.54624412179044
C           54.05906438748403       71.97744927038940       64.49544846320589
C           54.36435481023468       72.87727137486296       63.28718069954617
C           54.31322383144275       74.34229471240006       63.71856838841224
C           53.36518621380317       72.60077770284458       62.15750863364316
C           53.70485724858908       73.21772210251228       60.79440313366494
C           52.55154823551047       72.93843287883548       59.82924114895611
C           55.03227863476239       72.68667671553150       60.22083617422167
C           56.18550580599140       73.69727705973375       60.27399708410265
C           55.97354515522357       74.79733195783398       59.23280079580719
C           57.53720127561628       73.01667004347448       60.01541354915359
C           58.08965381959234       72.18885893796234       61.18197475360388
C           58.60608837957923       73.10052304269790       62.29527364539562
C           59.22860096212496       71.27320733132878       60.70882379324001
C           58.78973904906329       70.05800587682545       59.88504898236293
C           58.04901076633041       69.04688763936143       60.76035925098271
C           59.98749811594553       69.34884836452864       59.23688422384129
C           60.84511394615631       70.16016331143550       58.25327764724997
C           59.99402419821121       70.82098862399160       57.17189668613267
C           61.88014129525482       69.21043913056793       57.63047051827202
C           63.03836533154175       69.86431346829144       56.86133070233537
C           63.80680534770300       68.77970900557375       56.10597019536849
C           63.96079793616529       70.63440902992961       57.81482311750970
C           65.17799610595418       71.31649492349138       57.17406000235123
C           66.10816473110626       71.82221123856942       58.27616835502111
C           64.76459016960844       72.46199001050202       56.24075880652337
C           65.84474368730750       72.86861297739189       55.22073426049796
C           66.49262238684756       74.20081330447165       55.60255424920631
C           65.26881505900020       72.99156561124593       53.80168865938882
C           64.76981358654622       71.68794058412976       53.16654560430781
C           65.92546235729912       70.71651467546856       52.92324186290023
C           64.06448970550083       71.95485220488075       51.82642602387207
C           62.84885263712154       72.89085731981508       51.86321551027915
C           61.79728167660743       72.40053423934079       52.85920449184994
C           62.18937191991961       73.01085781056857       50.47879301135593
C           63.10257575218175       73.44615622016914       49.32770330628460
C           63.80277661935510       74.77014976399029       49.63826381528587
C           62.32432619157309       73.61266172450314       48.01147923416467
C           61.48092467797277       72.41857073418284       47.54162598141048
C           62.31366559993836       71.13811251230462       47.49702237474611
C           60.88458445196543       72.69145664577110       46.14477521423048
C           59.39913651378583       73.08152151114223       46.10602635010977
C           58.94635789558502       73.11420950875552       44.64534772254408
C           59.16378764276096       74.42705157367834       46.80066447315384
C           57.75179273892117       75.02289582937105       46.68983793542623
C           57.72369092032784       76.38225737914841       47.39069739057801
C           56.59287837286390       74.11772143841897       47.15175273443143
C           56.27409127450718       74.03192856427900       48.65010197901822
C           57.35724303298383       73.29453040552474       49.43468723685272
C           54.94155349180108       73.29451556033391       48.86761696068546
C           53.66760026590550       73.98641223798195       48.36500333536706
C           53.48129803382931       75.35450952434681       49.02120308946696
C           52.43894555532599       73.11210551332135       48.66484296417137
C           52.27916611462310       71.87864268406396       47.76775796048166
C           51.77623713420397       72.27685421752304       46.37962946102657
C           51.29555931055511       70.86899106598464       48.37665403366526
C           51.70745979953328       70.22227875272156       49.70687341469718
C           53.13667058214928       69.68323788459206       49.65126933044424
C           50.76450938041937       69.06111640104481       50.05927114657973
C           49.27768737262323       69.40084605497513       50.21385770831977
C           49.05336854797953       70.32828247512441       51.40817815437358
C           48.44804985351527       68.12036737349065       50.40732188080940
C           48.34145039056132       67.21075900654021       49.17747257353584
C           47.52102335118987       67.87410246095821       48.07034418649955
C           47.69596194127882       65.85916682045092       49.51878834123303
C           48.39432851803481       65.01604200393919       50.59350613209747
C           49.89352054361173       64.88372474982394       50.32872826067800
C           47.78557053392652       63.60711596995152       50.65739225043772
C           46.28912091752652       63.52046203130633       50.97727196957110
C           45.94958359856022       64.26438661582003       52.26853033874816
C           45.85119052723920       62.05514447355984       51.12437768947680
C           46.03862463801872       61.17147559493313       49.89056814553314
C           45.24148002954734       61.63945127551748       48.67907389218004
H           55.18179246190129       59.87395880015993       65.25346099496925
H           54.43573811744703       59.63052083873231       63.67338094908422
H           56.12908591547622       60.11714599664843       63.78603881192463
H           45.33352126040717       60.92251050645555       47.86545524710528
H           44.18689383914719       61.73727462080200       48.92956725081520
H           45.59935485733910       62.60195027338675       48.32214354745196
H           46.40963795958188       61.60964859060137       51.95234552620192
H           44.79165574387647       62.04013007417347       51.39674647659502
H           47.96675303531533       63.12314483319025       49.69536476626954
H           48.32456303540993       63.03433751551037       51.41776783295150
H           48.26070782692990       65.49746440276498       51.56553210169881
H           50.34062376501368       64.18504218661091       51.03223594207041
H           50.06949000185501       64.51221390237400       49.32315584523940
H           50.40056672217941       65.83720468089564       50.44070813996683
H           46.66593728588826       66.04579490485314       49.83197632722404
H           47.65342792976703       65.27050354256178       48.59701689492288
H           48.88849845408114       67.56122633211919       51.23394214874722
H           47.43507987652633       68.40269801703484       50.70784460578771
H           45.71732088272316       63.97158678175301       50.16065935980262
H           46.57786826965188       63.90943406180190       53.08175364735980
H           46.09755899385839       65.33545337338688       52.15900707322464
H           44.90917978102544       64.09694165105398       52.54133343522744
H           49.34070849154650       67.01880393875275       48.78041660779455
H           47.42791956626827       67.20858990700363       47.21429466311907
H           46.52022058457326       68.11271183720794       48.42648207541750
H           47.98912221952332       68.79307134110306       47.72718762072500
H           48.92581952645319       69.91244284692554       49.31457501649588
H           47.99350238395473       70.54214008735866       51.53289455278374
H           49.41805963084457       69.86430304398513       52.32218222612495
H           49.56989265648503       71.27514592896992       51.27176789658198
H           50.87769547776519       68.30598894161329       49.27933153365932
H           51.10245349350070       68.61543930788196       50.99899328573635
H           51.65566281304459       70.97059103598852       50.50405590690871
H           53.85961578936264       70.48717848384494       49.54911048242410
H           53.37644457022845       69.14017343610097       50.56153296596482
H           53.24818633633055       68.99978439417455       48.81214987545822
H           50.33820797085871       71.37769610081769       48.51247307059079
H           51.14053929238449       70.06960846927332       47.64645883833420
H           53.24892968796745       71.39349871699127       47.63748342512567
H           50.79138129484186       72.73618839941389       46.44636060436235
H           52.45143812366270       72.98548979022104       45.90676342157555
H           51.70227657951808       71.40197364828796       45.73706152148476
H           52.49900022742049       72.79883975075826       49.70834402908349
H           51.53692004390432       73.72146767499619       48.56291475396068
H           53.73337563628738       74.13376023449661       47.28316813446575
H           53.46118926460757       75.25648576798348       50.10486459075554
H           54.28469811470571       76.03447869290797       48.75076757219887
H           52.54346176815466       75.80416522467063       48.70095913627077
H           55.02305254471595       72.31515835889032       48.39032115780417
H           54.82171206756489       73.12685403883613       49.94191746535706
H           56.18216333934256       75.03975814031904       49.06028146166317
H           57.55404301884620       72.32423035714967       48.98647223275747
H           58.28481076164231       73.85757623217427       49.45917619632790
H           57.03877692016965       73.13731462793129       50.46400189697362
H           55.69748535602317       74.49751992601132       46.65407280063366
H           56.75973514785441       73.10661003961286       46.77637216561391
H           57.57248815674428       75.21529163292463       45.62510959730277
H           58.42417259179164       77.06547627064366       46.91415647403763
H           56.73020401372567       76.82244379109493       47.33353860293207
H           58.00455975738537       76.29077618925595       48.43717531577624
H           59.43146630001880       74.32560501531538       47.85105212565591
H           59.85133718086864       75.15630015195167       46.36050635816195
H           58.83366926650621       72.30327915957970       46.62925302362451
H           57.87032936476219       73.24280964674892       44.56452850760017
H           59.43116026986205       73.93338984056099       44.11766090337899
H           59.21192500273495       72.18463510064404       44.14586261132352
H           61.46198340547817       73.47337266061679       45.64549777020358
H           60.99373885428191       71.78589221036886       45.54414802729856
H           60.65842129532003       72.26647169567767       48.24641652970611
H           63.15628214425023       71.25632457882966       46.81865213614198
H           62.70006116992332       70.88635141317367       48.48064910839451
H           61.70533748836152       70.30607213739582       47.15005244592902
H           61.67341816621602       74.48410411422255       48.10754341639061
H           63.05447922447080       73.84036174786596       47.22888510640266
H           63.87153526605034       72.68407191922458       49.17376054352588
H           64.37704946712124       75.10571361661535       48.77657863470318
H           63.07172659951270       75.53961801127663       49.87963885992713
H           64.48572146102923       74.67035787291269       50.47763225082797
H           61.74943042829960       72.04360149278871       50.23314551828130
H           61.36932650901747       73.73066723024708       50.55566947116655
H           63.17143337087602       73.88939089136562       52.17214656690943
H           61.53229196278614       71.36513978301795       52.65625961618341
H           62.16103047311375       72.47027370278403       53.88089970697026
H           60.89443921182887       73.00354310305991       52.78494980176519
H           64.80698150638572       72.36933346763017       51.14156925048366
H           63.74121481474438       70.99357244356332       51.41771803636249
H           64.06261784969337       71.20037091975647       53.84216324176302
H           65.56541561450381       69.81111769397064       52.44070748529081
H           66.67827317741988       71.16989424578102       52.28097163085303
H           66.40310832020918       70.43144801164853       53.85701852387766
H           64.44806691882232       73.71000415455330       53.84543930936047
H           66.03816007893228       73.41526113426102       53.14942648052878
H           66.63160927734901       72.10853625425572       55.21325297853602
H           67.30873594680044       74.43991287337154       54.92282309301466
H           65.76195904498204       75.00657114730710       55.55248795888621
H           66.89225768322395       74.16682114036063       56.61290934166765
H           63.86901336663320       72.16019847269975       55.70048193467979
H           64.48774630780876       73.32978740222430       56.84438974093252
H           65.72833085460113       70.57182068986484       56.59111619274287
H           67.01764903259564       72.24525059573590       57.85591700488871
H           65.61645459417390       72.59316817378676       58.86730470440553
H           66.38964317549184       71.01069380977459       58.94373883985119
H           63.38005327419922       71.39938399410792       58.33235064660165
H           64.32390158211602       69.93175453319748       58.56935949452819
H           62.61611982078523       70.55414924913472       56.12448897044314
H           64.32542498810243       68.12729151340282       56.80602951599165
H           63.12439353334318       68.17319782848945       55.51445785978127
H           64.53791958657291       69.20932626924959       55.42670636919004
H           62.30714061459382       68.58876146990254       58.42118533869955
H           61.34656828766340       68.54962204973840       56.94253335507808
H           61.37229711031818       70.94128585736286       58.80781647167962
H           59.34745664596285       71.58447130020565       57.59684423615564
H           60.62269698453061       71.30194177075624       56.42645405690244
H           59.37453982747904       70.07979130177590       56.67255865983842
H           60.63868109419507       68.98860973601299       60.03647100716744
H           59.60597798810760       68.47266839239522       58.70718652446347
H           58.10690716754985       70.38292524470073       59.09519808231770
H           58.68104504374214       68.72583819942574       61.58611380618881
H           57.13500431199742       69.46792426220885       61.17101111662547
H           57.78142214389432       68.16986588297755       60.17638684384330
H           59.91929162991834       71.88059302105566       60.12279629826948
H           59.77678795001897       70.91117592373077       61.58262896612057
H           57.28713264590041       71.57118183847558       61.59403636453641
H           58.95888557595458       72.51096468267073       63.13966094887085
H           59.43263220291518       73.70903634996098       61.93246468312392
H           57.82645586439643       73.76772364422258       62.65526978182989
H           57.42471342026587       72.37795698500840       59.13705364891333
H           58.27570889756529       73.78404418379171       59.76672533582022
H           56.20365459330914       74.16387525708710       61.26305279557418
H           56.73861555553158       75.56587263040666       59.32425134391770
H           56.02627894668903       74.38057932055973       58.22849976410558
H           55.00257180856386       75.27191552269144       59.35284521678498
H           55.31514010304650       71.78028188391836       60.75725843701951
H           54.88865287086408       72.40173018288806       59.17604854568773
H           53.77689567436002       74.30263522391064       60.91613887848715
H           51.61759910991864       73.33265877142689       60.22379867285460
H           52.73781552358877       73.40570692867837       58.86413663405697
H           52.43080399237583       71.86794273851767       59.67796167069324
H           53.26821541824790       71.52179356246279       62.01957866542072
H           52.38546054272999       72.97270675051283       62.47111735430174
H           55.37509260602656       72.65845282208845       62.93433421318976
H           54.52387922649154       75.00718655101120       62.88446846824301
H           53.32769484177639       74.58880456367801       64.10981783310838
H           55.04782897868004       74.53649171585957       64.49793102714220
H           52.98254396313169       72.02013934273825       64.68191693670445
H           54.55462297017336       72.38328950350851       65.38099757233906
H           54.27840610065732       70.21910761315613       63.28750692699705
H           56.56007629764090       70.98490217314001       63.85572050848533
H           56.25712690381094       70.66003487421375       65.56066813130246
H           56.30132471474214       69.33134059437218       64.40295029126716
H           52.70662403701382       69.97809123423728       65.42009294425463
H           54.21115383418273       69.55570199615434       66.22326907605729
H           54.55105582117395       67.82109757062611       64.35788331641861
H           52.21336940339350       67.56014937837840       66.29209347713521
H           53.01607778365779       66.20483785713176       65.50290879524449
H           53.90667609276733       67.21431277977254       66.64033952641397
H           52.34915553300664       69.11581057747851       63.22032712511803
H           51.61576608910775       67.69867639615275       63.93210917512424
H           52.15083471460715       67.40426643671937       61.58883209742580
H           54.43460129736837       67.34448138540596       60.72072539359639
H           54.04740616423879       68.92692486811357       61.38118290872323
H           55.08363662533646       67.81987361573069       62.28432348463026
H           53.91120893677348       65.66526977539098       63.35757904880607
H           53.58666415730116       65.35114447823197       61.65783569718736
H           51.44988388077439       65.46291788369098       63.82142294615378
H           50.57238740199882       66.06853860516306       61.57486308856452
H           51.27697240336492       64.59488855828097       60.90739718478181
H           49.97793809520921       64.50083369102767       62.09856568760809
H           53.03609548373179       63.23077345765515       62.55011572495835
H           51.36904521134591       62.92604653371276       63.01836271522246
H           53.39696321456618       63.99111684929011       65.00239861599883
H           50.95673285939516       64.26459220993715       65.53470702246351
H           50.74557772798720       62.52284815271754       65.34888604549532
H           51.76040322119890       63.16275008995227       66.64296095624893
H           52.65195587747533       61.13831326544211       64.25814700637000
H           53.33432571126883       61.55201818236668       65.82428144395712
H           54.73365442345376       62.05444128931759       63.16636746087612
H           55.54665621486275       63.60784588939062       64.88294090504553
H           55.68999923461600       62.29529316013499       66.05338248064842
H           56.74301336853689       62.34098840125164       64.63935141850443
H           47.09560605981084       61.11244646368938       49.62943096409606
H           45.71518635206876       60.15993112416958       50.15104213484820
C           46.19570729205340       67.11717107702177       66.33122876143335
C           47.20962763593905       66.19405720127374       65.65907816316226
C           47.95682179478523       65.39465039800115       66.72563108026995
C           48.21891420123934       66.96803752263820       64.80202893080610
C           47.62932065531915       67.74049998432805       63.61340822969915
C           47.09524722812326       66.78487481533843       62.55129680125106
C           48.70850867874601       68.66783675208254       63.03793069433711
C           48.27158457922593       69.62905389537205       61.92011976255412
C           49.47889512781813       70.47494573100622       61.51418004357819
C           47.09762516556732       70.49846214239254       62.38591714014646
C           46.61424888034636       71.60052617998555       61.43078742481595
C           45.45209405469716       72.33025443837671       62.10694229326803
C           46.20239386628202       71.01020887202338       60.07809967259015
C           45.57186236325760       71.98382065140413       59.07189267600115
C           45.25081932418798       71.22366304069040       57.78483465937480
C           46.40680803248155       73.24886071028737       58.80998357409163
C           47.82453047458635       73.04541318704274       58.24530055616996
C           48.78468784757840       74.04603925476901       58.89042629703780
C           47.85097949303625       73.20535977763247       56.71832358508257
C           49.07593019126654       72.57950263950097       56.03370162741572
C           49.23323587150991       73.16329747109559       54.63037085260999
C           48.92439157527137       71.05579097247241       55.98033760162695
C           50.15837100490245       70.25788728712182       55.53525186571101
C           49.73386342468312       68.80531180849637       55.32665149337929
C           51.28553677147130       70.37239165768503       56.56992554191461
C           52.58752110340023       69.63064659685134       56.23708304124618
C           53.51335324964818       69.66660006734301       57.45312085622457
C           53.29210223577032       70.22907230812858       55.01344057530606
C           54.22863928686486       69.25245310985768       54.28657581528516
C           55.17647785352607       70.03806014538746       53.38243383004745
C           53.40949854139528       68.24010118013354       53.47892907495175
C           54.18538363234585       67.03524332816694       52.93222882243941
C           53.27205159193134       66.23543586048089       52.00297201436697
C           54.73382251554683       66.14835681578847       54.06704364011697
C           56.26300166943802       66.16866921769207       54.18579639759643
C           56.88340778926430       65.29396508360060       53.09640211214228
C           56.73057760410145       65.68087356636978       55.56435324598187
C           56.48769720225761       66.66466860917075       56.71350659901278
C           57.38090701727167       67.89875551570042       56.57829522098259
C           56.75236937380221       66.03551838763600       58.08916833591844
C           55.91327045608794       64.81335380303604       58.48133541311797
C           54.42126361421759       65.10952966861615       58.35134396631410
C           56.24974375653215       64.39864320934103       59.92385512844413
C           57.55390769923537       63.59679689826554       60.05406674349675
C           57.26622611684283       62.10576709712966       59.87775824257790
C           58.24007495892845       63.82917642529207       61.40838009801015
C           58.88890020388785       65.20798840461040       61.57984148083897
C           60.08848962098173       65.37461782376958       60.64767341089981
C           59.37113889628188       65.43838015032050       63.02033389659199
C           58.30851977921708       65.38726452250930       64.12382330492628
C           57.10491944906116       66.26823283442889       63.79482516122064
C           58.89059690309316       65.84165310951437       65.47058227094335
C           60.07687736754131       65.02745890090674       65.99657644739014
C           59.73392244567251       63.55076781619354       66.16793375565942
C           60.62249351789301       65.63853434341519       67.29756138653939
C           59.69075657880661       65.56255606757571       68.52516705516632
C           59.48442774676580       66.95771840414380       69.11472880674093
C           60.27425750391505       64.59180231947377       69.55988438023617
C           59.41324176459374       64.32259865077455       70.80171118262327
C           60.26434918251486       63.56825667097582       71.82541726133961
C           58.13045844506480       63.53841326722065       70.46630690132136
C           56.85697274587592       64.13555783584523       71.07657794744541
C           56.91350073134281       64.12402735002905       72.60496520985269
C           55.59768957667725       63.37124700480346       70.64215194961767
C           55.28056522957177       63.33330319315064       69.14208570833975
C           55.29449446613660       64.72977485850440       68.52001895805925
C           53.89491048371771       62.71183275282842       68.90091509159443
C           53.70814970350637       61.25900094959917       69.35240269687506
C           54.60440135075254       60.31635289852284       68.55061649364897
C           52.24820231262363       60.80561194274286       69.19085717926770
C           51.19211737613421       61.53503510466156       70.03393355437656
C           51.63863349058396       61.70717714856881       71.48648022602926
C           49.87042582670193       60.74931236215544       70.04351881843864
C           49.17107190147205       60.53164623218431       68.69719748683947
C           48.65804987045618       61.85428105273431       68.13121760118166
C           47.99437196634946       59.55320737640616       68.86204498613422
C           48.39650037562186       58.07687605947008       68.96663367772575
C           48.79307247599962       57.53258428470053       67.59319713650615
C           47.26833874928770       57.19442202735617       69.52375095029996
C           46.78346183007486       57.47199416494662       70.95401941533591
C           47.94065702511301       57.63680427126785       71.93870429894854
C           45.88749124980563       56.32198277859121       71.44569852531563
C           44.52912185316799       56.16407352644756       70.75434475502263
C           43.62666891510784       57.36735142009158       71.02470345013185
C           43.82456684492614       54.88413980620951       71.23573980801302
C           44.37779422119636       53.57349729202322       70.63775300795334
C           43.23685019032983       52.75578937707376       70.02989412023578
C           45.13127061034137       52.74245131284871       71.68408348261913
C           45.93679358688703       51.59096308866550       71.08390001116699
C           46.65262963706703       50.78510394336890       72.16074037383245
H           46.70431780868942       67.87421315761053       66.92561314111929
H           45.56996067751427       67.62018346848809       65.59845804802741
H           45.54554311067879       66.54504710431929       66.99008817021628
H           45.93300399958122       50.33133498154517       72.83928775089898
H           47.24933803652400       49.99247393873161       71.71457315613091
H           47.31251629302084       51.42476058640701       72.74236055234486
H           45.81833738747584       53.39052088487243       72.23287166140666
H           44.41340744378809       52.34258709109724       72.40555882576079
H           43.87187503001898       54.84310553473378       72.32645368670597
H           42.76853161682987       54.96753738066572       70.97081598809345
H           44.67995619469028       56.08533927790438       69.67413811154022
H           44.07525107932531       58.28484760663373       70.65522136033128
H           42.66664630469804       57.24244782767470       70.52778367208997
H           43.44674767805189       57.47671367087376       72.09264149545155
H           46.44609422517227       55.39006769557729       71.33283598408688
H           45.70077443718552       56.46262775527654       72.51464667566754
H           46.41140692074346       57.27715745501324       68.85148446822920
H           47.61856374570369       56.15843225869040       69.48659632436006
H           45.08121801826024       53.82510679072509       69.83666605584891
H           42.66693075441935       53.36042091638082       69.32795216229870
H           43.61542791578410       51.88684295034350       69.49693775728490