      -----------------------------------------------------------      
     |                   =====================                   |     
     |                           x T B                           |     
     |                   =====================                   |     
     |                         S. Grimme                         |     
     |          Mulliken Center for Theoretical Chemistry        |     
     |                    University of Bonn                     |     
      -----------------------------------------------------------      

   * xtb version 6.6.1 (8d0f1dd) compiled by 'stahn@M-Bot' on 2023-08-01

   xtb is free software: you can redistribute it and/or modify it under
   the terms of the GNU Lesser General Public License as published by
   the Free Software Foundation, either version 3 of the License, or
   (at your option) any later version.
   
   xtb is distributed in the hope that it will be useful,
   but WITHOUT ANY WARRANTY; without even the implied warranty of
   MERCHANTABILITY or FITNESS FOR A PARTICULAR PURPOSE.  See the
   GNU Lesser General Public License for more details.
   
   Cite this work as:
   * C. Bannwarth, E. Caldeweyher, S. Ehlert, A. Hansen, P. Pracht,
     J. Seibert, S. Spicher, S. Grimme, WIREs Comput. Mol. Sci., 2020, 11,
     e01493. DOI: 10.1002/wcms.1493
   
   for GFN2-xTB:
   * C. Bannwarth, S. Ehlert and S. Grimme., J. Chem. Theory Comput., 2019,
     15, 1652-1671. DOI: 10.1021/acs.jctc.8b01176
   for GFN1-xTB:
   * S. Grimme, C. Bannwarth, P. Shushkov, J. Chem. Theory Comput., 2017,
     13, 1989-2009. DOI: 10.1021/acs.jctc.7b00118
   for GFN0-xTB:
   * P. Pracht, E. Caldeweyher, S. Ehlert, S. Grimme, ChemRxiv, 2019, preprint.
     DOI: 10.26434/chemrxiv.8326202.v1
   for GFN-FF:
   * S. Spicher and S. Grimme, Angew. Chem. Int. Ed., 2020, 59, 15665-15673.
     DOI: 10.1002/anie.202004239
   
   for ALPB and GBSA implicit solvation:
   * S. Ehlert, M. Stahn, S. Spicher, S. Grimme, J. Chem. Theory Comput.,
     2021, 17, 4250-4261. DOI: 10.1021/acs.jctc.1c00471
   
   for DFT-D4:
   * E. Caldeweyher, C. Bannwarth and S. Grimme, J. Chem. Phys., 2017,
     147, 034112. DOI: 10.1063/1.4993215
   * E. Caldeweyher, S. Ehlert, A. Hansen, H. Neugebauer, S. Spicher,
     C. Bannwarth and S. Grimme, J. Chem. Phys., 2019, 150, 154122.
     DOI: 10.1063/1.5090222
   * E. Caldeweyher, J.-M. Mewes, S. Ehlert and S. Grimme, Phys. Chem. Chem. Phys.
     2020, 22, 8499-8512. DOI: 10.1039/D0CP00502A
   
   for sTDA-xTB:
   * S. Grimme and C. Bannwarth, J. Chem. Phys., 2016, 145, 054103.
     DOI: 10.1063/1.4959605
   
   in the mass-spec context:
   * V. Asgeirsson, C. Bauer and S. Grimme, Chem. Sci., 2017, 8, 4879.
     DOI: 10.1039/c7sc00601b
   * J. Koopman and S. Grimme, ACS Omega 2019, 4, 12, 15120-15133.
     DOI: 10.1021/acsomega.9b02011
   
   for metadynamics refer to:
   * S. Grimme, J. Chem. Theory Comput., 2019, 155, 2847-2862
     DOI: 10.1021/acs.jctc.9b00143
   
   for SPH calculations refer to:
   * S. Spicher and S. Grimme, J. Chem. Theory Comput., 2021, 17, 1701-1714
     DOI: 10.1021/acs.jctc.0c01306
   
   with help from (in alphabetical order)
   P. Atkinson, C. Bannwarth, F. Bohle, G. Brandenburg, E. Caldeweyher
   M. Checinski, S. Dohm, S. Ehlert, S. Ehrlich, I. Gerasimov, C. Hölzer
   A. Katbashev, J. Koopman, C. Lavigne, S. Lehtola, F. März, M. Müller,
   F. Musil, H. Neugebauer, J. Pisarek, C. Plett, P. Pracht, F. Pultar,
   J. Seibert, P. Shushkov, S. Spicher, M. Stahn, M. Steiner, T. Strunk,
   J. Stückrath, T. Rose, and J. Unsleber
   
 * started run on 2024/10/04 at 12:43:07.643     

           -------------------------------------------------
          |                Calculation Setup                |
           -------------------------------------------------

          program call               : /home/abt-grimme/AK-bin/xtb input.xyz --input input.inp --opt
          hostname                   : boar108.thch.uni-bonn.de
          coordinate file            : input.xyz
          omp threads                :                     8

   ID    Z sym.   atoms
    1    6 C      1-90, 273-362, 545-634, 817-906, 1089-1178, 1361-1450,
                  1633-1722, 1905-1994, 2177-2266, 2449-2538, 2721-2810,
                  2993-3082, 3265-3354
    2    1 H      91-272, 363-544, 635-816, 907-1088, 1179-1360, 1451-1632,
                  1723-1904, 1995-2176, 2267-2448, 2539-2720, 2811-2992,
                  3083-3264, 3355-3536

molecular fragmentation (1/2 indicates fragments):
111111111111111111111111111111111111111111111111111111111111111111111111
111111111111111111111111111111111111111111111111111111111111111111111111
111111111111111111111111111111111111111111111111111111111111111111111111
111111111111111111111111111111111111111111111111111111112222222222222222
222222222222222222222222222222222222222222222222222222222222222222222222
222222222222222222222222222222222222222222222222222222222222222222222222
222222222222222222222222222222222222222222222222222222222222222222222222
222222222222222222222222222222222222222222222222222222222222222222222222
222222222222222222222222222222222222222222222222222222222222222222222222
222222222222222222222222222222222222222222222222222222222222222222222222
222222222222222222222222222222222222222222222222222222222222222222222222
222222222222222222222222222222222222222222222222222222222222222222222222
222222222222222222222222222222222222222222222222222222222222222222222222
222222222222222222222222222222222222222222222222222222222222222222222222
222222222222222222222222222222222222222222222222222222222222222222222222
222222222222222222222222222222222222222222222222222222222222222222222222
222222222222222222222222222222222222222222222222222222222222222222222222
222222222222222222222222222222222222222222222222222222222222222222222222
222222222222222222222222222222222222222222222222222222222222222222222222
222222222222222222222222222222222222222222222222222222222222222222222222
222222222222222222222222222222222222222222222222222222222222222222222222
222222222222222222222222222222222222222222222222222222222222222222222222
222222222222222222222222222222222222222222222222222222222222222222222222
222222222222222222222222222222222222222222222222222222222222222222222222
222222222222222222222222222222222222222222222222222222222222222222222222
222222222222222222222222222222222222222222222222222222222222222222222222
222222222222222222222222222222222222222222222222222222222222222222222222
222222222222222222222222222222222222222222222222222222222222222222222222
222222222222222222222222222222222222222222222222222222222222222222222222
222222222222222222222222222222222222222222222222222222222222222222222222
222222222222222222222222222222222222222222222222222222222222222222222222
222222222222222222222222222222222222222222222222222222222222222222222222
222222222222222222222222222222222222222222222222222222222222222222222222
222222222222222222222222222222222222222222222222222222222222222222222222
222222222222222222222222222222222222222222222222222222222222222222222222
222222222222222222222222222222222222222222222222222222222222222222222222
222222222222222222222222222222222222222222222222222222222222222222222222
222222222222222222222222222222222222222222222222222222222222222222222222
222222222222222222222222222222222222222222222222222222222222222222222222
222222222222222222222222222222222222222222222222222222222222222222222222
222222222222222222222222222222222222222222222222222222222222222222222222
222222222222222222222222222222222222222222222222222222222222222222222222
222222222222222222222222222222222222222222222222222222222222222222222222
222222222222222222222222222222222222222222222222222222222222222222222222
222222222222222222222222222222222222222222222222222222222222222222222222
222222222222222222222222222222222222222222222222222222222222222222222222
222222222222222222222222222222222222222222222222222222222222222222222222
222222222222222222222222222222222222222222222222222222222222222222222222
222222222222222222222222222222222222222222222222222222222222222222222222
22222222
# atoms in fragment 1/2:   272  3264
 fragment masses (1/2) :     1264.41    15172.94
CMA distance (Bohr)    :  27.785
constraining FC (au)   :  0.0500

           -------------------------------------------------
          |                 G F N 2 - x T B                 |
           -------------------------------------------------

        Reference                      10.1021/acs.jctc.8b01176
      * Hamiltonian:
        H0-scaling (s, p, d)           1.850000    2.230000    2.230000
        zeta-weighting                 0.500000
      * Dispersion:
        s8                             2.700000
        a1                             0.520000
        a2                             5.000000
        s9                             5.000000
      * Repulsion:
        kExp                           1.500000    1.000000
        rExp                           1.000000
      * Coulomb:
        alpha                          2.000000
        third order                    shell-resolved
        anisotropic                    true
        a3                             3.000000
        a5                             4.000000
        cn-shift                       1.200000
        cn-exp                         4.000000
        max-rad                        5.000000


          ...................................................
          :                      SETUP                      :
          :.................................................:
          :  # basis functions                7046          :
          :  # atomic orbitals                7046          :
          :  # shells                         4706          :
          :  # electrons                      7046          :
          :  max. iterations                   250          :
          :  Hamiltonian                  GFN2-xTB          :
          :  restarted?                      false          :
          :  GBSA solvation                  false          :
          :  PC potential                    false          :
          :  electronic temp.          300.0000000     K    :
          :  accuracy                    1.0000000          :
          :  -> integral cutoff          0.2500000E+02      :
          :  -> integral neglect         0.1000000E-07      :
          :  -> SCF convergence          0.1000000E-05 Eh   :
          :  -> wf. convergence          0.1000000E-03 e    :
          :  Broyden damping             0.4000000          :
          ...................................................

 iter      E             dE          RMSdq      gap      omega  full diag
   1  -3766.6469378 -0.376665E+04  0.226E+00   11.39       0.0  T
   2  -3771.7269387 -0.508000E+01  0.126E+00   11.40       1.0  T
   3  -3771.9383057 -0.211367E+00  0.560E-01   11.40       1.0  T
   4  -3771.9600118 -0.217062E-01  0.143E-01   11.40       1.0  T
   5  -3771.9799907 -0.199789E-01  0.512E-02   11.40       1.0  T
   6  -3771.9800126 -0.219015E-04  0.727E-03   11.40       1.0  T
   7  -3771.9800448 -0.322072E-04  0.154E-03   11.40       1.1  T
   8  -3771.9800467 -0.187743E-05  0.557E-04   11.40       3.0  T
   9  -3771.9800468 -0.102050E-06  0.185E-04   11.40       9.1  T
  10  -3771.9800468 -0.157470E-07  0.712E-05   11.40      23.6  T

   *** convergence criteria satisfied after 10 iterations ***

         #    Occupation            Energy/Eh            Energy/eV
      -------------------------------------------------------------
         1        2.0000           -0.6267174             -17.0538
       ...           ...                  ...                  ...
      3517        2.0000           -0.3955103             -10.7624
      3518        2.0000           -0.3954123             -10.7597
      3519        2.0000           -0.3952614             -10.7556
      3520        2.0000           -0.3950738             -10.7505
      3521        2.0000           -0.3948589             -10.7447
      3522        2.0000           -0.3947207             -10.7409
      3523        2.0000           -0.3945053             -10.7350 (HOMO)
      3524                          0.0246083               0.6696 (LUMO)
      3525                          0.0249315               0.6784
      3526                          0.0293684               0.7992
      3527                          0.0298819               0.8131
      3528                          0.0299374               0.8146
       ...                                ...                  ...
      7046                          0.3845378              10.4638
      -------------------------------------------------------------
                  HL-Gap            0.4191136 Eh           11.4047 eV
             Fermi-level           -0.1849485 Eh           -5.0327 eV

 SCC (total)                   0 d,  0 h, 17 min, 18.206 sec
 SCC setup                      ...        0 min,  0.492 sec (  0.047%)
 Dispersion                     ...        0 min,  4.252 sec (  0.410%)
 classical contributions        ...        0 min,  0.160 sec (  0.015%)
 integral evaluation            ...        0 min,  6.974 sec (  0.672%)
 iterations                     ...       12 min, 32.770 sec ( 72.507%)
 molecular gradient             ...        4 min, 22.773 sec ( 25.310%)
 printout                       ...        0 min, 10.785 sec (  1.039%)

         :::::::::::::::::::::::::::::::::::::::::::::::::::::
         ::                     SUMMARY                     ::
         :::::::::::::::::::::::::::::::::::::::::::::::::::::
         :: total energy           -3716.215998030291 Eh    ::
         :: gradient norm              0.019124173266 Eh/a0 ::
         :: HOMO-LUMO gap             11.404661289947 eV    ::
         ::.................................................::
         :: SCC energy             -3771.980046844603 Eh    ::
         :: -> isotropic ES            0.588960183830 Eh    ::
         :: -> anisotropic ES          1.288989985907 Eh    ::
         :: -> anisotropic XC          2.079373347994 Eh    ::
         :: -> dispersion             -4.526440769998 Eh    ::
         :: repulsion energy          55.104612030924 Eh    ::
         :: add. restraining           0.000000000000 Eh    ::
         :: total charge              -0.000000000010 e     ::
         :::::::::::::::::::::::::::::::::::::::::::::::::::::

      ----------------------------------------------------------- 
     |              Fast Inertial Relaxation Engine              |
      ----------------------------------------------------------- 

          ...................................................
          :                      SETUP                      :
          :.................................................:
          :   energy convergence        0.5000000E-05 Eh    :
          :   grad. convergence         0.1000000E-02 Eh/a0 :
          :   optimization log               true           :
          :   writing optlog all                1     steps :
          :   Hessian reset                    20     steps :
          :   time step scaling                 5     steps :
          :   maximium step len.        1.0000000     a0    :
          :   initial time step         0.2500000     fs    :
          :   maximum time step         1.2500000     fs    :
          :   power reset thr           0.0000000     au    :
          :   alpha parameter           0.1000000           :
          :   BFGS update                   false           :
          :   preconditioning               false           :
          ...................................................

........................................................................
.............................. CYCLE    1 ..............................
........................................................................

 iter      E             dE          RMSdq      gap      omega  full diag
   1  -3771.9834636 -0.377198E+04  0.256E-04   11.40       0.0  T
   2  -3771.9834636 -0.272871E-07  0.152E-04   11.40      11.1  T
   3  -3771.9834636 -0.473392E-09  0.482E-05   11.40      34.9  T
     SCC iter.                  ...        3 min, 48.044 sec
     gradient                   ...        4 min, 17.099 sec
 * total energy  : -3716.2160393 Eh     change    :  -0.4130567E-04 Eh
   gradient norm :     0.0177379 Eh/a0  converged?    E=F G=F D=F
   time step     :     0.2500000 fs     power     :   0.2109306E-08
   step length   :     0.0022413 a0     speed     :   0.2168590E-03

........................................................................
.............................. CYCLE    2 ..............................
........................................................................

 iter      E             dE          RMSdq      gap      omega  full diag
   1  -3771.9884332 -0.377199E+04  0.376E-04   11.40       0.0  T
   2  -3771.9884333 -0.552805E-07  0.223E-04   11.40       7.5  T
   3  -3771.9884333 -0.914497E-09  0.676E-05   11.41      24.9  T
     SCC iter.                  ...        3 min, 44.704 sec
     gradient                   ...        4 min, 17.586 sec
 * total energy  : -3716.2160942 Eh     change    :  -0.5486069E-04 Eh
   gradient norm :     0.0157530 Eh/a0  converged?    E=F G=F D=F
   time step     :     0.2500000 fs     power     :   0.2736671E-08
   step length   :     0.0032804 a0     speed     :   0.3173975E-03

........................................................................
.............................. CYCLE    3 ..............................
........................................................................

 iter      E             dE          RMSdq      gap      omega  full diag
   1  -3771.9947325 -0.377199E+04  0.481E-04   11.41       0.0  T
   2  -3771.9947326 -0.887985E-07  0.285E-04   11.41       5.9  T
   3  -3771.9947326 -0.132968E-08  0.851E-05   11.41      19.8  T
     SCC iter.                  ...        3 min, 47.826 sec
     gradient                   ...        4 min, 18.424 sec
 * total energy  : -3716.2161550 Eh     change    :  -0.6077424E-04 Eh
   gradient norm :     0.0133011 Eh/a0  converged?    E=F G=F D=F
   time step     :     0.2500000 fs     power     :   0.2941492E-08
   step length   :     0.0042015 a0     speed     :   0.4065208E-03

........................................................................
.............................. CYCLE    4 ..............................
........................................................................

 iter      E             dE          RMSdq      gap      omega  full diag
   1  -3772.0020671 -0.377200E+04  0.569E-04   11.41       0.0  T
   2  -3772.0020673 -0.120737E-06  0.338E-04   11.41       5.0  T
   3  -3772.0020673 -0.188629E-08  0.986E-05   11.41      17.1  T
     SCC iter.                  ...        3 min, 53.136 sec
     gradient                   ...        4 min, 16.698 sec
 * total energy  : -3716.2162135 Eh     change    :  -0.5852645E-04 Eh
   gradient norm :     0.0105914 Eh/a0  converged?    E=F G=F D=F
   time step     :     0.2500000 fs     power     :   0.2717865E-08
   step length   :     0.0049733 a0     speed     :   0.4811983E-03

........................................................................
.............................. CYCLE    5 ..............................
........................................................................

 iter      E             dE          RMSdq      gap      omega  full diag
   1  -3772.0100629 -0.377201E+04  0.637E-04   11.41       0.0  T
   2  -3772.0100630 -0.144582E-06  0.379E-04   11.41       4.4  T
   3  -3772.0100630 -0.218097E-08  0.107E-04   11.41      15.8  T
     SCC iter.                  ...        3 min, 43.433 sec
     gradient                   ...        4 min, 16.971 sec
 * total energy  : -3716.2162626 Eh     change    :  -0.4913926E-04 Eh
   gradient norm :     0.0079761 Eh/a0  converged?    E=F G=F D=F
   time step     :     0.2500000 fs     power     :   0.2138244E-08
   step length   :     0.0055690 a0     speed     :   0.5388287E-03

........................................................................
.............................. CYCLE    6 ..............................
........................................................................

 iter      E             dE          RMSdq      gap      omega  full diag
   1  -3772.0190898 -0.377202E+04  0.754E-04   11.41       0.0  T
   2  -3772.0190900 -0.189017E-06  0.449E-04   11.41       3.7  T
   3  -3772.0190900 -0.278578E-08  0.120E-04   11.41      14.0  T
     SCC iter.                  ...        3 min, 39.855 sec
     gradient                   ...        4 min, 18.715 sec
 * total energy  : -3716.2163003 Eh     change    :  -0.3770023E-04 Eh
   gradient norm :     0.0059755 Eh/a0  converged?    E=F G=F D=F
   time step     :     0.2750000 fs     power     :   0.1260698E-08
   step length   :     0.0066005 a0     speed     :   0.5805730E-03

........................................................................
.............................. CYCLE    7 ..............................
........................................................................

 iter      E             dE          RMSdq      gap      omega  full diag
   1  -3772.0282757 -0.377203E+04  0.849E-04   11.41       0.0  T
   2  -3772.0282759 -0.203194E-06  0.506E-04   11.41       3.3  T
   3  -3772.0282759 -0.293630E-08  0.120E-04   11.41      14.1  T
     SCC iter.                  ...        3 min, 40.553 sec
     gradient                   ...        4 min, 17.790 sec
 * total energy  : -3716.2163207 Eh     change    :  -0.2041153E-04 Eh
   gradient norm :     0.0059316 Eh/a0  converged?    E=F G=F D=F
   time step     :     0.3025000 fs     power     :   0.3302197E-09
   step length   :     0.0074151 a0     speed     :   0.5929332E-03

........................................................................
.............................. CYCLE    8 ..............................
........................................................................

 iter      E             dE          RMSdq      gap      omega  full diag
   1  -3772.0361457 -0.377204E+04  0.890E-04   11.41       0.0  T
   2  -3772.0361458 -0.162648E-06  0.531E-04   11.41       3.2  T
   3  -3772.0361458 -0.238424E-08  0.986E-05   11.41      17.1  T
     SCC iter.                  ...        3 min, 43.785 sec
     gradient                   ...        4 min, 17.090 sec
 * total energy  : -3716.2163253 Eh     change    :  -0.4566031E-05 Eh
   gradient norm :     0.0074306 Eh/a0  converged?    E=T G=F D=F
   time step     :     0.3327500 fs     power     :  -0.2676336E-09
   step length   :     0.0077262 a0     speed     :   0.5616489E-03

........................................................................
.............................. CYCLE    9 ..............................
........................................................................
 * reset velocities

 iter      E             dE          RMSdq      gap      omega  full diag
   1  -3772.0358743 -0.377204E+04  0.300E-05   11.41       0.0  T
   2  -3772.0358743 -0.113687E-08  0.146E-05   11.41     115.5  T
   3  -3772.0358743 -0.923137E-10  0.797E-06   11.41     210.9  T
     SCC iter.                  ...        3 min, 49.240 sec
     gradient                   ...        4 min, 15.808 sec
 * total energy  : -3716.2163267 Eh     change    :  -0.1428305E-05 Eh
   gradient norm :     0.0073127 Eh/a0  converged?    E=T G=F D=T
   time step     :     0.1663750 fs     power     :   0.1124712E-09
   step length   :     0.0001928 a0     speed     :   0.2803724E-04

........................................................................
.............................. CYCLE   10 ..............................
........................................................................

 iter      E             dE          RMSdq      gap      omega  full diag
   1  -3772.0353358 -0.377204E+04  0.457E-05   11.41       0.0  T
   2  -3772.0353358 -0.634373E-09  0.271E-05   11.41      62.0  T
   3  -3772.0353358 -0.190994E-10  0.728E-06   11.41     230.9  T
     SCC iter.                  ...        3 min, 42.680 sec
     gradient                   ...        4 min, 16.802 sec
 * total energy  : -3716.2163295 Eh     change    :  -0.2752077E-05 Eh
   gradient norm :     0.0070748 Eh/a0  converged?    E=T G=F D=T
   time step     :     0.1663750 fs     power     :   0.2158660E-09
   step length   :     0.0003826 a0     speed     :   0.5562934E-04

........................................................................
.............................. CYCLE   11 ..............................
........................................................................

 iter      E             dE          RMSdq      gap      omega  full diag
   1  -3772.0345416 -0.377203E+04  0.663E-05   11.41       0.0  T
   2  -3772.0345416 -0.126238E-08  0.393E-05   11.41      42.8  T
   3  -3772.0345416  0.454747E-11  0.106E-05   11.41     158.4  T
     SCC iter.                  ...        3 min, 44.207 sec
     gradient                   ...        4 min, 16.748 sec
 * total energy  : -3716.2163334 Eh     change    :  -0.3902793E-05 Eh
   gradient norm :     0.0067275 Eh/a0  converged?    E=T G=F D=T
   time step     :     0.1663750 fs     power     :   0.3036236E-09
   step length   :     0.0005662 a0     speed     :   0.8232080E-04

........................................................................
.............................. CYCLE   12 ..............................
........................................................................

 iter      E             dE          RMSdq      gap      omega  full diag
   1  -3772.0335086 -0.377203E+04  0.867E-05   11.41       0.0  T
   2  -3772.0335086 -0.226009E-08  0.514E-05   11.41      32.7  T
   3  -3772.0335086  0.277396E-10  0.137E-05   11.41     122.9  T
     SCC iter.                  ...        3 min, 43.703 sec
     gradient                   ...        4 min, 16.904 sec
 * total energy  : -3716.2163382 Eh     change    :  -0.4814476E-05 Eh
   gradient norm :     0.0062819 Eh/a0  converged?    E=T G=F D=T
   time step     :     0.1663750 fs     power     :   0.3704747E-09
   step length   :     0.0007407 a0     speed     :   0.1076909E-03

........................................................................
.............................. CYCLE   13 ..............................
........................................................................

 iter      E             dE          RMSdq      gap      omega  full diag
   1  -3772.0322594 -0.377203E+04  0.106E-04   11.41       0.0  T
   2  -3772.0322594 -0.315822E-08  0.626E-05   11.41      26.9  T
   3  -3772.0322594  0.227374E-11  0.164E-05   11.41     102.3  T
     SCC iter.                  ...        3 min, 42.520 sec
     gradient                   ...        4 min, 16.275 sec
 * total energy  : -3716.2163436 Eh     change    :  -0.5419089E-05 Eh
   gradient norm :     0.0057542 Eh/a0  converged?    E=F G=F D=T
   time step     :     0.1663750 fs     power     :   0.4128582E-09
   step length   :     0.0009034 a0     speed     :   0.1313500E-03

........................................................................
.............................. CYCLE   14 ..............................
........................................................................

 iter      E             dE          RMSdq      gap      omega  full diag
   1  -3772.0308226 -0.377203E+04  0.122E-04   11.41       0.0  T
   2  -3772.0308226 -0.426871E-08  0.727E-05   11.41      23.1  T
   3  -3772.0308226  0.472937E-10  0.188E-05   11.41      89.6  T
     SCC iter.                  ...        3 min, 45.231 sec
     gradient                   ...        4 min, 16.850 sec
 * total energy  : -3716.2163493 Eh     change    :  -0.5713003E-05 Eh
   gradient norm :     0.0051661 Eh/a0  converged?    E=F G=F D=F
   time step     :     0.1663750 fs     power     :   0.4292742E-09
   step length   :     0.0010520 a0     speed     :   0.1529472E-03

........................................................................
.............................. CYCLE   15 ..............................
........................................................................

 iter      E             dE          RMSdq      gap      omega  full diag
   1  -3772.0290561 -0.377203E+04  0.153E-04   11.41       0.0  T
   2  -3772.0290561 -0.643968E-08  0.905E-05   11.41      18.6  T
   3  -3772.0290561  0.127329E-10  0.231E-05   11.41      72.9  T
     SCC iter.                  ...        3 min, 46.087 sec
     gradient                   ...        4 min, 17.627 sec
 * total energy  : -3716.2163556 Eh     change    :  -0.6246130E-05 Eh
   gradient norm :     0.0044811 Eh/a0  converged?    E=F G=F D=F
   time step     :     0.1830125 fs     power     :   0.4180770E-09
   step length   :     0.0013173 a0     speed     :   0.1741094E-03

........................................................................
.............................. CYCLE   16 ..............................
........................................................................

 iter      E             dE          RMSdq      gap      omega  full diag
   1  -3772.0269529 -0.377203E+04  0.186E-04   11.41       0.0  T
   2  -3772.0269529 -0.905766E-08  0.110E-04   11.41      15.3  T
   3  -3772.0269529 -0.145519E-10  0.272E-05   11.41      61.9  T
     SCC iter.                  ...        3 min, 42.714 sec
     gradient                   ...        4 min, 18.392 sec
 * total energy  : -3716.2163620 Eh     change    :  -0.6421035E-05 Eh
   gradient norm :     0.0037486 Eh/a0  converged?    E=F G=F D=F
   time step     :     0.2013138 fs     power     :   0.3749853E-09
   step length   :     0.0016134 a0     speed     :   0.1938622E-03

........................................................................
.............................. CYCLE   17 ..............................
........................................................................

 iter      E             dE          RMSdq      gap      omega  full diag
   1  -3772.0245514 -0.377202E+04  0.219E-04   11.41       0.0  T
   2  -3772.0245514 -0.117216E-07  0.130E-04   11.41      12.9  T
   3  -3772.0245514 -0.141426E-09  0.306E-05   11.41      55.0  T
     SCC iter.                  ...        3 min, 42.260 sec
     gradient                   ...        4 min, 17.009 sec
 * total energy  : -3716.2163680 Eh     change    :  -0.5999636E-05 Eh
   gradient norm :     0.0030965 Eh/a0  converged?    E=F G=F D=F
   time step     :     0.2214451 fs     power     :   0.3017736E-09
   step length   :     0.0019301 a0     speed     :   0.2108333E-03

........................................................................
.............................. CYCLE   18 ..............................
........................................................................

 iter      E             dE          RMSdq      gap      omega  full diag
   1  -3772.0219772 -0.377202E+04  0.251E-04   11.41       0.0  T
   2  -3772.0219772 -0.137225E-07  0.149E-04   11.41      11.3  T
   3  -3772.0219772 -0.391083E-10  0.321E-05   11.41      52.5  T
     SCC iter.                  ...        3 min, 42.735 sec
     gradient                   ...        4 min, 17.149 sec
 * total energy  : -3716.2163730 Eh     change    :  -0.5033073E-05 Eh
   gradient norm :     0.0027600 Eh/a0  converged?    E=F G=F D=F
   time step     :     0.2435896 fs     power     :   0.2118100E-09
   step length   :     0.0022452 a0     speed     :   0.2229474E-03

........................................................................
.............................. CYCLE   19 ..............................
........................................................................

 iter      E             dE          RMSdq      gap      omega  full diag
   1  -3772.0194875 -0.377202E+04  0.273E-04   11.41       0.0  T
   2  -3772.0194875 -0.131968E-07  0.162E-04   11.41      10.4  T
   3  -3772.0194875 -0.206910E-09  0.300E-05   11.41      56.1  T
     SCC iter.                  ...        3 min, 44.433 sec
     gradient                   ...        4 min, 16.791 sec
 * total energy  : -3716.2163769 Eh     change    :  -0.3866670E-05 Eh
   gradient norm :     0.0028985 Eh/a0  converged?    E=T G=F D=F
   time step     :     0.2679486 fs     power     :   0.1331913E-09
   step length   :     0.0025195 a0     speed     :   0.2274453E-03

........................................................................
.............................. CYCLE   20 ..............................
........................................................................

 iter      E             dE          RMSdq      gap      omega  full diag
   1  -3772.0174244 -0.377202E+04  0.284E-04   11.41       0.0  T
   2  -3772.0174244 -0.101277E-07  0.168E-04   11.41      10.0  T
   3  -3772.0174244 -0.280124E-09  0.242E-05   11.41      69.5  T
     SCC iter.                  ...        3 min, 41.830 sec
     gradient                   ...        4 min, 18.106 sec
 * total energy  : -3716.2163800 Eh     change    :  -0.3114611E-05 Eh
   gradient norm :     0.0033086 Eh/a0  converged?    E=T G=F D=F
   time step     :     0.2947435 fs     power     :   0.9561655E-10
   step length   :     0.0027317 a0     speed     :   0.2241822E-03
 * RMSD in coord.:     0.0006925 a0     energy gain  -0.3819950E-03 Eh

........................................................................
.............................. CYCLE   21 ..............................
........................................................................

 iter      E             dE          RMSdq      gap      omega  full diag
   1  -3772.0163709 -0.377202E+04  0.221E-04   11.41       0.0  T
   2  -3772.0163709 -0.383216E-08  0.131E-04   11.41      12.9  T
   3  -3772.0163709 -0.182354E-09  0.136E-05   11.41     124.0  T
     SCC iter.                  ...        3 min, 42.547 sec
     gradient                   ...        4 min, 18.200 sec
 * total energy  : -3716.2163826 Eh     change    :  -0.2584260E-05 Eh
   gradient norm :     0.0035734 Eh/a0  converged?    E=T G=F D=F
   time step     :     0.2500000 fs     power     :   0.1134608E-09
   step length   :     0.0022241 a0     speed     :   0.2151949E-03

........................................................................
.............................. CYCLE   22 ..............................
........................................................................

 iter      E             dE          RMSdq      gap      omega  full diag
   1  -3772.0160176 -0.377202E+04  0.205E-04   11.41       0.0  T
   2  -3772.0160176 -0.230011E-08  0.121E-04   11.41      13.9  T
   3  -3772.0160176 -0.254659E-09  0.112E-05   11.41     149.9  T
     SCC iter.                  ...        3 min, 48.859 sec
     gradient                   ...        4 min, 16.626 sec
 * total energy  : -3716.2163858 Eh     change    :  -0.3169735E-05 Eh
   gradient norm :     0.0036300 Eh/a0  converged?    E=T G=F D=F
   time step     :     0.2500000 fs     power     :   0.1528419E-09
   step length   :     0.0021583 a0     speed     :   0.2088264E-03

........................................................................
.............................. CYCLE   23 ..............................
........................................................................

 iter      E             dE          RMSdq      gap      omega  full diag
   1  -3772.0163229 -0.377202E+04  0.198E-04   11.41       0.0  T
   2  -3772.0163229 -0.257296E-08  0.115E-04   11.41      14.6  T
   3  -3772.0163229 -0.818545E-10  0.136E-05   11.41     123.8  T
     SCC iter.                  ...        3 min, 43.442 sec
     gradient                   ...        4 min, 17.099 sec
 * total energy  : -3716.2163897 Eh     change    :  -0.3884867E-05 Eh
   gradient norm :     0.0034585 Eh/a0  converged?    E=T G=F D=F
   time step     :     0.2500000 fs     power     :   0.1922579E-09
   step length   :     0.0021375 a0     speed     :   0.2068105E-03

........................................................................
.............................. CYCLE   24 ..............................
........................................................................

 iter      E             dE          RMSdq      gap      omega  full diag
   1  -3772.0172180 -0.377202E+04  0.197E-04   11.41       0.0  T
   2  -3772.0172180 -0.412683E-08  0.115E-04   11.41      14.7  T
   3  -3772.0172180 -0.532054E-10  0.185E-05   11.41      90.9  T
     SCC iter.                  ...        3 min, 43.987 sec
     gradient                   ...        4 min, 17.355 sec
 * total energy  : -3716.2163940 Eh     change    :  -0.4379537E-05 Eh
   gradient norm :     0.0030837 Eh/a0  converged?    E=T G=F D=F
   time step     :     0.2500000 fs     power     :   0.2151434E-09
   step length   :     0.0021585 a0     speed     :   0.2088453E-03

........................................................................
.............................. CYCLE   25 ..............................
........................................................................

 iter      E             dE          RMSdq      gap      omega  full diag
   1  -3772.0186147 -0.377202E+04  0.202E-04   11.41       0.0  T
   2  -3772.0186147 -0.618093E-08  0.117E-04   11.41      14.4  T
   3  -3772.0186147 -0.641194E-10  0.233E-05   11.41      72.1  T
     SCC iter.                  ...        3 min, 41.599 sec
     gradient                   ...        4 min, 17.673 sec
 * total energy  : -3716.2163985 Eh     change    :  -0.4431796E-05 Eh
   gradient norm :     0.0025641 Eh/a0  converged?    E=T G=F D=F
   time step     :     0.2500000 fs     power     :   0.2124070E-09
   step length   :     0.0022067 a0     speed     :   0.2135060E-03

........................................................................
.............................. CYCLE   26 ..............................
........................................................................

 iter      E             dE          RMSdq      gap      omega  full diag
   1  -3772.0206067 -0.377202E+04  0.228E-04   11.41       0.0  T
   2  -3772.0206067 -0.994896E-08  0.131E-04   11.41      12.8  T
   3  -3772.0206067 -0.554792E-10  0.300E-05   11.41      56.0  T
     SCC iter.                  ...        3 min, 41.015 sec
     gradient                   ...        4 min, 15.890 sec
 * total energy  : -3716.2164028 Eh     change    :  -0.4372558E-05 Eh
   gradient norm :     0.0019550 Eh/a0  converged?    E=T G=F D=F
   time step     :     0.2750000 fs     power     :   0.1785667E-09
   step length   :     0.0025029 a0     speed     :   0.2201547E-03

........................................................................
.............................. CYCLE   27 ..............................
........................................................................

 iter      E             dE          RMSdq      gap      omega  full diag
   1  -3772.0231121 -0.377202E+04  0.251E-04   11.41       0.0  T
   2  -3772.0231121 -0.136029E-07  0.145E-04   11.41      11.6  T
   3  -3772.0231121 -0.604814E-10  0.349E-05   11.41      48.2  T
     SCC iter.                  ...        3 min, 39.394 sec
     gradient                   ...        4 min, 15.355 sec
 * total energy  : -3716.2164065 Eh     change    :  -0.3620239E-05 Eh
   gradient norm :     0.0015651 Eh/a0  converged?    E=T G=F D=F
   time step     :     0.3025000 fs     power     :   0.1184910E-09
   step length   :     0.0028283 a0     speed     :   0.2261623E-03

........................................................................
.............................. CYCLE   28 ..............................
........................................................................

 iter      E             dE          RMSdq      gap      omega  full diag
   1  -3772.0258115 -0.377203E+04  0.259E-04   11.41       0.0  T
   2  -3772.0258115 -0.137256E-07  0.149E-04   11.41      11.3  T
   3  -3772.0258115 -0.495675E-10  0.343E-05   11.41      49.0  T
     SCC iter.                  ...        3 min, 42.146 sec
     gradient                   ...        4 min, 17.641 sec
 * total energy  : -3716.2164089 Eh     change    :  -0.2434054E-05 Eh
   gradient norm :     0.0017821 Eh/a0  converged?    E=T G=F D=F
   time step     :     0.3327500 fs     power     :   0.6033870E-10
   step length   :     0.0031136 a0     speed     :   0.2263357E-03

........................................................................
.............................. CYCLE   29 ..............................
........................................................................

 iter      E             dE          RMSdq      gap      omega  full diag
   1  -3772.0281863 -0.377203E+04  0.242E-04   11.41       0.0  T
   2  -3772.0281864 -0.905766E-08  0.140E-04   11.41      12.0  T
   3  -3772.0281864  0.604814E-10  0.266E-05   11.41      63.3  T
     SCC iter.                  ...        3 min, 48.152 sec
     gradient                   ...        4 min, 16.642 sec
 * total energy  : -3716.2164107 Eh     change    :  -0.1793549E-05 Eh
   gradient norm :     0.0022704 Eh/a0  converged?    E=T G=F D=F
   time step     :     0.3660250 fs     power     :   0.4009894E-10
   step length   :     0.0032881 a0     speed     :   0.2172936E-03

........................................................................
.............................. CYCLE   30 ..............................
........................................................................

 iter      E             dE          RMSdq      gap      omega  full diag
   1  -3772.0298347 -0.377203E+04  0.215E-04   11.41       0.0  T
   2  -3772.0298347 -0.351429E-08  0.125E-04   11.41      13.5  T
   3  -3772.0298347 -0.391083E-10  0.151E-05   11.41     111.2  T
     SCC iter.                  ...        3 min, 43.329 sec
     gradient                   ...        4 min, 16.688 sec
 * total energy  : -3716.2164130 Eh     change    :  -0.2277814E-05 Eh
   gradient norm :     0.0025581 Eh/a0  converged?    E=T G=F D=F
   time step     :     0.4026275 fs     power     :   0.6200813E-10
   step length   :     0.0034409 a0     speed     :   0.2067210E-03

........................................................................
.............................. CYCLE   31 ..............................
........................................................................

 iter      E             dE          RMSdq      gap      omega  full diag
   1  -3772.0304821 -0.377203E+04  0.199E-04   11.41       0.0  T
   2  -3772.0304821 -0.130649E-08  0.117E-04   11.41      14.4  T
   3  -3772.0304821 -0.541149E-10  0.915E-06   11.41     183.8  T
     SCC iter.                  ...        3 min, 42.648 sec
     gradient                   ...        4 min, 17.093 sec
 * total energy  : -3716.2164167 Eh     change    :  -0.3694680E-05 Eh
   gradient norm :     0.0024477 Eh/a0  converged?    E=T G=F D=F
   time step     :     0.4428903 fs     power     :   0.1008407E-09
   step length   :     0.0036928 a0     speed     :   0.2016829E-03

........................................................................
.............................. CYCLE   32 ..............................
........................................................................

 iter      E             dE          RMSdq      gap      omega  full diag
   1  -3772.0300089 -0.377203E+04  0.208E-04   11.41       0.0  T
   2  -3772.0300089 -0.547379E-08  0.125E-04   11.41      13.4  T
   3  -3772.0300089  0.350155E-10  0.192E-05   11.41      87.6  T
     SCC iter.                  ...        3 min, 42.297 sec
     gradient                   ...        4 min, 16.576 sec
 * total energy  : -3716.2164217 Eh     change    :  -0.5004138E-05 Eh
   gradient norm :     0.0019606 Eh/a0  converged?    E=F G=F D=F
   time step     :     0.4871793 fs     power     :   0.1197183E-09
   step length   :     0.0041158 a0     speed     :   0.2043512E-03

........................................................................
.............................. CYCLE   33 ..............................
........................................................................

 iter      E             dE          RMSdq      gap      omega  full diag
   1  -3772.0286004 -0.377203E+04  0.233E-04   11.41       0.0  T
   2  -3772.0286004 -0.142372E-07  0.142E-04   11.41      11.8  T
   3  -3772.0286004 -0.154614E-10  0.337E-05   11.41      49.9  T
     SCC iter.                  ...        3 min, 42.952 sec
     gradient                   ...        4 min, 17.261 sec
 * total energy  : -3716.2164268 Eh     change    :  -0.5085880E-05 Eh
   gradient norm :     0.0015260 Eh/a0  converged?    E=F G=F D=F
   time step     :     0.5358972 fs     power     :   0.9768655E-10
   step length   :     0.0046909 a0     speed     :   0.2117338E-03

........................................................................
.............................. CYCLE   34 ..............................
........................................................................

 iter      E             dE          RMSdq      gap      omega  full diag
   1  -3772.0270826 -0.377203E+04  0.235E-04   11.41       0.0  T
   2  -3772.0270826 -0.165132E-07  0.144E-04   11.41      11.7  T
   3  -3772.0270826 -0.682121E-10  0.358E-05   11.41      47.0  T
     SCC iter.                  ...        3 min, 43.246 sec
     gradient                   ...        4 min, 17.792 sec
 * total energy  : -3716.2164309 Eh     change    :  -0.4149955E-05 Eh
   gradient norm :     0.0017823 Eh/a0  converged?    E=T G=F D=F
   time step     :     0.5894869 fs     power     :   0.6528211E-10
   step length   :     0.0052831 a0     speed     :   0.2167842E-03

........................................................................
.............................. CYCLE   35 ..............................
........................................................................

 iter      E             dE          RMSdq      gap      omega  full diag
   1  -3772.0267103 -0.377203E+04  0.221E-04   11.41       0.0  T
   2  -3772.0267103 -0.719410E-08  0.134E-04   11.41      12.5  T
   3  -3772.0267103 -0.108685E-09  0.192E-05   11.41      87.6  T
     SCC iter.                  ...        3 min, 45.804 sec
     gradient                   ...        4 min, 18.266 sec
 * total energy  : -3716.2164353 Eh     change    :  -0.4367198E-05 Eh
   gradient norm :     0.0020829 Eh/a0  converged?    E=T G=F D=F
   time step     :     0.6484356 fs     power     :   0.7320055E-10
   step length   :     0.0057808 a0     speed     :   0.2156430E-03

........................................................................
.............................. CYCLE   36 ..............................
........................................................................

 iter      E             dE          RMSdq      gap      omega  full diag
   1  -3772.0282807 -0.377203E+04  0.266E-04   11.41       0.0  T
   2  -3772.0282807 -0.342652E-08  0.157E-04   11.41      10.7  T
   3  -3772.0282807 -0.618456E-10  0.160E-05   11.41     105.2  T
     SCC iter.                  ...        3 min, 40.165 sec
     gradient                   ...        4 min, 17.631 sec
 * total energy  : -3716.2164414 Eh     change    :  -0.6097117E-05 Eh
   gradient norm :     0.0017992 Eh/a0  converged?    E=F G=F D=F
   time step     :     0.7132792 fs     power     :   0.9988329E-10
   step length   :     0.0064268 a0     speed     :   0.2179459E-03

........................................................................
.............................. CYCLE   37 ..............................
........................................................................

 iter      E             dE          RMSdq      gap      omega  full diag
   1  -3772.0317143 -0.377203E+04  0.348E-04   11.41       0.0  T
   2  -3772.0317143 -0.152604E-07  0.202E-04   11.41       8.3  T
   3  -3772.0317143  0.513865E-10  0.360E-05   11.41      46.7  T
     SCC iter.                  ...        3 min, 45.306 sec
     gradient                   ...        4 min, 15.949 sec
 * total energy  : -3716.2164482 Eh     change    :  -0.6780737E-05 Eh
   gradient norm :     0.0013897 Eh/a0  converged?    E=F G=F D=F
   time step     :     0.7846071 fs     power     :   0.8743059E-10
   step length   :     0.0073629 a0     speed     :   0.2269936E-03

........................................................................
.............................. CYCLE   38 ..............................
........................................................................

 iter      E             dE          RMSdq      gap      omega  full diag
   1  -3772.0351600 -0.377204E+04  0.339E-04   11.41       0.0  T
   2  -3772.0351600 -0.177256E-07  0.197E-04   11.41       8.5  T
   3  -3772.0351600 -0.432010E-09  0.370E-05   11.41      45.4  T
     SCC iter.                  ...        3 min, 40.636 sec
     gradient                   ...        4 min, 15.832 sec
 * total energy  : -3716.2164541 Eh     change    :  -0.5919025E-05 Eh
   gradient norm :     0.0017408 Eh/a0  converged?    E=F G=F D=F
   time step     :     0.8630678 fs     power     :   0.6565431E-10
   step length   :     0.0083623 a0     speed     :   0.2343670E-03

........................................................................
.............................. CYCLE   39 ..............................
........................................................................

 iter      E             dE          RMSdq      gap      omega  full diag
   1  -3772.0360525 -0.377204E+04  0.279E-04   11.41       0.0  T
   2  -3772.0360525 -0.851469E-08  0.164E-04   11.41      10.2  T
   3  -3772.0360525 -0.391083E-09  0.285E-05   11.41      59.0  T
     SCC iter.                  ...        3 min, 51.052 sec
     gradient                   ...        4 min, 17.747 sec
 * total energy  : -3716.2164613 Eh     change    :  -0.7213937E-05 Eh
   gradient norm :     0.0016503 Eh/a0  converged?    E=F G=F D=F
   time step     :     0.9493746 fs     power     :   0.8572190E-10
   step length   :     0.0093178 a0     speed     :   0.2374055E-03

........................................................................
.............................. CYCLE   40 ..............................
........................................................................

 iter      E             dE          RMSdq      gap      omega  full diag
   1  -3772.0338763 -0.377203E+04  0.351E-04   11.41       0.0  T
   2  -3772.0338764 -0.241112E-07  0.209E-04   11.41       8.0  T
   3  -3772.0338764  0.319687E-09  0.494E-05   11.41      34.0  T
     SCC iter.                  ...        3 min, 52.342 sec
     gradient                   ...        4 min, 18.340 sec
 * total energy  : -3716.2164695 Eh     change    :  -0.8213293E-05 Eh
   gradient norm :     0.0013732 Eh/a0  converged?    E=F G=F D=F
   time step     :     1.0443120 fs     power     :   0.7600319E-10
   step length   :     0.0106529 a0     speed     :   0.2467479E-03

........................................................................
.............................. CYCLE   41 ..............................
........................................................................

 iter      E             dE          RMSdq      gap      omega  full diag
   1  -3772.0321327 -0.377203E+04  0.367E-04   11.41       0.0  T
   2  -3772.0321327 -0.127870E-07  0.218E-04   11.41       7.7  T
   3  -3772.0321327  0.563887E-10  0.297E-05   11.41      56.6  T
     SCC iter.                  ...        3 min, 42.173 sec
     gradient                   ...        4 min, 20.975 sec
 * total energy  : -3716.2164774 Eh     change    :  -0.7902485E-05 Eh
   gradient norm :     0.0016302 Eh/a0  converged?    E=F G=F D=F
   time step     :     1.1487432 fs     power     :   0.7085782E-10
   step length   :     0.0120726 a0     speed     :   0.2542098E-03

........................................................................
.............................. CYCLE   42 ..............................
........................................................................

 iter      E             dE          RMSdq      gap      omega  full diag
   1  -3772.0342710 -0.377203E+04  0.411E-04   11.41       0.0  T
   2  -3772.0342710 -0.214845E-07  0.239E-04   11.41       7.0  T
   3  -3772.0342710 -0.350155E-10  0.461E-05   11.41      36.5  T
     SCC iter.                  ...        3 min, 40.525 sec
     gradient                   ...        4 min, 17.288 sec
 * total energy  : -3716.2164868 Eh     change    :  -0.9443657E-05 Eh
   gradient norm :     0.0012833 Eh/a0  converged?    E=F G=F D=F
   time step     :     1.2500000 fs     power     :   0.7497111E-10
   step length   :     0.0135280 a0     speed     :   0.2617805E-03
 * RMSD in coord.:     0.0017109 a0     energy gain  -0.1068205E-03 Eh

........................................................................
.............................. CYCLE   43 ..............................
........................................................................

 iter      E             dE          RMSdq      gap      omega  full diag
   1  -3772.0347345 -0.377203E+04  0.692E-05   11.41       0.0  T
   2  -3772.0347345 -0.504770E-09  0.407E-05   11.41      41.3  T
   3  -3772.0347345 -0.122782E-10  0.628E-06   11.41     267.7  T
     SCC iter.                  ...        3 min, 39.436 sec
     gradient                   ...        4 min, 17.482 sec
 * total energy  : -3716.2164885 Eh     change    :  -0.1645062E-05 Eh
   gradient norm :     0.0012858 Eh/a0  converged?    E=T G=F D=F
   time step     :     0.2500000 fs     power     :   0.8434293E-10
   step length   :     0.0025950 a0     speed     :   0.2510786E-03

........................................................................
.............................. CYCLE   44 ..............................
........................................................................

 iter      E             dE          RMSdq      gap      omega  full diag
   1  -3772.0351503 -0.377204E+04  0.655E-05   11.41       0.0  T
   2  -3772.0351503 -0.664841E-09  0.383E-05   11.41      43.9  T
   3  -3772.0351503  0.532054E-10  0.766E-06   11.41     219.6  T
     SCC iter.                  ...        3 min, 42.784 sec
     gradient                   ...        4 min, 17.020 sec
 * total energy  : -3716.2164903 Eh     change    :  -0.1797392E-05 Eh
   gradient norm :     0.0012084 Eh/a0  converged?    E=T G=F D=F
   time step     :     0.2500000 fs     power     :   0.9199726E-10
   step length   :     0.0025123 a0     speed     :   0.2430754E-03

........................................................................
.............................. CYCLE   45 ..............................
........................................................................

 iter      E             dE          RMSdq      gap      omega  full diag
   1  -3772.0354595 -0.377204E+04  0.728E-05   11.41       0.0  T
   2  -3772.0354595 -0.577529E-09  0.428E-05   11.41      39.3  T
   3  -3772.0354595 -0.418368E-10  0.762E-06   11.41     220.7  T
     SCC iter.                  ...        3 min, 42.391 sec
     gradient                   ...        4 min, 16.389 sec
 * total energy  : -3716.2164921 Eh     change    :  -0.1859995E-05 Eh
   gradient norm :     0.0010856 Eh/a0  converged?    E=T G=F D=F
   time step     :     0.2500000 fs     power     :   0.9449239E-10
   step length   :     0.0024592 a0     speed     :   0.2379365E-03

........................................................................
.............................. CYCLE   46 ..............................
........................................................................

 iter      E             dE          RMSdq      gap      omega  full diag
   1  -3772.0356292 -0.377204E+04  0.821E-05   11.41       0.0  T
   2  -3772.0356292 -0.588443E-09  0.482E-05   11.41      34.9  T
   3  -3772.0356292 -0.645741E-10  0.767E-06   11.41     219.3  T
     SCC iter.                  ...        3 min, 41.420 sec
     gradient                   ...        4 min, 15.914 sec
 * total energy  : -3716.2164940 Eh     change    :  -0.1852221E-05 Eh
   gradient norm :     0.0009797 Eh/a0  converged?    E=T G=T D=F
   time step     :     0.2500000 fs     power     :   0.9175546E-10
   step length   :     0.0024306 a0     speed     :   0.2351760E-03

   *** GEOMETRY OPTIMIZATION CONVERGED AFTER 46 CYCLES ***

------------------------------------------------------------------------
 total energy gain   :        -0.0004960 Eh       -0.3112 kcal/mol
 total RMSD          :         0.0021781 a0        0.0012 Å
 total power (kW/mol):        -0.0283080 (step)   -0.0001 (real)
------------------------------------------------------------------------

 FIRE (total)                  0 d,  6 h, 26 min, 21.518 sec
 setup                          ...        0 min,  0.135 sec (  0.001%)
 velocities                     ...        0 min,  0.003 sec (  0.000%)
 propagation                    ...        0 min,  0.005 sec (  0.000%)
 singlepoint calculation        ...      386 min, 20.539 sec ( 99.996%)
 log and printout               ...        0 min,  0.764 sec (  0.003%)
 preconditioner                 ...        0 min,  0.000 sec (  0.000%)
 model hessian                  ...        0 min,  0.000 sec (  0.000%)
 hessian update                 ...        0 min,  0.000 sec (  0.000%)

================
 final structure:
================
3536
 xtb: 6.6.1 (8d0f1dd)
C           55.14235264923626       60.24284427026554       64.22960694634997
C           54.72388551979721       61.71329835557456       64.20759739189849
C           55.73402760922645       62.54377999294921       64.99538578385410
C           53.30516133753908       61.84831989326166       64.77289298533337
C           52.66974694524564       63.24276540268690       64.67487666654417
C           51.45956165602885       63.30414183035590       65.60752697288731
C           52.24458545630754       63.54323045783426       63.23455770092321
C           51.90141806385568       65.01195596388737       62.93393232098524
C           50.87066941076669       65.05075107574896       61.80794705633836
C           53.16981589619466       65.79461552280921       62.56695030694004
C           52.96848781806862       67.29388455997407       62.30879138151518
C           54.21095718168468       67.88280950076891       61.63901368349031
C           52.55891857392764       68.09734858100936       63.55453707778239
C           53.57203465352811       68.14861325081007       64.71369751804542
C           53.15160970240846       67.22324458528439       65.85560467792642
C           53.71062954965152       69.58130594944787       65.25109001146600
C           54.49179096198844       70.51592961888669       64.31531208220331
C           55.99386734590045       70.36434917756792       64.54625401637048
C           54.05908004247402       71.97752806817208       64.49499270298462
C           54.36531511780965       72.87705963249091       63.28680988819156
C           54.31354946269629       74.34176749344088       63.71822604517386
C           53.36534317794192       72.60080506087235       62.15755856099897
C           53.70520619569184       73.21798376892157       60.79465392570378
C           52.55173026526444       72.93929103429871       59.82942095615015
C           55.03256948303676       72.68643920946985       60.22098583919465
C           56.18572963513804       73.69742464426504       60.27498741381479
C           55.97361630677725       74.79693215970055       59.23377788447145
C           57.53736743279772       73.01696300546716       60.01548719551380
C           58.08943623541850       72.18913339788726       61.18239683107656
C           58.60670683315570       73.10075205085253       62.29514093461733
C           59.22910949521593       71.27404858540369       60.70934135112981
C           58.78989837642845       70.05940512437439       59.88500032760308
C           58.04946487346150       69.04777324043111       60.76053932081827
C           59.98780293956794       69.34966360419153       59.23711048159205
C           60.84534263060084       70.16132785730221       58.25333626072720
C           59.99427463936401       70.82200366527307       57.17200521371741
C           61.88019716609311       69.21085495924909       57.63078396732713
C           63.03839113386564       69.86523395987193       56.86150034196157
C           63.80680422719269       68.78015347896864       56.10618698727037
C           63.96102607665661       70.63527185778267       57.81501968277679
C           65.17843627708628       71.31701600494088       57.17352020615964
C           66.10799508470073       71.82300994485635       58.27608172483949
C           64.76425299412654       72.46270125420803       56.24063021901808
C           65.84476072514036       72.86876673372474       55.22048904106346
C           66.49153203635124       74.20103692800019       55.60262896193566
C           65.26812950343547       72.99235115371991       53.80177015548764
C           64.76933800608640       71.68851850229235       53.16679710154741
C           65.92598623816983       70.71786962225164       52.92321928117922
C           64.06486952066257       71.95517972608314       51.82593902902223
C           62.84894113971449       72.89094013085020       51.86303384972288
C           61.79748878143644       72.40078165853846       52.85945801325033
C           62.18917313927963       73.01047099035267       50.47866442050232
C           63.10303974340945       73.44576951773082       49.32783040795059
C           63.80197032640246       74.76995461945876       49.63902562455132
C           62.32442266886933       73.61295435044345       48.01191698788912
C           61.48057447142844       72.41916702039234       47.54225882591964
C           62.31379347628658       71.13859912965074       47.49703627376485
C           60.88469965215545       72.69184501924477       46.14516404571677
C           59.39896704199148       73.08098451664790       46.10709673131900
C           58.94659401342589       73.11384631423371       44.64639524053741
C           59.16385411891874       74.42684561213316       46.80134821313666
C           57.75169956097436       75.02213968660762       46.68968794220324
C           57.72330078459861       76.38106124810118       47.39069286737475
C           56.59261340071984       74.11708483915766       47.15132725940725
C           56.27392761729989       74.03201087165750       48.64972982809304
C           57.35707976508883       73.29466656136896       49.43468880614449
C           54.94162552070422       73.29411842686548       48.86737266146559
C           53.66787461920869       73.98622472639201       48.36419683605188
C           53.48194389459371       75.35388611299979       49.02062201951460
C           52.43935555075809       73.11210125345337       48.66484755463037
C           52.28015552263442       71.87841255971074       47.76784693567478
C           51.77661057250319       72.27660494800567       46.38011958882410
C           51.29561104374145       70.86936737657368       48.37660298560461
C           51.70721188525157       70.22310647086059       49.70713357108610
C           53.13670090856967       69.68383528057092       49.65131992720192
C           50.76443521793184       69.06143003528601       50.05921919597262
C           49.27745055056590       69.40152750741971       50.21356756372518
C           49.05388136829123       70.32875463084552       51.40810123098112
C           48.44837273815947       68.12065224139359       50.40753646811492
C           48.34261050188972       67.21090368285107       49.17734712256841
C           47.52185448741420       67.87427650820331       48.07073296408593
C           47.69604269390641       65.85959021870106       49.51843402033542
C           48.39380279126214       65.01655457090219       50.59363289406058
C           49.89333485654215       64.88353008651700       50.32830865728282
C           47.78515416018563       63.60731707194493       50.65705221543166
C           46.28855657395135       63.52123943696473       50.97727663668810
C           45.94952677308348       64.26529860063307       52.26864876631731
C           45.85128742469512       62.05566513222123       51.12479011961684
C           46.03892420896817       61.17189477929803       49.89069415135174
C           45.24168329468837       61.64056537363480       48.67967277859248
H           55.18121698325560       59.87527883685480       65.25355223765222
H           54.43514228517849       59.63087070377627       63.67363251109325
H           56.12865705400507       60.11820018711618       63.78587447561318
H           45.33385410591260       60.92322048182015       47.86656970892151
H           44.18780461165782       61.73814327988508       48.93139540855945
H           45.60043320738966       62.60259669114399       48.32307518693603
H           46.40999071341142       61.61042964171493       51.95294126861766
H           44.79224940576345       62.04080348963809       51.39655499944401
H           47.96610823713750       63.12423535363575       49.69483395393854
H           48.32495526608476       63.03409104905180       51.41685183851487
H           48.26146650175285       65.49731373382492       51.56575591407616
H           50.34180772762551       64.18395514626465       51.03066098266223
H           50.06860899496168       64.51273259865349       49.32241318562367
H           50.40058236203868       65.83684898358874       50.44083725120195
H           46.66712412059599       66.04648955922923       49.83262238997727
H           47.65449682781369       65.27040026331234       48.59753194717993
H           48.88861099400341       67.56231287667323       51.23512814668569
H           47.43559546872275       68.40297450060703       50.70657106670934
H           45.71787987588134       63.97160860090943       50.16087842470987
H           46.57820755123233       63.90997847068761       53.08165698481060
H           46.09815940277976       65.33604568842770       52.15882802678753
H           44.90951489597413       64.09746327283653       52.54104735146954
H           49.34198827880476       67.01835039860907       48.78117996835862
H           47.42901459563082       67.20846942345652       47.21515659570826
H           46.52186420520790       68.11225076904603       48.42826345381401
H           47.99035049232465       68.79292764752623       47.72814558052610
H           48.92638376288418       69.91185486260775       49.31427925404599
H           47.99425460089038       70.54198336065208       51.53264559080838
H           49.41891306247621       69.86393323709748       52.32159865436958
H           49.57079763628175       71.27505266819790       51.27121640131389
H           50.87828674681759       68.30630708381796       49.27935489661613
H           51.10230239190141       68.61525651229059       50.99896809844384
H           51.65619606781419       70.97001981544329       50.50476395083639
H           53.85920570983153       70.48792040476023       49.54880019225013
H           53.37730133736333       69.14049656993387       50.56140501507024
H           53.24815264798316       68.99997209443804       48.81236644061158
H           50.33935200554254       71.37853057828602       48.51333095273142
H           51.14064856964355       70.06964195196680       47.64715246783761
H           53.24967801690116       71.39295520620992       47.63751979842465
H           50.79205902633002       72.73560785042197       46.44793942575860
H           52.45196462717833       72.98529567940314       45.90796950551196
H           51.70300860504065       71.40179772143669       45.73743866684335
H           52.49935496455200       72.79935752436784       49.70844297127729
H           51.53781853796264       73.72104137993364       48.56157380218515
H           53.73380051511167       74.13254527475462       47.28277556803555
H           53.46202767547408       75.25539025525792       50.10421597902317
H           54.28520296580995       76.03370935925459       48.75003663085420
H           52.54405043593401       75.80301214903336       48.70055379995600
H           55.02376096262456       72.31459098715597       48.39025880376911
H           54.82201538766777       73.12664868728234       49.94170755294689
H           56.18207007229028       75.03928047558202       49.05969777187332
H           57.55455286400325       72.32453046994124       48.98602130711022
H           58.28427014157868       73.85806692243797       49.46008521498581
H           57.03798258561462       73.13638458638270       50.46372803319829
H           55.69737786688972       74.49740285756306       46.65456478705516
H           56.75855870315947       73.10563567926161       46.77626166867712
H           57.57296793921027       75.21368556980384       45.62528171752785
H           58.42373514004244       77.06395430907872       46.91403273735171
H           56.72980550849195       76.82075726786616       47.33328209551194
H           58.00423204747826       76.28958578108715       48.43711976300416
H           59.43175133712680       74.32570108305239       47.85163743763970
H           59.85088952806271       75.15519242970124       46.36012307913429
H           58.83432217334353       72.30229254696329       46.63048680625156
H           57.87068142060564       73.24236331330385       44.56593716925265
H           59.43173010685331       73.93310195048767       44.11976513464855
H           59.21234525742602       72.18427938398359       44.14670409096147
H           61.46135392113487       73.47433104206797       45.64712201740135
H           60.99469470370850       71.78638654866120       45.54458083881705
H           60.65827162253017       72.26602571572568       48.24685593814376
H           63.15590317685274       71.25757633999301       46.81847449312780
H           62.70042162202324       70.88664383024967       48.48059951246779
H           61.70551714317094       70.30621256041023       47.14995731968825
H           61.67326379048881       74.48363211577970       48.10844212997773
H           63.05422957908667       73.83926584278920       47.22941642770914
H           63.87138337046154       72.68336934123151       49.17392602306423
H           64.37553940273125       75.10548526318117       48.77722077147081
H           63.06989461427637       75.53806102867989       49.88048369096906
H           64.48489951127200       74.66992699017234       50.47815101828795
H           61.74896889651617       72.04302048717325       50.23354219237002
H           61.36959474453275       73.73020034612547       50.55582558103981
H           63.17130220475381       73.88867904895646       52.17159689633949
H           61.53225065634443       71.36490521607006       52.65800735720713
H           62.16091804670555       72.47157994431595       53.88106284684529
H           60.89456701277511       73.00326522313816       52.78417910553328
H           64.80745566277946       72.37009254175621       51.14216396764103
H           63.74251687173115       70.99361590750806       51.41668906123301
H           64.06193144362321       71.19999041874716       53.84150080658990
H           65.56684179295229       69.81207703844782       52.44021271416260
H           66.67790785948893       71.17265861588145       52.28156593942391
H           66.40313715491523       70.43283606192180       53.85717179092580
H           64.44695812557640       73.70961966567191       53.84601072741916
H           66.03722146294733       73.41486857516931       53.14959488102853
H           66.63084751759251       72.10842233615463       55.21288802469872
H           67.30746987116753       74.43990148483942       54.92313287916613
H           65.76013776869149       75.00572727155425       55.55236204479502
H           66.89061888534978       74.16631795358252       56.61298137582185
H           63.86801196542896       72.16143818381498       55.70121885202006
H           64.48903551380714       73.32973708710244       56.84516466916855
H           65.72779087565765       70.57159592349826       56.59105800281070
H           67.01660873397520       72.24583578174757       57.85485010429120
H           65.61519508339612       72.59342289029779       58.86634961065966
H           66.38941493997335       71.01123312530888       58.94331390033287
H           63.37974647684501       71.39995424395461       58.33153651646199
H           64.32335234865241       69.93192992684240       58.56920890919159
H           62.61542385664458       70.55346687439075       56.12463495860718
H           64.32549223521245       68.12793625512325       56.80646268586581
H           63.12451110167684       68.17302461752978       55.51477004254066
H           64.53748461599461       69.21014234543243       55.42707349770239
H           62.30692772843246       68.58892524831555       58.42153768008847
H           61.34659874569455       68.54971617287724       56.94289658359457
H           61.37286935229753       70.94097230027663       58.80791698577211
H           59.34807926494265       71.58465239746359       57.59794174348479
H           60.62323889351378       71.30252904601512       56.42694617586746
H           59.37494179229360       70.08044436139932       56.67270714093487
H           60.63884094593475       68.98960837112328       60.03676917071281
H           59.60663881488144       68.47295331758374       58.70756662018562
H           58.10725852866925       70.38320847832151       59.09513117564018
H           58.68170349039004       68.72753647377671       61.58633863926699
H           57.13528650033437       69.46882986016435       61.17011607395635
H           57.78237731371152       68.17013013435951       60.17680854442366
H           59.91929529154890       71.88066744596809       60.12268743124635
H           59.77697921862674       70.91057022866126       61.58246080472423
H           57.28762483737231       71.57055362724569       61.59377866557153
H           58.95995268837364       72.51075539282262       63.13894313316136
H           59.43269672834224       73.70867584303939       61.93093294615586
H           57.82683530547211       73.76723661848445       62.65484975096489
H           57.42475692118903       72.37857150101138       59.13684267609993
H           58.27570560044851       73.78415685299947       59.76786080701622
H           56.20407220768725       74.16267465780827       61.26390360562826
H           56.73871846142570       75.56498498114100       59.32537863441671
H           56.02645336616417       74.37970646851321       58.22965728208600
H           55.00262246785927       75.27084784511601       59.35385456775119
H           55.31478701527701       71.77909115129599       60.75646509015559
H           54.88921664963012       72.40209714719641       59.17596450820242
H           53.77798636754931       74.30204033141592       60.91641538605743
H           51.61847848408892       73.33438024964410       60.22428417619100
H           52.73889270925022       73.40616107881709       58.86445391214817
H           52.42990811966142       71.86860449322596       59.67844277737623
H           53.26728470735620       71.52183873221102       62.01904290534583
H           52.38644871955691       72.97370439860397       62.47114390697841
H           55.37552965728572       72.65731575678983       62.93383434030363
H           54.52371007482553       75.00654419526961       62.88417104078993
H           53.32795624116288       74.58685161559539       64.10946128909251
H           55.04820737158146       74.53544481644853       64.49733388342715
H           52.98287523659303       72.01997221291187       64.68073070794520
H           54.55557370494023       72.38210999973946       65.37982038890571
H           54.27836984025108       70.21899899371286       63.28626396992355
H           56.56020350891649       70.98506591890948       63.85637389221952
H           56.25466215060583       70.66014964573519       65.56074498519246
H           56.30198858432908       69.33146554271300       64.40332586052374
H           52.70606965980821       69.97714359250242       65.41814439824910
H           54.21112795541771       69.55565701151770       66.22155782439000
H           54.55088047899872       67.82075711024048       64.35715605506677
H           52.21277682526273       67.56102739171223       66.29076856769009
H           53.01597668872136       66.20483774342163       65.50388166294741
H           53.90611336199112       67.21546898067110       66.64029512033773
H           52.34971092650169       69.11579786262843       63.22011896589486
H           51.61592035150611       67.69862208972140       63.93207090791131
H           52.15036788152887       67.40424337138857       61.58812994824581
H           54.43423210012461       67.34425945289009       60.72045819707829
H           54.04582865441914       68.92680038447612       61.37982590301036
H           55.08224037615400       67.82043995277230       62.28439290276037
H           53.91050958248768       65.66636340672282       63.35751433903636
H           53.58633771882459       65.35131633585068       61.65790060407882
H           51.45026339681644       65.46326935049450       63.82132540655647
H           50.57294986520098       66.06912082241342       61.57546855493631
H           51.27728543175679       64.59527714002969       60.90776969891212
H           49.97808517850910       64.50110798072448       62.09892564911998
H           53.03587657695649       63.23130799393418       62.55029590975809
H           51.36881459837220       62.92698831620201       63.01848986677594
H           53.39747406668055       63.99079597613886       65.00157776701781
H           50.95736500939872       64.26554487439189       65.53441802264327
H           50.74627598696380       62.52333284715565       65.34924529384899
H           51.76187675707044       63.16389455364414       66.64287246573809
H           52.65175893953947       61.13854731389480       64.25828967891472
H           53.33438184444262       61.55246097528923       65.82409099239609
H           54.73312087176496       62.05513350468419       63.16649298009808
H           55.54611928259875       63.60801369656633       64.88239560778534
H           55.68836047492614       62.29514874985928       66.05338574940757
H           56.74220890962880       62.34016283696454       64.63952065005947
H           47.09606679645948       61.11207337627473       49.63009665925492
H           45.71546384977601       60.16064493641358       50.15175427303615
C           46.19488820316404       67.11666960230345       66.33054994779293
C           47.20789559491570       66.19315172695384       65.65806697444209
C           47.95554361721638       65.39389951074945       66.72471159632983
C           48.21815464000506       66.96764160892543       64.80205284952170
C           47.62882404904243       67.74115369385834       63.61387673476828
C           47.09437266912223       66.78593303744304       62.55119231548180
C           48.70833423848542       68.66817905726032       63.03814065509179
C           48.27103434356531       69.62892227082635       61.91968982326927
C           49.47868989407145       70.47508590497401       61.51419770526273
C           47.09708733481713       70.49822037577773       62.38605229636872
C           46.61427262424328       71.60036518770409       61.43070140674918
[...]
  3286   6 C     3287   6 C                                       1.5345632
  3287   6 C     3288   6 C                                       1.5282904
  3287   6 C     3289   6 C                                       1.5340030
  3289   6 C     3290   6 C                                       1.5353690
  3290   6 C     3291   6 C                                       1.5281922
  3290   6 C     3292   6 C                                       1.5341094
  3292   6 C     3293   6 C                                       1.5350434
  3293   6 C     3294   6 C                                       1.5276967
  3293   6 C     3295   6 C                                       1.5338924
  3295   6 C     3296   6 C                                       1.5393435
  3296   6 C     3297   6 C                                       1.5279239
  3296   6 C     3298   6 C                                       1.5341646
  3298   6 C     3299   6 C                                       1.5328414
  3299   6 C     3300   6 C                                       1.5286141
  3299   6 C     3301   6 C                                       1.5358444
  3301   6 C     3302   6 C                                       1.5341432
  3302   6 C     3303   6 C                                       1.5287246
  3302   6 C     3304   6 C                                       1.5359860
  3304   6 C     3305   6 C                                       1.5341733
  3305   6 C     3306   6 C                                       1.5268949
  3305   6 C     3307   6 C                                       1.5361361
  3307   6 C     3308   6 C                                       1.5349442
  3308   6 C     3309   6 C                                       1.5283718
  3310   6 C     3311   6 C                                       1.5360803
  3311   6 C     3312   6 C                                       1.5271223
  3311   6 C     3313   6 C                                       1.5351964
  3313   6 C     3314   6 C                                       1.5357367
  3314   6 C     3315   6 C                                       1.5290652
  3314   6 C     3316   6 C                                       1.5340230
  3317   6 C     3318   6 C                                       1.5301200
  3317   6 C     3319   6 C                                       1.5348818
  3319   6 C     3320   6 C                                       1.5319594
  3320   6 C     3321   6 C                                       1.5275019
  3320   6 C     3322   6 C                                       1.5369756
  3322   6 C     3323   6 C                                       1.5327838
  3323   6 C     3324   6 C                                       1.5293888
  3323   6 C     3325   6 C                                       1.5365640
  3325   6 C     3326   6 C                                       1.5324782
  3326   6 C     3327   6 C                                       1.5272383
  3326   6 C     3328   6 C                                       1.5380065
  3328   6 C     3329   6 C                                       1.5350389
  3329   6 C     3330   6 C                                       1.5260143
  3329   6 C     3331   6 C                                       1.5354987
  3331   6 C     3332   6 C                                       1.5371493
  3332   6 C     3333   6 C                                       1.5296148
  3332   6 C     3334   6 C                                       1.5387814
  3334   6 C     3335   6 C                                       1.5384809
  3335   6 C     3336   6 C                                       1.5270359
  3335   6 C     3337   6 C                                       1.5310212
  3337   6 C     3338   6 C                                       1.5382424
  3338   6 C     3339   6 C                                       1.5281851
  3338   6 C     3340   6 C                                       1.5350199
  3340   6 C     3341   6 C                                       1.5353970
  3341   6 C     3342   6 C                                       1.5304005
  3343   6 C     3344   6 C                                       1.5325654
  3344   6 C     3345   6 C                                       1.5270697
  3344   6 C     3346   6 C                                       1.5374584
  3346   6 C     3347   6 C                                       1.5386787
  3347   6 C     3348   6 C                                       1.5278815
  3347   6 C     3349   6 C                                       1.5363776
  3349   6 C     3350   6 C                                       1.5354862
  3350   6 C     3351   6 C                                       1.5278878
  3350   6 C     3352   6 C                                       1.5343401
  3352   6 C     3353   6 C                                       1.5276420
  3353   6 C     3354   6 C                                       1.5233799
  3265   6 C     3355   1 H                                       1.0865616
  3265   6 C     3356   1 H                                       1.0881607
  3265   6 C     3357   1 H                                       1.0872156
  3354   6 C     3358   1 H                                       1.0874629
  3354   6 C     3359   1 H                                       1.0878204
  3354   6 C     3360   1 H                                       1.0878610
  3352   6 C     3361   1 H                                       1.0926552
  3352   6 C     3362   1 H                                       1.0926258
  3349   6 C     3363   1 H                                       1.0917105
  3349   6 C     3364   1 H                                       1.0922906
  3347   6 C     3365   1 H                                       1.0925030
  3348   6 C     3366   1 H                                       1.0883094
  3348   6 C     3367   1 H                                       1.0873771
  3348   6 C     3368   1 H                                       1.0862480
  3346   6 C     3369   1 H                                       1.0925213
  3346   6 C     3370   1 H                                       1.0923822
  3343   6 C     3371   1 H                                       1.0911740
  3343   6 C     3372   1 H                                       1.0910495
  3350   6 C     3373   1 H                                       1.0944119
  3351   6 C     3374   1 H                                       1.0879477
  3351   6 C     3375   1 H                                       1.0883539
  3351   6 C     3376   1 H                                       1.0875757
  3344   6 C     3377   1 H                                       1.0981614
  3345   6 C     3378   1 H                                       1.0864694
  3345   6 C     3379   1 H                                       1.0884828
  3345   6 C     3380   1 H                                       1.0870582
  3341   6 C     3381   1 H                                       1.0932136
  3342   6 C     3382   1 H                                       1.0883578
  3342   6 C     3383   1 H                                       1.0885475
  3342   6 C     3384   1 H                                       1.0864465
  3340   6 C     3385   1 H                                       1.0909230
  3340   6 C     3386   1 H                                       1.0923758
  3338   6 C     3387   1 H                                       1.0942448
  3339   6 C     3388   1 H                                       1.0877468
  3339   6 C     3389   1 H                                       1.0860792
  3339   6 C     3390   1 H                                       1.0869023
  3337   6 C     3391   1 H                                       1.0930010
  3337   6 C     3392   1 H                                       1.0920571
  3335   6 C     3393   1 H                                       1.0954674
  3336   6 C     3394   1 H                                       1.0868585
  3336   6 C     3395   1 H                                       1.0874847
  3336   6 C     3396   1 H                                       1.0873728
  3334   6 C     3397   1 H                                       1.0919885
  3334   6 C     3398   1 H                                       1.0922183
  3332   6 C     3399   1 H                                       1.0912639
  3333   6 C     3400   1 H                                       1.0879671
  3333   6 C     3401   1 H                                       1.0879250
  3333   6 C     3402   1 H                                       1.0863267
  3331   6 C     3403   1 H                                       1.0927386
  3331   6 C     3404   1 H                                       1.0923709
  3329   6 C     3405   1 H                                       1.0932960
  3330   6 C     3406   1 H                                       1.0860957
  3330   6 C     3407   1 H                                       1.0879943
  3330   6 C     3408   1 H                                       1.0866883
  3328   6 C     3409   1 H                                       1.0919147
  3328   6 C     3410   1 H                                       1.0926141
  3326   6 C     3411   1 H                                       1.0928464
  3327   6 C     3412   1 H                                       1.0881550
  3327   6 C     3413   1 H                                       1.0865912
  3327   6 C     3414   1 H                                       1.0868507
  3325   6 C     3415   1 H                                       1.0929037
  3325   6 C     3416   1 H                                       1.0928851
  3323   6 C     3417   1 H                                       1.0931919
  3324   6 C     3418   1 H                                       1.0860803
  3324   6 C     3419   1 H                                       1.0882661
  3324   6 C     3420   1 H                                       1.0884964
  3322   6 C     3421   1 H                                       1.0922553
  3322   6 C     3422   1 H                                       1.0920082
  3320   6 C     3423   1 H                                       1.0915086
  3321   6 C     3424   1 H                                       1.0866235
  3321   6 C     3425   1 H                                       1.0885794
  3321   6 C     3426   1 H                                       1.0880061
  3319   6 C     3427   1 H                                       1.0911354
  3319   6 C     3428   1 H                                       1.0941127
  3317   6 C     3429   1 H                                       1.0928237
  3318   6 C     3430   1 H                                       1.0883993
  3318   6 C     3431   1 H                                       1.0883660
  3318   6 C     3432   1 H                                       1.0879387
  3316   6 C     3433   1 H                                       1.0910492
  3316   6 C     3434   1 H                                       1.0928035
  3314   6 C     3435   1 H                                       1.0930183
  3315   6 C     3436   1 H                                       1.0872206
  3315   6 C     3437   1 H                                       1.0884805
  3315   6 C     3438   1 H                                       1.0879607
  3313   6 C     3439   1 H                                       1.0936845
  3313   6 C     3440   1 H                                       1.0929006
  3311   6 C     3441   1 H                                       1.0947471
  3312   6 C     3442   1 H                                       1.0869849
  3312   6 C     3443   1 H                                       1.0873151
  3312   6 C     3444   1 H                                       1.0882086
  3310   6 C     3445   1 H                                       1.0919092
  3310   6 C     3446   1 H                                       1.0919605
  3308   6 C     3447   1 H                                       1.0927231
  3309   6 C     3448   1 H                                       1.0877760
  3309   6 C     3449   1 H                                       1.0881929
  3309   6 C     3450   1 H                                       1.0882041
  3307   6 C     3451   1 H                                       1.0925776
  3307   6 C     3452   1 H                                       1.0925747
  3305   6 C     3453   1 H                                       1.0932420
  3306   6 C     3454   1 H                                       1.0880094
  3306   6 C     3455   1 H                                       1.0865829
  3306   6 C     3456   1 H                                       1.0864734
  3304   6 C     3457   1 H                                       1.0931970
  3304   6 C     3458   1 H                                       1.0929180
  3302   6 C     3459   1 H                                       1.0929884
  3303   6 C     3460   1 H                                       1.0870259
  3303   6 C     3461   1 H                                       1.0882507
  3303   6 C     3462   1 H                                       1.0882693
  3301   6 C     3463   1 H                                       1.0916771
  3301   6 C     3464   1 H                                       1.0928205
  3299   6 C     3465   1 H                                       1.0924615
  3300   6 C     3466   1 H                                       1.0870764
  3300   6 C     3467   1 H                                       1.0880541
  3300   6 C     3468   1 H                                       1.0884690
  3298   6 C     3469   1 H                                       1.0923626
  3298   6 C     3470   1 H                                       1.0937077
  3296   6 C     3471   1 H                                       1.0929253
  3297   6 C     3472   1 H                                       1.0863985
  3297   6 C     3473   1 H                                       1.0872205
  3297   6 C     3474   1 H                                       1.0883184
  3295   6 C     3475   1 H                                       1.0904942
  3295   6 C     3476   1 H                                       1.0929639
  3293   6 C     3477   1 H                                       1.0937465
  3294   6 C     3478   1 H                                       1.0884336
  3294   6 C     3479   1 H                                       1.0883450
  3294   6 C     3480   1 H                                       1.0872527
  3292   6 C     3481   1 H                                       1.0918557
  3292   6 C     3482   1 H                                       1.0915344
  3290   6 C     3483   1 H                                       1.0933510
  3291   6 C     3484   1 H                                       1.0877695
  3291   6 C     3485   1 H                                       1.0883750
  3291   6 C     3486   1 H                                       1.0882522
  3289   6 C     3487   1 H                                       1.0915728
  3289   6 C     3488   1 H                                       1.0927859
  3287   6 C     3489   1 H                                       1.0936465
  3288   6 C     3490   1 H                                       1.0871984
  3288   6 C     3491   1 H                                       1.0882373
  3288   6 C     3492   1 H                                       1.0874140
  3286   6 C     3493   1 H                                       1.0920924
  3286   6 C     3494   1 H                                       1.0927780
  3284   6 C     3495   1 H                                       1.0940252
  3285   6 C     3496   1 H                                       1.0879267
  3285   6 C     3497   1 H                                       1.0868644
  3285   6 C     3498   1 H                                       1.0876122
  3283   6 C     3499   1 H                                       1.0914415
  3283   6 C     3500   1 H                                       1.0930453
  3281   6 C     3501   1 H                                       1.0930404
  3282   6 C     3502   1 H                                       1.0875116
  3282   6 C     3503   1 H                                       1.0878815
  3282   6 C     3504   1 H                                       1.0871314
  3280   6 C     3505   1 H                                       1.0911798
  3280   6 C     3506   1 H                                       1.0918800
  3278   6 C     3507   1 H                                       1.0925830
  3279   6 C     3508   1 H                                       1.0884135
  3279   6 C     3509   1 H                                       1.0878110
  3279   6 C     3510   1 H                                       1.0870087
  3277   6 C     3511   1 H                                       1.0923096
  3277   6 C     3512   1 H                                       1.0934904
  3275   6 C     3513   1 H                                       1.0940858
  3276   6 C     3514   1 H                                       1.0879095
  3276   6 C     3515   1 H                                       1.0858563
  3276   6 C     3516   1 H                                       1.0874938
  3274   6 C     3517   1 H                                       1.0911967
  3274   6 C     3518   1 H                                       1.0918968
  3272   6 C     3519   1 H                                       1.0927837
  3273   6 C     3520   1 H                                       1.0878937
  3273   6 C     3521   1 H                                       1.0861774
  3273   6 C     3522   1 H                                       1.0889081
  3271   6 C     3523   1 H                                       1.0936237
  3271   6 C     3524   1 H                                       1.0934379
  3269   6 C     3525   1 H                                       1.0923900
  3270   6 C     3526   1 H                                       1.0882601
  3270   6 C     3527   1 H                                       1.0866423
  3270   6 C     3528   1 H                                       1.0870104
  3268   6 C     3529   1 H                                       1.0934591
  3268   6 C     3530   1 H                                       1.0933179
  3266   6 C     3531   1 H                                       1.0945206
  3267   6 C     3532   1 H                                       1.0882642
  3267   6 C     3533   1 H                                       1.0877866
  3267   6 C     3534   1 H                                       1.0878354
  3353   6 C     3535   1 H                                       1.0929073
  3353   6 C     3536   1 H                                       1.0914036

 * 2 distinct bonds (by element types)

   Z      Z             #   av. dist./Å        max./Å        min./Å
   1 H    6 C        2366     1.0900734     1.0981614     1.0849379
   6 C    6 C        1095     1.5324905     1.5400454     1.5221716


optimized geometry written to: xtbopt.xyz


           -------------------------------------------------
          | TOTAL ENERGY            -3716.216494000509 Eh   |
          | GRADIENT NORM               0.000979674842 Eh/α |
          | HOMO-LUMO GAP              11.409315033567 eV   |
           -------------------------------------------------

------------------------------------------------------------------------
 * finished run on 2024/10/04 at 19:36:39.493     
------------------------------------------------------------------------
 total:
 * wall-time:     0 d,  6 h, 53 min, 31.848 sec
 *  cpu-time:     1 d, 13 h,  1 min,  2.804 sec
 * ratio c/w:     5.371 speedup
 SCF:
 * wall-time:     0 d,  0 h, 17 min, 18.346 sec
 *  cpu-time:     0 d,  1 h, 51 min,  0.624 sec
 * ratio c/w:     6.415 speedup
 ANC optimizer:
 * wall-time:     0 d,  6 h, 34 min, 46.221 sec
 *  cpu-time:     1 d, 11 h,  8 min, 17.792 sec
 * ratio c/w:     5.341 speedup

