3536
 energy: -3716.224227593812 gnorm: 0.000660584861 xtb: 6.6.1 (8d0f1dd)
C           63.59623522091490       58.12674409558792       49.26419810559146
C           62.10539932566918       57.80832823716515       49.18483110713409
C           61.39426118957448       58.89732822159043       48.38121492481481
C           61.47132130483636       57.70271100337150       50.57652630583497
C           61.90096274339024       56.49618973818237       51.42166997524399
C           61.26372461279890       55.21297352475333       50.88901210119124
C           61.51020526672920       56.70788132178632       52.89790493332743
C           62.67049268010400       57.04547449488405       53.84753237882999
C           62.13286220025864       57.07056541862010       55.27799471147591
C           63.32531624247849       58.37910870346804       53.47252436665415
C           64.51287522871809       58.83825950506618       54.33377516076640
C           64.81088977519690       60.29923940487272       53.99764497338762
C           65.75287533736575       57.96438757766003       54.10880286998471
C           66.88187153403938       58.15671571225846       55.13840608928012
C           68.19283400141234       57.65615465182962       54.53366409663217
C           66.53957591359490       57.43001647235344       56.44904059401307
C           67.10047198085762       58.00102079172756       57.76779621919878
C           66.80975826817877       59.49467563013138       57.89925302225380
C           68.59060299081986       57.70441906682707       57.97478945149688
C           69.10507272961566       57.96878603810774       59.39908614539338
C           70.62442178663967       57.79691160136247       59.43253585015689
C           68.44475396960752       57.05533258889486       60.44835572931243
C           67.52613822343253       57.78660436382363       61.43621307422308
C           68.34964194007604       58.63314260930569       62.40710453381396
C           66.66013904609784       56.79745110061582       62.23111582236180
C           65.53165229180382       56.15345059748436       61.41702441728132
C           64.40729853721277       57.16099228215357       61.18298045532539
C           64.95751759533634       54.90245741637182       62.09734644021800
C           65.92625007707356       53.72624446171695       62.30586193022980
C           66.89077046495635       53.53982700664204       61.13536052977587
C           65.15755249010638       52.40847392091440       62.47578918189689
C           64.23473393336425       52.27562786589877       63.69304399575851
C           65.04187669758093       52.21105651658799       64.98528659050672
C           63.39607441644974       51.00675591278438       63.48649188928033
C           62.46109714021404       50.57788007716600       64.62445730604225
C           61.75250554097239       49.29790379606677       64.18370352367893
C           61.45192576755912       51.67774445666802       64.95706181736709
C           60.44133207281460       51.35955535895294       66.06620881562236
C           59.39175282832929       52.47144133912256       66.09572150829122
C           61.10257730376288       51.22514386584195       67.44804039072517
C           61.47445068080789       49.79827749506097       67.87238706968350
C           60.21758341792817       49.00711443475211       68.23427951338253
C           62.42026558284128       49.82333146003034       69.08112875433019
C           63.87531151526816       50.22218576749443       68.78523699162932
C           64.63353575303276       49.06766628478182       68.13720102440342
C           64.53033092021421       50.64986435908391       70.10478836091845
C           65.98251753495478       51.15439792457691       70.06512358866047
C           66.35183259032097       51.57020598099020       71.49102531182199
C           66.13145817086978       52.30433841886813       69.05860436449314
C           67.39458470258531       53.16720127678067       69.16944844417233
C           67.28065471264669       54.35337659849736       68.20821637648987
C           68.72691930923875       52.40814593606829       69.03301376286321
C           68.94852027352336       51.38967792171118       67.90217703847851
C           70.31222171576229       50.74042985830552       68.15578609526109
C           68.88256875832842       52.02615027650202       66.50884005202276
C           69.39646623149800       51.17279025148817       65.33686899228650
C           69.25000389541930       51.98017197363508       64.04699946608780
C           68.64026038672522       49.84277147857235       65.25032682564660
C           69.00667321957160       48.91144643890788       64.08467339927404
C           68.10384382824950       47.68128796649761       64.16241080541268
C           70.48823620670987       48.51988095514555       64.11947838047503
C           70.98669734321473       47.70815481427978       62.91480538007293
C           72.43535433583885       47.28458246420245       63.16220739704882
C           70.86307611500658       48.48969271743223       61.59206814741585
C           69.94541239003470       47.81558831494799       60.56484967218037
C           70.65113322976576       46.61289453875524       59.93882375623881
C           69.51694320012325       48.78923643144051       59.45908412393116
C           68.51164404257065       49.87099571845120       59.87448049191607
C           67.20122103995122       49.25662172742832       60.36743354568640
C           68.19554487142497       50.80984067785684       58.70063457048329
C           69.36773202565317       51.61978507052744       58.13214316725043
C           69.98534866294970       52.53555460959037       59.18515095737178
C           68.87124589701217       52.43656785237351       56.93181027637297
C           69.96836026370207       53.00005501651955       56.01879474308645
C           69.31654240319180       53.84810683092905       54.92765939982806
C           70.81672366493352       51.87891463781997       55.39479418776917
C           72.17464061693337       51.65924971074524       56.08222339172815
C           73.19778161707737       52.64472845323333       55.52393145811498
C           72.60793609174968       50.19971194213426       55.90040711187214
C           73.92716633630327       49.78754554638297       56.56812316531603
C           74.24189432243433       48.34425695609918       56.16803593864469
C           73.88633966863983       49.93784895081911       58.10197553282543
C           75.07335363869028       50.72125709911265       58.67527673514368
C           76.37397662640305       49.93111053863431       58.52559395202564
C           74.87350225625647       51.06655536185370       60.15813921088919
C           73.72366950934159       52.02666197015416       60.49054867754160
C           73.79801540584447       53.31133181833744       59.66576140288502
C           73.73839270517836       52.39594486731261       61.98100544224506
C           73.51461398657744       51.22127270607913       62.92977984584885
C           73.36282708930655       51.69018812413010       64.37233958365493
H           64.00783242214675       58.24592087542985       48.26424892362562
H           63.75801873483070       59.05344301417819       49.81283503137170
H           64.14589940626475       57.33014262030147       49.75937150108676
H           74.24898526793271       52.23524073095136       64.69157072149210
H           72.50262883058966       52.34870444952617       64.47143066481682
H           73.22703163811373       50.84173864511934       65.04014500482037
H           74.69077334239672       52.87649520570034       62.22112548487648
H           72.94861546581279       53.13101209258772       62.15821270360286
H           74.72094975587795       50.13198272411826       60.70237484186489
H           75.80122710037210       51.51314645109172       60.52790441726137
H           75.18328382702161       51.65205823951508       58.11084346820793
H           76.58132020812356       49.71535908460928       57.48078017605300
H           77.21361452798989       50.49736170246606       58.92474360240144
H           76.31155843730797       48.98880297397970       59.06714531500899
H           72.96688133346842       50.44602948472581       58.38911454287966
H           73.86272076494213       48.94946025840029       58.56716522340010
H           71.81640652951450       49.55298580776224       56.29121675601885
H           72.69018297064785       49.99963739709157       54.82867951475740
H           72.77102016769123       51.53054138976121       60.27839733474164
H           73.04483950194708       54.01956375295013       60.00491622846253
H           74.77580379978572       53.77655176309013       59.77538396986112
H           73.62402463198534       53.11584873292597       58.61184603166966
H           74.72321974193520       50.42445309543759       56.17085730835100
H           75.16622199536003       48.00343378591118       56.62728224239754
H           73.43928299951025       47.67968984940065       56.48370644839964
H           74.34824883362329       48.25875835620777       55.08792555961578
H           72.06313000399716       51.86057094145720       57.15080489497497
H           74.13811617071234       52.59437336360625       56.06799575803383
H           73.39528939797972       52.43270860260456       54.47617637523285
H           72.82022407659558       53.66197644547429       55.60133205157017
H           70.24079308056787       50.95201327185610       55.41683351619494
H           71.00676773059260       52.10388188312680       54.34314308950127
H           70.62001473957106       53.65462471130449       56.60711643649012
H           68.68027934992016       53.23125918739173       54.29783691593873
H           68.70800222330787       54.63536381867223       55.36787007416791
H           70.06967835859665       54.31691230254368       54.29706487065939
H           68.22337319973705       51.80452351073327       56.31905537006514
H           68.26056250323253       53.26341438767391       57.30506937401672
H           70.12968715600685       50.92134940668684       57.77922265204818
H           70.78622587571436       53.13299258415336       58.75669698426815
H           69.23453394680729       53.21122286217164       59.58649348113067
H           70.40601529674899       51.96175770822082       60.00711379031464
H           67.77389458777239       50.20648011524403       57.89273384205246
H           67.42196755301687       51.51063592965523       59.02122454098206
H           68.93374761153795       50.46490812643379       60.69106638256397
H           67.34161530391732       48.69359994497827       61.28559360468027
H           66.47240208810925       50.03897116089953       60.56496617403788
H           66.78668227508656       48.58830370321421       59.61550101443648
H           70.41940072358902       49.26371229869059       59.06741103288778
H           69.07121115894181       48.21295234000430       58.64417627690021
H           69.05247064688064       47.44918177585221       61.07851315882503
H           70.98725165815782       45.91660397694286       60.70362135828470
H           69.98067958978659       46.07682634495786       59.27005523380726
H           71.51980758025016       46.93641656784320       59.36701669803917
H           70.48845487737525       49.49157472581244       61.80152077416901
H           71.85159430869014       48.61160377277562       61.14186547095142
H           70.38814618122944       46.79459910328257       62.84192220230408
H           73.07380271825294       48.15768920275556       63.28231708875001
H           72.51267178772460       46.68273858254617       64.06550179643382
H           72.81316141073405       46.69596678475075       62.32853148505941
H           71.09711479029700       49.42347235236015       64.18166570020247
H           70.67168297560133       47.94028797902874       65.02871032857706
H           68.79256349097615       49.42565483959956       63.14470222944201
H           68.26275444542084       47.01835903821139       63.31573896680433
H           68.29424354010473       47.12278936250648       65.07695300948572
H           67.05913299688844       47.98316309029248       64.16040239052055
H           68.79270715799619       49.28634746930033       66.17625959298422
H           67.57202962889353       50.06571442663102       65.17916319118167
H           70.46039849132100       50.97847732047153       65.49555307525773
H           69.68344904937906       52.97160841963993       64.16701591458134
H           69.76040649095056       51.49404363064966       63.21976614299270
H           68.20058759890178       52.09684839712207       63.78752907822735
H           67.84581942795025       52.28801471081368       66.29552822623154
H           69.46337507270347       52.95233889038251       66.52837228091792
H           68.17790619099161       50.61694712105715       67.97631461481502
H           71.10759679577143       51.47438497549002       68.03771033820810
H           70.36079175108971       50.34782752669781       69.16988740890211
H           70.50042094758084       49.91972915928599       67.46969741544225
H           69.52358101246800       53.15646829330044       68.97271097283787
H           68.88335842575198       51.86286166614754       69.96765012002976
H           67.41401330417339       53.60138513812523       70.17679946189469
H           68.19100666521300       54.94887675652148       68.22434247044161
H           67.10013082073343       54.03155441850743       67.18785364240151
H           66.45421657051853       54.99477173331731       68.50851634206549
H           66.07542635899314       51.89641789273288       68.04814786096556
H           65.27807218578609       52.97678510046708       69.18903248731053
H           66.64190996003207       50.33181415991211       69.77173542259877
H           67.41235845717461       51.78334744696067       71.59030598474821
H           65.79285472887260       52.45547005050923       71.78891484674106
H           66.10865868837273       50.76981562225399       72.18829828189901
H           63.91995528167023       51.44552755747338       70.54418414250061
H           64.48951918963603       49.79661427376684       70.78803280962765
H           63.87690438148562       51.07329956779632       68.09832583340446
H           65.63183019267943       49.37542682523782       67.83718583600698
H           64.72475905551718       48.23868102146466       68.83655413529291
H           64.11332300090575       48.70967546157068       67.25226542562730
H           62.00387900184507       50.51888909542136       69.81523774698933
H           62.42974657587359       48.83339021718237       69.54452039892936
H           61.97343704168885       49.28623033734234       67.04806201961301
H           59.73325651546243       49.44757390305384       69.10446106495070
H           59.50435804449213       49.00552520592020       67.41336785235920
H           60.46576703176538       47.97413576057669       68.46692473187636
H           61.99394871043946       51.85441618867954       67.46668580954355
H           60.42013528897740       51.61850684442913       68.20700196433980
H           59.92277423159069       50.42965238957215       65.82011589954590
H           59.85507198089784       53.42933970314834       66.32513121006136
H           58.90069324959741       52.56244458657029       65.12884238514708
H           58.62944975204153       52.26274957224901       66.84385656343102
H           61.99105689196493       52.58320057260858       65.24543579592968
H           60.89800423111734       51.90314352735300       64.04243889492145
H           63.06517819272690       50.35982859228108       65.50893912542692
H           61.16902643013854       48.86372022715904       64.99054567102476
H           61.08146934093266       49.50858005455433       63.35346853120821
H           62.48044634761310       48.56028184611123       63.85690583507934
H           62.79169779187473       51.14241276994795       62.58579758249136
H           64.08585652515983       50.18014602160621       63.29208442300692
H           63.57301918522169       53.14520736786621       63.73298518186628
H           65.66584732794428       51.31897053228474       64.99674247696893
H           65.68283394051210       53.08485909456883       65.07952152541122
H           64.38806612151434       52.18267122668187       65.85263095066466
H           64.55917908081500       52.25802470858314       61.57246461954569
H           65.88355694294098       51.59101601659700       62.52195445077817
H           66.52292142865087       53.91239646991450       63.20537122146912
H           66.34273173419751       53.45613247074038       60.19922096276002
H           67.58860765507193       54.36714831762307       61.05956863528159
H           67.46892124106972       52.62932851418715       61.27695716776785
H           64.54362889062197       55.19268680528150       63.06616107722566
H           64.12514548924116       54.54969759891196       61.48304046930070
H           65.91684715119040       55.86032932332961       60.43799509147107
H           64.77421618148423       58.03174857693011       60.64580482135177
H           63.60783466318594       56.71645404808844       60.59447944067708
H           63.99235726973602       57.49724274987702       62.12964629287904
H           67.31463308477770       56.02617258363134       62.64049570119961
H           66.21460092384730       57.32221708791401       63.08106971647385
H           66.87004558743467       58.45725072313555       60.87348679868106
H           68.96891476390510       57.99498384183286       63.03546932980550
H           69.00327162851012       59.32141605317746       61.87605180380658
H           67.69958826641128       59.21888343201082       63.05505912703229
H           67.87550325479461       56.28611764302294       59.92731067370138
H           69.21966839539211       56.54307006608476       61.02452734237305
H           68.88355870850862       59.01111685969884       59.64672663785019
H           70.89814216372368       56.77953043546817       59.15919738354409
H           71.10978812763844       58.48035552411368       58.73938594138607
H           71.01103038882920       58.00134036730417       60.42909767325438
H           68.78992984636801       56.65874026580281       57.72417880360077
H           69.17315850636781       58.32408846303498       57.28922908510535
H           66.54852097892993       57.48657796157131       58.56308798822028
H           65.79404266976613       59.71242573369120       57.58045225015278
H           66.91464540464116       59.82166056852872       58.93040599854863
H           67.49589359563815       60.08507065447625       57.29693608226428
H           65.45298746548316       57.42926200586595       56.55597229786552
H           66.84658117044084       56.38441634686482       56.36022724975555
H           66.98958483814324       59.22420557582451       55.33923991432972
H           68.46407132055398       58.25446143222177       53.66547638200262
H           69.00543630109294       57.70784600626591       55.25135881383633
H           68.09397312120450       56.62290487560588       54.20917213046281
H           65.46394009138517       56.91147925865774       54.11872888262423
H           66.14509777272713       58.18308394405431       53.11233349841805
H           64.22853763956108       58.79144580293009       55.38871919632009
H           65.62140423391686       60.68771927195907       54.60912730687279
H           65.09271518590798       60.39654099386870       52.95083268812495
H           63.93380850040404       60.91972875961047       54.16869562936041
H           63.66725774267218       58.32634722375599       52.43751121974513
H           62.55377442099430       59.15185835527408       53.52470135745056
H           63.41517256362096       56.24482894406830       53.76670041627964
H           62.93590323793218       57.16008213879036       56.00424754189389
H           61.45615847267223       57.91201751158804       55.41307651911055
H           61.58627203876011       56.15612938678120       55.49808426057722
H           60.75902553065391       57.49803606070110       52.96756913574711
H           61.03844356414834       55.79462826384417       53.26813552795333
H           62.98816264591477       56.38329217955246       51.36207445558816
H           61.61382487095394       54.35017413149860       51.45246714734316
H           60.18042952392111       55.26288954244075       50.97710524156900
H           61.51341510681693       55.05609936036343       49.84278711815189
H           61.70789153597092       58.61719980685973       51.12193122984288
H           60.38384757160600       57.66321735369554       50.46402968068302
H           61.98293833981868       56.85591956495877       48.65722300478259
H           60.33168579260992       58.67961655080676       48.28948998553916
H           61.50466960428534       59.86276799068388       48.87220749524163
H           61.81537287765693       58.97893498490540       47.38054353011108
H           72.61428160264701       50.68308870383245       62.62686600187332
H           74.35574371123688       50.52790874252323       62.87101687486913
C           48.27507683702039       68.34909124890635       65.06693328138599
C           49.58550135968016       68.38434590243594       64.28403598094519
C           49.32807747987982       68.83177739642190       62.84648463025995
C           50.35309408470638       67.05474390543314       64.34931286928412
C           49.63833901221455       65.82358995735618       63.76531008921990
C           48.99022377629528       64.98725832351447       64.87054167130739
C           50.61626713707668       64.92908627409844       62.99152333981629
C           51.10291410818214       65.47797542596757       61.64506068994194
C           50.01656325341271       65.33583547458532       60.57968515812111
C           52.36554891533139       64.73093064920396       61.18749758423000
C           53.64631266181058       65.12885107496092       61.93139952309697
C           54.17429702577132       66.46679269441329       61.41284867218528
C           54.75603591087743       64.07836610599925       61.78274842661396
C           54.48398155893639       62.69055161261150       62.37327465047822
C           54.15855803860548       62.76846951562966       63.86263554465431
C           55.70319186482876       61.78005012786920       62.17243083697716
C           55.91232510020746       61.24362332109400       60.74857962067654
C           54.87751264171911       60.16903650946353       60.42541351256305
C           57.34701183200023       60.70197430332977       60.66204166085783
C           57.72660489349507       59.90524188540610       59.40805256410477
C           59.11841769622600       59.30917957390845       59.62023984769852
C           57.67647636029125       60.77969398258869       58.15222641791144
C           57.81377525247451       60.01112702066791       56.83164989186636
C           58.09895554127800       60.99219261621398       55.69683978602127
C           56.56103163472815       59.17072505287854       56.51481107830374
C           56.85444415485478       57.68703415817728       56.27278464582926
C           57.74295455841210       57.49968006050123       55.04227186257382
C           55.56767992817553       56.87482486633405       56.07064879098412
C           54.56446827790126       56.84951404738300       57.23264657645931
C           55.24628905292096       56.51846292050508       58.55989424062606
C           53.47256591376279       55.79656031676866       56.97820479762917
C           52.60194339733842       56.00163394093687       55.73551171224703
C           51.69416179860865       57.21647656983963       55.91944540780722
C           51.71893977012924       54.77985214484848       55.43497011232613
C           52.42882345212399       53.42957547868516       55.26741650513131
C           53.48781683629067       53.49614309644863       54.16695379518872
C           51.41447621802709       52.31401302981280       54.94999846390078
C           51.00550107687857       51.43813933777643       56.14411601444542
C           50.24554521589513       50.21841185824496       55.62553700330201
C           50.17054076118868       52.23693984487038       57.15163149607769
C           49.54665451254838       51.45755201326145       58.31987623866002
C           48.70398912533597       52.42683912828117       59.14885976746802
C           50.63161020072134       50.78345112581445       59.16767881546679
C           50.18292357871402       50.10004191371079       60.46922574138443
C           51.42895834950440       49.60906646506997       61.20732238216207
C           49.22786063836264       48.93525562937117       60.19013444757993
C           48.47914012632145       48.38674949132716       61.41540214015398
C           47.97564205303384       46.98315125864185       61.08086122976270
C           47.31860122671700       49.31495787165358       61.81768156636488
C           47.12163766879065       49.49336677124421       63.32748563607031
C           46.64784413787260       48.20206238902168       63.99268331088508
C           46.11002642744590       50.61276741384893       63.61947046104562
C           46.61906099894351       52.04224767822046       63.39887274757918
C           47.68918289058733       52.40406774203636       64.42947050067440
C           45.46670515233764       53.05259652734098       63.50394073528696
C           44.45357362696056       53.07686888471888       62.34924412561638
C           45.08708634129742       53.60222209846495       61.06355450295020
C           43.27050874137382       53.95638651041436       62.78284930226856
C           42.10260838990410       54.08643250862850       61.79512362382584
C           41.19534624333231       55.22708503504154       62.25906083439187
C           41.31918484318935       52.77221896230142       61.68874392869473
C           40.34314758929543       52.69163607769153       60.50413888494725
C           39.32224937661563       51.58376587740270       60.75722723287230
C           41.10959622684558       52.44981124685804       59.19958232613785
C           40.30867432257954       52.55540349086934       57.89099304270596
C           41.27744549140554       52.31686148025641       56.73362680835751
C           39.60898893595555       53.91776683786254       57.79270536814069
C           39.03014396295710       54.31132016811726       56.42543740405084
C           38.37832380176792       55.68782344314965       56.56052931071392
C           38.02541346895657       53.27192537246960       55.91454993568508
C           37.34378320622204       53.59214232989415       54.57346150884524
C           36.32848033768644       52.49020214851238       54.26653557969720
C           38.36956246547590       53.72248840142515       53.44132254807328
C           37.84097389699760       54.28075233480237       52.11009614152741
C           38.89021638633113       54.04753317534044       51.02324829181373
C           37.51145594667265       55.77184589415278       52.25206976865249
C           36.90332135001239       56.47304157792318       51.02731858334725
C           36.80949669111180       57.96852114597659       51.33544299658362
C           35.52838527641026       55.88938367119992       50.68475226919004
C           34.86577245242037       56.42786854717841       49.40883990514624
C           33.44790874702237       55.86059610963353       49.31290096416070
C           35.66479416489091       56.08126421958032       48.13817392220059
C           36.46191072632286       57.25276320503319       47.54998249930506
C           35.51861449153301       58.25941911567489       46.89029398416130
C           37.48015704185288       56.77004419533344       46.50764492272697
C           38.69972468861320       56.02633064007762       47.06453582970750
C           39.64495721479030       56.98701004130640       47.78301700037911
C           39.45942312353166       55.31984369092419       45.93259592041965
C           38.78762863980371       54.05612108859518       45.39353644732536
C           38.84633561492520       52.88792491194162       46.37065405730846
H           47.56956353514237       67.65950455727027       64.61017397626291
H           48.44869146329983       68.04154887319174       66.09594455731114
H           47.81916244384296       69.33744523717792       65.08044301152709
H           39.87721722953640       52.68297869394737       46.64956343630413
H           38.27998898365161       53.10127824906093       47.27368607483242
H           38.42884054427257       51.99223155130323       45.91589341995649
H           39.59413467933610       56.02928652554389       45.11221899982404
H           40.45380699024739       55.04511755320944       46.29137342509605
H           36.95439996329730       56.12494960505806       45.80034984963222
H           37.84222870643781       57.63631762645537       45.94697461448848
H           36.99418117301801       57.76265834432114       48.35661182319046
H           36.06947397941464       59.13260929664555       46.54661966014820
H           35.02481934451047       57.80726583188004       46.03181457606497
H           34.75133321759675       58.59495184422471       47.58374073204998
H           36.34055118021966       55.25544285885067       48.36349956969568
H           34.97902172816399       55.72490137978605       47.36558945733152
H           35.61707759738993       54.80607005244238       50.57773309073531
H           34.85841447738075       56.07860202134555       51.52872168240567
H           38.36802799210454       55.27156198110552       47.78261449506719
H           40.47367718459761       56.44300484580130       48.23146428617857
H           40.04911048998927       57.70770683423448       47.07475663176518