3795
 energy: -5103.723089420748 gnorm: 0.000908906220 xtb: 6.6.1 (8d0f1dd)
C          117.40687335197897      125.36633746119004      117.40792293884711
C          116.06012816104541      125.06426195133592      116.79414843365997
C          117.32422957857065      126.57521202247457      118.34558186778982
C          117.10289997899032      127.90055133061146      117.61928250409892
H          116.52724476025875      126.40880350433021      119.07284951592023
H          118.26076056022730      126.64298635709828      118.90200667239179
C          116.94715285889053      129.02345050629867      118.64678649852854
H          117.96675130749811      128.10838217324459      116.98527794539122
H          116.21779129935013      127.84533967644236      116.98075919132457
C          116.90597506954138      130.40107065665413      118.02399072545018
H          116.03138397082147      128.87033651360773      119.22047181140394
H          117.79314535472527      128.96920194951656      119.33103269122803
N          118.08636719425687      130.86972799926457      117.62946582178174
O          115.87197011067353      125.65602778012807      115.63642317132542
O          115.22740196503958      124.35281898246362      117.31910692064946
H          114.93728381004571      125.46847486566718      115.25121712684039
H          118.12286441742542      125.55175992454454      116.60892576964511
H          117.72542766040338      124.49068569833493      117.97416765098930
C          118.26357102612809      132.14259830716244      116.96458958278092
H          118.90671524049381      130.27880729285340      117.73538728095892
C          119.30420644406719      132.05184768814669      115.85490931284059
H          117.29294402492621      132.44190558658678      116.56141301411552
H          118.58169317684278      132.89209908310985      117.69980739515412
C          118.90115430505146      131.10198980984626      114.72846491831152
H          119.46388528097143      133.05061209718258      115.44751765186764
H          120.24369157237129      131.70573692611953      116.29024995159048
C          119.99796529232786      131.02924108895317      113.66848615877417
H          118.73173943142669      130.10522733223877      115.14224350021524
H          117.96747230317168      131.43344145911743      114.26923482063881
C          119.72764801152057      129.96188089892996      112.61069581849237
H          120.09917203918093      132.00113216510198      113.18320024547069
H          120.94646703151582      130.80156128715092      114.16069332114115
C          120.91347100256971      129.82463965759905      111.66095205075368
H          119.55921772616118      129.00133372505084      113.10351077974821
H          118.82008701564882      130.20627757521967      112.05594559667780
N          120.88656023107714      128.56371613249985      110.94868546589092
H          120.92688854867171      130.63056243391406      110.92221786907152
H          121.84920209579944      129.89090324881374      112.23186292045750
C          121.61111678181720      128.35030724980058      109.84870489671960
H          120.41220183516626      127.78016807964683      111.39156113636862
O          115.86016121710355      131.04823724613851      117.92259714523739
C          121.52341834350231      126.94946142301285      109.28310331057779
C          120.59608120997733      126.90353848717614      108.06523356043513
H          122.53294342702010      126.65935363954549      108.98512207925776
H          121.16294688105914      126.26697929102211      110.05037220448649
C          119.11867834212440      126.94723044303743      108.44282075923071
H          120.82538901557440      127.74649753754991      107.40878556205151
H          120.78674206052536      125.98314133772294      107.51002296936791
C          118.23435967893214      126.91857569889945      107.19163395749618
H          118.87675797511265      126.09492315470497      109.08139985315239
H          118.90463754155004      127.85246060929289      109.01245548503115
C          116.77211447610230      126.98166575577575      107.58289331445059
H          118.46236798291064      127.78346501005979      106.56644528035932
H          118.42156506112282      126.01135633022420      106.61692612978491
N          116.14591530683008      125.80403569610580      107.61887294028523
C          114.73832454661871      125.69497214200803      107.94225188126208
H          116.58672541704533      124.97911835517515      107.22455963279818
O          122.29380332992369      129.22779898333292      109.31974043572626
C          114.36110764888670      124.26910648375248      108.31951455877041
H          114.53921170306934      126.39125630251507      108.76088123333891
H          114.14428811185032      126.01148934357410      107.07708257834618
C          112.84518244072019      124.07566476982117      108.36831810186835
H          114.79001935731037      123.59307669970164      107.57667744676424
H          114.80007224937894      124.02376245341476      109.28711550414721
C          112.20869851395807      124.83847557033933      109.52723928156085
H          112.42152020991207      124.41792829769410      107.42311480275754
H          112.63209720089743      123.01048436590794      108.46833587300205
C          110.68786158880653      124.70201973647387      109.60209324269280
H          112.64218472640941      124.48383210858644      110.46234184134656
H          112.45351698572520      125.89682349017843      109.43732423103802
C          109.97739210658986      125.40820701385087      108.44698513949248
N          110.38274535416045      126.79699421852858      108.39173275563712
H          110.22718410369332      124.95508789121818      107.48639058335407
H          108.89214415327308      125.35024043025268      108.58005326717682
C          110.97768050041491      127.33862589734065      107.32683337421233
H          110.44678829340789      127.26571094529058      109.29361820886979
O          116.22389274130974      128.03689334994763      107.90341699489376
C          111.50172528536561      128.74954773324495      107.53812296260742
C          112.88360113010772      128.94305037430888      106.90249664971346
H          110.79552019131150      129.45129277895660      107.08867191386548
H          111.55213857649309      128.95101374210043      108.60873663189570
C          112.82720961864477      129.11497004736370      105.38001847370411
H          113.35705780091452      129.82359164066509      107.34129223674857
H          113.51691093610074      128.09157907426916      107.15182504152909
C          114.14593685391574      128.73602640742976      104.70943210831847
H          112.01020645606464      128.52699878297886      104.96270604294816
H          112.61574757666706      130.16211064923118      105.15270610024258
C          114.42898484758804      127.26193774454069      104.44508700440548
H          114.22044073256555      129.21839538217000      103.73087923585872
H          114.98433278387128      129.10852102934493      105.30460249950210
N          113.48460538729491      126.37273014035399      104.75891693659226
C          113.59062568106222      124.95917571624065      104.45252174110729
H          112.62709622130588      126.65255993207606      105.22922099194396
H          110.40110875343233      123.65104439252725      109.61261934130427
H          110.35072173812466      125.16077925233002      110.53336841854090
O          111.06975622492185      126.74911850405047      106.24957799103032
O          115.49742408601094      126.93479460442843      103.92400869296607
C          112.22734283656658      124.41530264466031      104.03364189575159
H          114.32687250149604      124.85236518250719      103.65063850341409
H          113.96570253958055      124.41785798420342      105.32735293914180
C          112.23130518374322      122.91399331210276      103.74453329333721
H          111.50782648605831      124.63962484618395      104.82327988350130
H          111.90610546479425      124.94978269666504      103.13720731471841
C          112.40493231621768      122.03868437441845      104.98507111335613
H          111.27939692733413      122.66006105830516      103.27355223893187
H          113.02572756673743      122.68942521614693      103.03008742223172
C          112.19984898596137      120.56191115577106      104.65291607251406
H          113.40346493398413      122.18110322305252      105.40240660535284
H          111.68194529757484      122.33949397539925      105.74473443866606
C          112.46379375886629      119.63674948849003      105.84100783842332
H          111.17392339182453      120.39925999616200      104.31809656674312
H          112.86837864706592      120.27313308284002      103.84053122535570
N          113.85244253452800      119.67784474668485      106.24022731353492
H          111.87067317363267      119.94199217031669      106.70440175263249
H          112.18845834649555      118.61631849710128      105.56609877662473
C          114.26057967595953      120.29298471559129      107.35769265684367
H          114.53355391621047      119.38884521895359      105.55003407709424
C          115.74961211961184      120.55328848178495      107.44525590175368
C          116.62146009443178      119.30226315496260      107.58467890194365
H          116.03414953259133      121.08678539709273      106.53547201714758
H          115.92209238283367      121.23064476003866      108.28078483929563
C          116.59347627072243      118.67322046070629      108.97878407631542
H          116.31355793119742      118.56302574936382      106.84435092508399
H          117.65016760157958      119.58953955026583      107.35991357255743
C          117.08106104375277      119.65276797208472      110.05147148860375
H          115.58335768862307      118.34421130286771      109.21768120224996
H          117.24811749703017      117.80090766170642      108.97275357446058
C          117.34703243645056      118.99083874176144      111.38985479290085
H          118.00871272399189      120.11637954013148      109.71184260449101
H          116.32935514437506      120.42447857932956      110.20909882349611
N          118.54770576736556      118.41625721703538      111.48460955195414
C          119.09222588131136      117.87587484983531      112.71226947247432
H          119.16354053920105      118.41667198999174      110.67869531489855
O          113.47989816145470      120.65141201393001      108.23482934501973
C          120.59960808369425      118.10498021876337      112.75162132697361
H          118.59190890420922      118.37291949571343      113.54771523826165
H          118.88382952605841      116.80113705044400      112.77431689252893
C          121.30878165572162      117.32515450349074      113.85525516846081
H          121.00566430903335      117.78292378743612      111.79071398386178
H          120.80812592378084      119.17157491666649      112.85850434977210
C          121.05547886579048      117.86109132197620      115.26079600834940
H          121.01947626366257      116.27507737667341      113.79852007762844
H          122.38178788040742      117.37102755474589      113.66881707360544
C          121.95516529861234      117.16062222799870      116.27678027096559
H          121.26004830192214      118.93449214712365      115.27957875508329
H          120.01380957488894      117.72303332117109      115.55156554227202
C          121.70040074750570      117.67139896779632      117.68568309723780
H          121.76749181849056      116.08585316134861      116.24883298792187
H          123.00477752688774      117.31999311896280      116.01711595097225
N          122.60278823043890      117.05809861465244      118.63662672822477
H          121.85740331901421      118.75250132561602      117.73908084988436
H          120.65994935830537      117.47676852001983      117.96952932351236
O          116.53468141942039      119.00401342327632      112.31358953801825
C          122.91162447604755      117.62461606858190      119.80828223867636
H          122.99844430708822      116.16691923760563      118.38153298662367
C          123.93166028879050      116.88324080306899      120.65842096118527
C          123.82567538734895      115.36123651307653      120.60815947307309
H          124.91899665278864      117.19878798552752      120.30723943659952
H          123.81885316380702      117.24795361985572      121.68236148807742
C          122.44570196956980      114.84329729014868      121.01627305343291
H          124.06293728500226      115.00887415617362      119.60306761580576
H          124.57198502972295      114.92906147861964      121.27933216583627
C          122.22862932951968      113.40133226442515      120.53765940990249
H          122.35282320996070      114.88013918100359      122.10349618660089
H          121.66852208764836      115.48632165153451      120.59564333880675
C          122.00601992144738      113.40337519639795      119.03759812653378
H          123.11159466603019      112.81376742663714      120.79226457912625
H          121.35383615259262      112.97875536322199      121.02688433318070
N          120.74156962406855      113.22572244384351      118.67599046626044
O          122.42683955835969      118.69301786961894      120.17386258761366
C          120.24399192780209      113.33286366095031      117.32358315611781
H          120.03574413686941      113.08501705088497      119.39534302271080
C          118.93146278837946      114.10949192293383      117.31640049546490
H          121.00532767239508      113.83531398352322      116.72351827643804
H          120.07368744073189      112.33062144724676      116.91606213865848
C          118.47054657348676      114.47149034836049      115.90656562678022
H          118.17252748795680      113.49670473074252      117.80543631156512
H          119.05267027055871      115.02500553259517      117.90050613881193
C          117.02221469782774      114.95739425402580      115.92947738272971
H          119.11669074268731      115.25604055818779      115.50954500321384
H          118.55850509582912      113.59862466707661      115.25821102203118
C          116.62496430785116      115.71846103096750      114.66768358939891
H          116.36118856861856      114.09968183920171      116.05678327790402
H          116.88710398897661      115.61453838356807      116.78821487579725
C          115.12833476794037      116.00143455124847      114.67456351382951
H          117.16922160514254      116.66342107814587      114.62931420542840
H          116.88851281688545      115.13812961725955      113.78425851691027
N          114.74134884683362      116.90812865191111      113.61338470375989
H          114.56853832756423      115.07377658507222      114.54619569743920
H          114.84787471445725      116.43806811743846      115.64247809151210
C          113.49375156277098      116.99297048170880      113.13709211438065
H          115.42224406550922      117.60152571799287      113.32442129424741
O          122.92492162983805      113.58691447443701      118.23088305785753
C          113.29316840997114      118.13287173061141      112.16008193107825
C          113.29296328483544      117.66914986679930      110.69995596390994
H          112.34011520739494      118.61505547655530      112.37952060675903
H          114.09950636068756      118.84908702071540      112.30500912012543
C          111.97107518532817      117.03322032410962      110.28411670446020
H          113.47180953920558      118.54245639840931      110.06824307940687
H          114.11080415352764      116.96161934391729      110.54549635825984
C          111.97947942497417      116.65061347649633      108.79910636492133
H          111.77847861720288      116.15090813774572      110.89348237471647
H          111.16566536325129      117.75028342514577      110.46405943172516
C          110.55323494414625      116.46243600064908      108.31470304658590
H          112.43130064724322      117.46007650189114      108.22202031003404
H          112.54867695420332      115.73341654905224      108.65058957625128
N          110.00598687810775      115.29561875565679      108.67535245684599
C          108.65202687293566      114.92644965320828      108.33370310215059
H          110.61818750305103      114.55751063166126      109.03253088353375
O          112.59318789149087      116.22362952978639      113.46317278768400
C          108.62196967302441      113.80878325741155      107.29161524113151
H          108.13219219269439      114.59876039298888      109.24041311787143
H          108.16823436783000      115.82692872406587      107.95001979359378
C          107.20675256926242      113.38844432363869      106.90205423955616
H          109.15167055310727      114.14837582730510      106.39939780085362
H          109.15882526703444      112.94985155207983      107.69772386648170
C          106.49189872321341      114.45492089744532      106.07490748216050
H          107.27039170030910      112.46936672982170      106.31810507017944
H          106.62821885458368      113.17784956466573      107.80330517989240
C          105.09733872489164      114.00906744183541      105.64748437998733
H          106.40588711196484      115.37435505207256      106.65563846897685
H          107.09025668059074      114.68130460791879      105.19138169336132
C          104.37155848854457      115.09151880873914      104.85328449062924
H          105.16249629907868      113.10678456603078      105.04062813627927
H          104.49948148395218      113.78256935649750      106.53214243834144
N          102.97618897570268      114.73969206602438      104.67633241883775
H          104.44247183390772      116.04168526178859      105.39451601023448
H          104.81175393054890      115.22748144230363      103.86297042791169
C          102.37916800785497      114.61735310505006      103.48252221370463
H          102.53158220374512      114.33041878270598      105.49651384649772
O          109.94898494478579      117.33991052589933      107.70441568590671
C          100.97707571018010      114.03861277849717      103.56496177388777
C          100.27617851493569      114.04902544699810      102.21000666520298
H          101.05904659297134      113.01899469217111      103.94823488568522
H          100.40135154724224      114.62305327868775      104.28682057920560
C           98.82196773289027      113.58680052405448      102.27748068640534
H          100.30420872893497      115.06492394559741      101.80756142058110
H          100.82205906651872      113.41083720213288      101.51210760607982
C           98.67907852554050      112.10920915013551      102.65466590606734
H           98.27311842450170      114.19760495167574      102.99737114195220
H           98.36715910679966      113.72946486990925      101.29486945902127
C           99.36899654933653      111.23372852336621      101.62089148979402
H           99.09277124465795      111.91201291223756      103.64208633198052
H           97.61884822505829      111.84832384180959      102.65897059381290
N          100.31543589881176      110.42943028816087      102.11674733911293
O          102.89989215552409      114.97200168204890      102.42939394778064
C          101.13810972928398      109.56049885659766      101.29763699032763
H          100.50124243286305      110.42907159482263      103.11385600934007
C          102.47571014239635      109.34546513026056      101.99158991385974
H          100.62486722736142      108.60432774182058      101.13629153302576
H          101.26114693766166      110.03772646302967      100.32045380875284
C          103.48993749069683      108.55125884876858      101.17334518112929
H          102.89761004080751      110.32245775898527      102.22752482706115
H          102.28928184674785      108.82693864603743      102.93428296472413
C          104.74703062071953      108.31844039081015      102.00979644692100
H          103.05169993427178      107.59593213730831      100.87836434557549
H          103.73698486408480      109.09283196232096      100.25944676150412
C          105.83898474809121      107.53073913818136      101.28495098974224
H          105.15325459594574      109.28408813701232      102.31200062595953
H          104.45350580143005      107.78919983837609      102.91645860428767
C          106.88578386826808      107.01300788325324      102.27381879892859
H          105.40619108491565      106.68125464640114      100.75258814198820
H          106.32695117134220      108.16556023409832      100.54419171930728
N          106.36265771941358      105.88216115494230      103.01239202052757
H          107.78611568771728      106.67263333711583      101.75560614531608
H          107.16425027067891      107.81682315154752      102.96470875373257
C          107.05807071946812      104.78137380605965      103.29231818617461
H          105.42839259337303      105.98992699218435      103.39181563155940
O           99.08418071256975      111.27301854757467      100.42565516621437
C          106.26590411141945      103.67082691661118      103.95477259649616
C          106.33059341025809      102.38735721223551      103.11958988022829
H          106.69510011354899      103.47032515037597      104.93761177603108
H          105.22941267037680      103.98001984565195      104.08477847743941
C          105.61413080913891      101.23672833800408      103.82457349271164
H          105.87520325735437      102.56273386610270      102.14172776397112
H          107.37438779388583      102.12071300887440      102.94107688982466
C          105.40715490262596      100.02037690399729      102.91811364063645
H          106.19055256817163      100.92876441893962      104.69768763104399
H          104.63405162834884      101.57596896289169      104.16678442833297
C          106.71665044903126       99.49292076479753      102.36457926899612
H          104.92463268661054       99.22622603145125      103.48982333644251
H          104.76737784915535      100.28532518064760      102.07452029720754
N          107.54516499360354       98.96612807396652      103.26506733259664
C          108.85206143809445       98.44637049020011      102.92482079935924
H          107.26526938618088       98.88474899460743      104.23690526546896
O          108.25494470537174      104.65919991193675      103.02237191391357
C          109.88448496764408       98.82622737930366      103.98148745935779
H          108.80492545897384       97.35392806620614      102.83661536310522
H          109.12424246176990       98.84723743322023      101.94554859371937
C          110.03252076568525      100.33385196677166      104.17178512198370
H          109.57318403368832       98.38542577533173      104.93106299362026
H          110.84259013535711       98.38858805142365      103.69596395937764
C          110.67888062097836      101.06314663318307      102.99408889732435
H          109.04680574665061      100.76084809973842      104.35776701645550
H          110.63870500755438      100.50093712808949      105.06292893489130
C          111.02188126002376      102.49796338612580      103.39611810600273
H          111.58430160377146      100.53336099154154      102.68571586218151
H          110.00202047344510      101.07090136042110      102.13736477680642
C          111.53400209343889      103.35859049025143      102.24578173952619
H          110.12624723489274      102.97779997401334      103.79139724364968
H          111.77186773192605      102.47544267385545      104.18500181997453
N          110.43416206072048      103.69676260244830      101.37010287575643
H          111.99668254015887      104.27355550412078      102.63538217383666
H          112.28440527433860      102.83204878241115      101.65045703111329
C          110.51537857541703      103.76929432195638      100.04251694969152
H          109.55208002681431      103.88801367593717      101.83431108743098
O          106.99055893629114       99.56248197278067      101.16470187930621
C          109.17022923455519      103.91716151283913       99.35274218026730
C          108.49308354363951      102.54395602330497       99.25972981815092
H          108.53945248293093      104.60350508370283       99.91848450580048
H          109.31824118431406      104.30983921603583       98.34699524341508
C          109.32512380872409      101.56308958898042       98.43696036327719
H          108.34341276180697      102.13509514853422      100.26158733899143
H          107.51183071348872      102.65629391372794       98.79414118943151
C          108.71724444732666      100.16037736378645       98.43493759565439
H          109.39936925794903      101.91716727465894       97.40571596754737
H          110.33684630911371      101.50836269705918       98.84442969361110
C          107.42247012880425      100.12475526874242       97.64330172465861
H          109.41251655634503       99.47084614014544       97.95181557058071
H          108.53440326324134       99.82632430962786       99.45478806572285
N          106.32902037026048       99.87005797896657       98.36917950352625
O          111.57740649633332      103.67736566606705       99.42740012345760
C          105.02583754508166       99.67762386336530       97.76997761304014
H          106.42608964178270       99.69490167939041       99.36470415801098
C          103.89215517284599      100.00507826476881       98.73359191145882
H          104.97937646417721      100.31116126390738       96.87854163628113
H          104.92961108604025       98.63466950104869       97.43811069781282
C          103.84814340206761      101.47550094265907       99.15212605804035
H          102.95699574383075       99.74813639025660       98.23252827793989
H          103.98315549203150       99.36957584642572       99.61664780737175
C          102.46491562092396      101.84008514435773       99.69333920678535
H          104.61987252828614      101.66628428637705       99.89920765130269
H          104.06815279164385      102.10000821266215       98.28321332323948
C          102.35987758013604      103.28497119011901      100.19175104231857
H          101.74185550348309      101.68717048634919       98.88999349289151
H          102.20015219484266      101.15655096033797      100.50263706515369
C          102.65631930384465      103.41974723007463      101.68781105553003
H          103.04260000324966      103.91724666339141       99.61882377076334
H          101.34485981667758      103.65017241552638      100.01450859492955
N          102.51398075780081      104.78824663846100      102.18465798010465
H          101.95698091741559      102.79355225171766      102.24803570996131
H          103.66969079821685      103.08186422866491      101.90654020214527
H          101.63845522297319      105.17734462283809      101.84508872853674
H          103.26472390262889      105.37477824769900      101.83133240473278
O          107.39059140258712      100.32050437410773       96.42844426830453
C          109.29179729321388      132.44576634463382      113.23178542710485
C          108.56035494873042      131.39170489037613      114.02961698211058
C          109.81621287699249      131.93538964669867      111.88503570387758
C          111.04903314003937      131.03971762786719      112.01655476381107
H          109.01625346941449      131.41086618188072      111.36199149438910
H          110.09706595494018      132.80109434104259      111.28367172863301
C          110.79742933721498      129.67265745796681      112.66929564895874
H          111.47608260121427      130.87596817981819      111.02394155819970
H          111.80098904298782      131.56855721124458      112.60646016576896
C          110.13903404943787      128.71132434843003      111.70799921197482
H          111.75086318659402      129.23747291967103      112.97005151557968
H          110.19892605939992      129.77685202359095      113.57210346047356
N          108.82014718078950      128.82526061198260      111.58101311093951
O          108.87185660721958      131.41093014945258      115.30793022044635
O          107.74866192145618      130.62377455858939      113.54897692907377
H          108.45811908090063      130.65835618760315      115.80269147441888
H          110.10217942039944      132.83905578578944      113.84498844671739
H          108.57439329093994      133.24920912025379      113.04954156508900
C          108.02987743421617      128.00195860360265      110.68731772656832
H          108.31511891648233      129.47152224638162      112.17856806075581
C          106.60526987790972      127.83690650219582      111.20492221620070
H          108.01303577018132      128.45743325038606      109.68992048177553
H          108.52790072971318      127.03320985555469      110.60470843457648
C          105.82421668389001      126.82005951464103      110.36757529416691
H          106.63683606532445      127.50914134330246      112.24538776012848
H          106.10797632165288      128.80730081476057      111.17660366655718
C          106.20906958482331      125.38616027421226      110.72499509474794
H          104.75583746658472      126.95684045322015      110.53609793369993
H          106.01757328296432      127.00179611063481      109.30879674946765
C          105.64625694017033      124.35031828967716      109.75662547159456
H          107.29629888754737      125.29408855229995      110.72368104650505
H          105.85219189833605      125.16645019808310      111.73269893181934
C          106.05567879575671      122.94481446007606      110.18894927497412
H          104.55847234044558      124.42100860584955      109.71959212425507
H          106.02698187300643      124.53329488764692      108.74953176228841
N          105.70875447378258      121.96085958779871      109.18866434795024
H          107.13852514287672      122.91099543312004      110.36258941556014
H          105.54863618873650      122.66091257769733      111.11369672249440