3795
 energy: -5103.707376271903 gnorm: 0.000914925740 xtb: 6.6.1 (8d0f1dd)
C          113.40553549443692      101.86115116333715      101.75867898583607
C          113.87091735885038      103.29659603645807      101.85358279832924
C          114.49635743627097      100.85088069352820      102.12442758574437
C          115.03487756965576      101.07322065039561      103.53889824349054
H          114.06923275965698       99.84944051577511      102.05336689968838
H          115.31330770610026      100.91711773028186      101.40626241402845
C          115.74266409802040       99.83367991453925      104.08835927692054
H          115.70817794018225      101.93178604957400      103.54723411666326
H          114.20432091737845      101.30524007617510      104.21009658691068
C          116.88949437283270       99.31488279992529      103.23432940527533
H          116.14421430808653      100.05089605056658      105.07967611020246
H          115.02220892590991       99.02058321237041      104.17776998731948
N          117.78635112346555      100.23212864013851      102.87746172346831
O          115.02873992678887      103.51843899626277      101.28895296875126
O          113.21421792468038      104.16574266559537      102.39850235267360
H          115.33530762375599      104.48295527685322      101.38015954502563
H          113.08898801605953      101.69118637925938      100.72726634729737
H          112.53710609695452      101.73885914722337      102.40800115108965
C          118.94223697203799       99.98017081878956      102.04061437536699
H          117.79730448731159      101.10581258010636      103.38092764642275
C          119.24618489127612      101.19546625480658      101.16710553487648
H          119.81500011599262       99.76220887923284      102.66388633996264
H          118.71081395718150       99.10203053069260      101.43343817639438
C          119.68583405656908      102.39529038844569      102.00817046561822
H          120.05277650987927      100.92231227468908      100.48643328782860
H          118.36666321347641      101.44370022566764      100.57140183549144
C          120.32157155977282      103.51435255127612      101.18263431611796
H          118.83729131753381      102.79682262256500      102.56461032149598
H          120.41718785941207      102.04816196356224      102.74059526842404
C          119.43389576635816      104.08110550171023      100.07006730326043
H          120.60973091567442      104.32173146961881      101.85612478206073
H          121.23405032579852      103.13524504493077      100.71968407282752
C          118.05028344163894      104.52312155658335      100.52963557329571
H          119.94723415820023      104.93444653349117       99.62385456561570
H          119.29694208227093      103.33036746567707       99.29174442840646
N          118.12464071212079      105.58948281068902      101.51201355840323
H          117.47153664359962      104.87313323475045       99.66794604138458
H          117.50364521683512      103.67860744145928      100.95937179247244
C          117.06457403901578      106.21149240651526      101.99201720755896
H          119.04651149002507      105.85603276061711      101.85022969740463
O          116.94871367164514       98.12786935490763      102.91092935096167
C          117.32242597173341      107.26246440248353      103.04319367035683
C          117.76988101389512      108.60571826212509      102.45872594899855
H          116.40237201045736      107.40469538145538      103.61283151127294
H          118.10389273791951      106.89431862536961      103.70804008510065
C          116.68307936000591      109.29674876720836      101.64014332581895
H          118.04020959430672      109.25599898276204      103.29238957302050
H          118.66241301896511      108.46574439210526      101.84934735739492
C          117.07172560079519      110.72591187989015      101.24179148562668
H          116.46730431224286      108.72058070989492      100.73832793865647
H          115.76135035030369      109.34837478308212      102.22455790853469
C          118.24978107667712      110.72592193821791      100.28052329793718
H          116.21646223106089      111.21171031530891      100.77211717862694
H          117.34865743619825      111.28549713162468      102.13676271869438
N          117.92345652868799      111.02521632393402       99.02129595228668
C          118.84981684849701      110.98127727321341       97.91565607915753
H          116.97304978718793      111.28843873110705       98.79105654320330
O          115.90352122192614      105.94338876995795      101.62308878916883
C          118.26920112789850      110.20044015839296       96.73725410036194
H          119.08203609285901      112.00306973868869       97.59385040218667
H          119.76803399960438      110.51391668663628       98.28093000634833
C          117.97384183894437      108.73168362584605       97.06647400737191
H          117.35099871512489      110.69243595911489       96.41227071059575
H          118.98899768785525      110.25634115381899       95.91999652056721
C          116.52453357339341      108.47373364856492       97.48322898385955
H          118.18485646889671      108.11901408243720       96.18765960286272
H          118.64155208173337      108.40187850471823       97.86504125593645
C          116.29754799186681      106.98616831090150       97.74615503442955
H          116.27743706678223      109.05181561265975       98.37432609091790
H          115.85588164543825      108.80564260568634       96.68578656090838
C          114.85192560869142      106.62892083993054       98.08897234538487
N          114.48672146904167      107.05018434129067       99.42443475672064
H          114.15942666385936      107.11125317215343       97.39510219415180
H          114.71911463164386      105.54264109551208       98.01193967389598
C          113.33263917959498      107.64665052351988       99.72843182488690
H          115.08528707486938      106.73943730689855      100.18343201205657
O          119.39473112347321      110.45837294238541      100.63673537479362
C          113.14502456584555      107.96717711700826      101.19760810991947
C          111.81725939635359      107.42193805335832      101.72478431479107
H          113.96705517975789      107.54079352544817      101.77024911391277
H          113.15905596954440      109.05452588736644      101.31148860234033
C          111.58968335390520      107.78128242604699      103.18958551770366
H          111.00088758707103      107.82842931893578      101.12688515216959
H          111.82196092636917      106.33489740633586      101.61984669256780
C          110.19346631487277      107.36768878430959      103.65861751910121
H          112.33269721662344      107.27692515115999      103.80998939246153
H          111.71589317415466      108.85875933587384      103.31439467548729
C          110.03107937193191      107.52599101865361      105.16147558056277
H          109.42813362764885      107.94091431287754      103.13501042212340
H          110.05366836965871      106.31062781817151      103.42883632501255
N          108.88356469083139      108.08058121127925      105.55612633661410
C          108.55571204630398      108.33618650516257      106.94109650405868
H          108.13619674851407      108.26553001659380      104.88880028747728
H          116.58134857356133      106.42177429440666       96.85625942719133
H          116.94494696733089      106.66813077370081       98.56597232058412
O          112.49039468582525      107.92121360153342       98.87120443475548
O          110.90286988853201      107.16335257449704      105.95016869551267
C          108.11283810594915      109.78063004095760      107.14354862803374
H          107.75444270230204      107.66297443097200      107.25737677236798
H          109.44777741500877      108.12220499160895      107.52985150316677
C          107.49679490209076      109.99885420056724      108.52391500968345
H          108.96897652755074      110.44570487075251      107.01432215147281
H          107.37225581807520      110.02473839157928      106.37983431351333
C          107.21481023668964      111.48443341419849      108.73847922391059
H          106.57465644962129      109.42157329751733      108.59262891046039
H          108.18245716482572      109.63929035464423      109.29333927814193
C          106.31849580587222      111.80432705581053      109.93328883900111
H          108.16707162819327      112.00334126815817      108.86746374604304
H          106.74937695576310      111.88674597265272      107.83763780895958
C          104.88425465981345      111.29483852260439      109.76047426753154
H          106.74943404079939      111.39500559239002      110.84716643826273
H          106.28702234097744      112.89085897376451      110.03923980185291
N          103.96194342618796      112.16649424557039      110.45736070986726
H          104.63370529171183      111.26167012892348      108.69232503398298
H          104.79122766535203      110.28276539437917      110.15754964129380
C          102.69469054287383      111.89420150465565      110.77654845991000
H          104.25750417624957      113.13573010755813      110.53818310463220
C          102.16510222284865      110.53439866472141      110.36510513924316
C          100.66368269560773      110.43262697479449      110.61015011763212
H          102.38802569325614      110.38449630839193      109.30680658561694
H          102.68611684293185      109.76140756427763      110.93413351006203
C          100.09435784777141      109.08615278565966      110.18146116051946
H          100.47216820248629      110.58919154743313      111.67260053553800
H          100.15871792081620      111.22702234250396      110.05674231368842
C           98.58710102169545      109.04115002556104      110.44627679417349
H          100.27024085592750      108.93618365508192      109.11675744037646
H          100.59211551099472      108.28754512318177      110.73622059576914
C           98.02220596040576      107.67726895699202      110.11737846544852
H           98.40057361399596      109.25432629889485      111.49640726191527
H           98.09565172475111      109.79246798008170      109.82764884232684
N           97.85546832505793      107.45992301450896      108.81592634221717
C           97.34453329237786      106.22999220891177      108.25393685421916
H           98.03612533613814      108.22429369483493      108.16799541260588
O          101.99448057992339      112.70704137403099      111.38102962332475
C           98.04014882523606      105.92414900484744      106.93099757504679
H           97.50932685415397      105.43963248229467      108.99006305806228
H           96.26407184490157      106.32046596538811      108.08664755033524
C           97.44048936403253      104.71219056716930      106.22003861419549
H           97.93654043040387      106.79808071895204      106.28308208618971
H           99.10453868122858      105.76630374475351      107.10736395963291
C           97.64856035872278      103.38258820753192      106.94715720020392
H           96.36915313004755      104.87640183909183      106.08922490693043
H           97.88652427315931      104.63790624265313      105.22764728467398
C           99.12247717822595      103.02238112918410      107.11540959315342
H           97.16492807594372      103.40778372663914      107.92424171425584
H           97.16267217986453      102.59860928670230      106.36267433798733
C           99.29804500267107      101.57738449353420      107.58616725094333
H           99.63788671477741      103.13678754812889      106.15923563548927
H           99.59890160329539      103.68229651674159      107.84207026567529
N          100.69668474760014      101.22542130558062      107.71071875957063
H           98.81705515513354      101.43386254969977      108.55590007265346
H           98.85103118489086      100.89436636147605      106.85935098193725
O           97.78009883969432      106.83527890485499      110.98696224682324
C          101.37808419283604      100.65961489708499      106.70836209704889
H          101.19049760161712      101.60625214636124      108.51180447675368
C          102.84626058951486      100.40254161699512      107.00881451337196
C          103.68775896018478      100.31214856975970      105.73450151665104
H          103.21776305758664      101.19654387653435      107.65733789170446
H          102.90964382594564       99.46323906804290      107.56298527184359
C          103.44420889565052       99.01356236312877      104.96007949180516
H          103.44918462438774      101.16856777015691      105.10219262997639
H          104.74658575496662      100.38230043654802      105.98886522767751
C          103.92747303357700       99.11060668887283      103.51521574029027
H          103.97905173693107       98.19673199697223      105.44905615165582
H          102.38438810089345       98.76346963976367      104.98310683230179
C          103.32454042073461      100.23368338596636      102.68711854611023
H          105.01077537163842       99.24960483752402      103.49095793501485
H          103.70729346253242       98.17632748496229      102.99196106996830
N          102.07557986074056      100.59976176441758      102.97516767132402
O          100.84585963874858      100.34630661857173      105.64483334472546
C          101.40396823213688      101.69028187550961      102.29155618990573
H          101.62347807377935      100.26789037551485      103.82163539512364
C           99.96759777338825      101.83819422031678      102.77848798786238
H          101.95357225923669      102.61700668490460      102.47907569032554
H          101.43491123029082      101.49875488190121      101.21402035905430
C           99.31585109193003      103.13864784077387      102.30109377802661
H           99.38084237350304      100.98981029523601      102.42306472023971
H           99.96337901532145      101.80549334360326      103.86959275796569
C           99.91343013480905      104.39018384100567      102.94536858816301
H           99.40342559870680      103.21112713492448      101.21524357997491
H           98.25205011678878      103.09599532511412      102.54345803376002
C           99.12032787261340      105.64910107693441      102.59373061415765
H           99.91830307642664      104.26484679144518      104.03040199016181
H          100.94551353448463      104.52154500048599      102.62432922333970
C           99.73497683733130      106.91013295710931      103.20322408600430
H           99.07047662922162      105.76484146761970      101.51000892838439
H           98.09835936648999      105.54999207650440      102.96332487454393
N          100.89719786960946      107.34327084476232      102.45626116338589
H           99.01777445991908      107.73424176361672      103.18091658017698
H          100.00408790616420      106.71819578533857      104.24802287665003
C          101.17922326456177      108.61998069586420      102.18912511659072
H          101.56205069221028      106.62774804366096      102.18889260236413
O          103.97539568168904      100.74356817752481      101.76984363145239
C          102.37260336901542      108.82712400274708      101.27994565860578
C          103.69285570375287      108.47032121312272      101.96736485249420
H          102.24589493308659      108.19268170877514      100.40087038855373
H          102.38278800620790      109.86849100254273      100.95430479415168
C          104.83388598347599      108.38595968641927      100.95835495770427
H          103.92964581840933      109.21077059143302      102.73328848574167
H          103.59504876927564      107.50111815748335      102.45587114655930
C          106.09752229394789      107.78165161011850      101.57528912151253
H          104.52831824173818      107.74525494398817      100.12895765930459
H          105.06117979937027      109.37070340424363      100.54668324259029
C          106.71591999671783      108.68689209864270      102.61792687394944
H          105.85361455721352      106.82506013050411      102.03884324196807
H          106.82559402608685      107.63243355983126      100.78024233028086
N          107.34641831355354      109.74735498345179      102.10549909833298
C          107.95045234674573      110.80051731618072      102.89098620584362
H          107.37416734964199      109.84111596289834      101.09431167285921
O          100.51701516370368      109.56264220409278      102.62808014032359
C          107.05621580997534      112.04260638089823      102.92088232284316
H          108.09462107948546      110.41805914947012      103.90308208746910
H          108.92518812428550      111.04564702545011      102.45888555580575
C          107.67904164058109      113.21701046145540      103.67398814380651
H          106.85340209899149      112.34920448443462      101.89273642723947
H          106.10520600177573      111.77342714443493      103.38209044292705
C          107.89032992230219      112.93905602870639      105.16233149622484
H          108.63074770804033      113.47088441737490      103.20398199462208
H          107.01082673428644      114.07571398057866      103.57784404894225
C          108.21850999928584      114.20433843330291      105.95919891278676
H          106.97595250106089      112.49964749023779      105.56123280084461
H          108.69392253070866      112.21406023031599      105.29791209519037
C          109.61141240618032      114.71790455550622      105.63047197486704
H          107.47651785846482      114.97471596290259      105.74624949588794
H          108.17312756018620      113.98711257107669      107.02780719310111
N          110.00067616841132      115.84535611488565      106.45307150787430
H          110.34330556592884      113.91519401446513      105.77531759001052
H          109.67612728343089      115.03327575386353      104.58355885189647
C          111.19179721494719      116.42449234932020      106.27207601942204
H          109.43610091411269      116.06444749566629      107.26857232761668
O          106.66483180169060      108.44506786736257      103.82359053661884
C          111.50534239858136      117.57330557380088      107.21184561419771
C          112.51800645164288      117.14074264381696      108.27677713296866
H          111.93848722576237      118.38561656811787      106.62488056505534
H          110.58835918771109      117.92334855899063      107.68559060517481
C          112.99484899063870      118.33191938528294      109.10517609609016
H          112.06549215932642      116.38623143652471      108.92541878114352
H          113.37500839735367      116.68270342884499      107.77764649259139
C          114.07283431924640      117.93612513602154      110.11844078845681
H          113.39624937196743      119.08583885760872      108.42650509006992
H          112.14372196662896      118.76772031341356      109.63222419652001
C          114.57644088750500      119.13851247620983      110.90162241405979
H          113.67810877135669      117.20180797120369      110.82268991561234
H          114.91746533460920      117.49006519235712      109.58851596211515
N          115.15332834392177      120.07510590465057      110.14896324073723
O          111.96951840396052      116.05443932321012      105.39421997810516
C          115.66092275888241      121.32975217778475      110.65978882777343
H          115.32784629857883      119.89278496583073      109.16500934205020
C          115.45415124170800      122.46527815277047      109.65990594497001
H          115.15399719719882      121.53435546700906      111.60423618697679
H          116.73472211889276      121.22110167235175      110.85633831214179
C          114.08125567713768      123.13721403202378      109.72401625206405
H          116.20843640917430      123.23012643043739      109.85173295315225
H          115.63440676359937      122.06504860840413      108.66239180488932
C          112.89089390713298      122.21754005739427      109.45240220289162
H          113.96254449324591      123.59502201849354      110.70715411998175
H          114.06412715536220      123.94147286171216      108.98571238902403
C          111.58971981026907      123.02368856270382      109.42631654746091
H          113.02369390942663      121.71226497324987      108.49481529928929
H          112.82686044602470      121.45313684193880      110.22799496455428
C          110.34752253277151      122.16389598560411      109.22447636698678
H          111.47907128684787      123.55621266008292      110.37273877803239
H          111.63670198878685      123.76587790913965      108.62755576493224
N          110.21239439942642      121.72890532987390      107.84875665508937
H          110.39634184835361      121.28319393963226      109.87735582602949
H          109.44659742631947      122.72725237083030      109.49178856224607
C          109.12192908191845      121.12146528021303      107.37754495635133
H          111.03058165105237      121.80212964084666      107.25411690600180
O          114.45646908643437      119.23386268178753      112.12332345518635
C          109.23484216806591      120.66693607699710      105.93417369499674
C          108.50600260474000      121.57731003573609      104.93621582954545
H          110.29215534056640      120.62439647918499      105.67437276845119
H          108.81309505121426      119.66228566952832      105.87411707747943
C          106.98428103059604      121.46186376999354      104.99716620060093
H          108.80038468174013      122.61564950408291      105.10666630231587
H          108.83365975846949      121.30764412424845      103.92964475959450
C          106.30646863247135      122.21114495928529      103.84230045661009
H          106.69184190492672      120.41054690427281      104.94779437675665
H          106.62399802633983      121.85591384067908      105.94857915729116
C          106.46480722542687      121.46617624736399      102.53168215276169
H          105.23494287326801      122.28138508636529      104.04439835356341
H          106.71603044099960      123.21612604162935      103.74767845435592
N          107.23687130421048      122.06291942096927      101.61635814102428
C          107.48181542261614      121.49925114722262      100.30127215473058
H          107.55322444063856      123.01369024569911      101.78402963642941
O          108.11187670810084      120.93086177772940      108.05494177931485
C          108.87605125692183      121.87549637135932       99.80672998501572
H          107.36954717313054      120.41522159796800      100.38547482060929
H          106.72715033883382      121.86235638334833       99.59301417832077
C          109.26225773207091      121.18944540938273       98.49274869808295
H          108.90735488223977      122.95934124940568       99.67799762005221
H          109.60194653614469      121.60950837477201      100.57857120101961
C          109.67638448149386      119.73146732371565       98.68964922807538
H          108.42602933374400      121.24597695120369       97.79516022856315
H          110.09879760481078      121.73518346750063       98.05019978536812
C          110.23163487144092      119.09819014104652       97.41396137640210
H          110.45408646403384      119.68867237813673       99.45197050124557
H          108.82192874603273      119.15536205450179       99.04154426551588
C          110.79477508036207      117.70300898049624       97.66431756125712
H          109.45120134391850      119.04047441672232       96.65471062585205
H          111.03895049367806      119.72001856522360       97.02346596940188
N          109.73650971958867      116.73920974993517       97.89251437438440
H          111.37984131075930      117.36373009801191       96.80316226195880
H          111.47080323269422      117.72022509489018       98.52859639960045
C          109.95100284218464      115.42539106252130       97.95357932604972
H          108.80825761840801      117.10473462610990       98.09289628339903
O          105.94084462838759      120.36857903101921      102.33101696134742
C          108.70597114276492      114.57625273570315       98.15328011111548
C          108.51926169017386      114.20763003952291       99.63002536418858
H          107.82727639062287      115.10164852527218       97.78313694388608
H          108.83722116847493      113.65925318037370       97.57530561041933
C          108.07041876161863      115.37528014284726      100.50943947506445
H          107.78500712296221      113.40201819552966       99.70123818238031
H          109.47104515646326      113.82487938328593      100.00853180578892
C          106.59497586985886      115.75181659962976      100.34428777257570
H          108.23678118392085      115.09986662853676      101.55099570053815
H          108.68604948742717      116.24944781343217      100.29167393714695
C          106.32772923059107      116.70443052587628       99.19485196954983
H          105.97144031961868      114.86521207996955      100.23396172212506
H          106.25723208965502      116.27409584524629      101.24430961793853
N          105.10906216773739      116.61201728173798       98.65853715480189
O          111.07115835781141      114.92311354218596       97.85461194792150
C          104.64980457573648      117.51891470017434       97.62791829227463
H          104.41506856532455      116.02297291517360       99.10838343767306
C          103.35936968010688      118.23947467933196       98.01546384468223
H          105.45248130076503      118.24428827016786       97.47017920358527
H          104.49584254441926      116.95895176950030       96.69868267317115
C          103.45004073005300      118.87483621087485       99.40207490127989
H          103.16502271517453      119.01008585386840       97.26806257295812
H          102.52690180041259      117.53426635595696       97.99338498949382
C          102.36639935636784      119.92426536892611       99.63376783788965
H          103.36722473477001      118.09262024958615      100.15974193844164
H          104.42876963542179      119.34514228466163       99.52756725387775
C          102.41370616412151      120.45930957429854      101.06161053436988
H          102.51058797175662      120.75182248041433       98.93650735340104
H          101.38089366692643      119.49834823541933       99.44283353561450
C          101.53364466233882      121.68768482041489      101.27454597990396
H          102.09733149430951      119.67340489248387      101.75160699633528
H          103.44104911377589      120.72801148036638      101.31928119863450
N          100.12547806934836      121.36583424827863      101.06952872676170
H          101.74338975750767      122.09009067950581      102.28051193946345
H          101.80261276772610      122.45981709517959      100.54748911815199
H           99.55947725360531      122.18800564936132      101.24449795054582
H           99.84668043024317      120.65315705903431      101.73626218207083
O          107.17119759802902      117.50493666423776       98.78856056891837
C          126.17061858501154      117.90034686766049      133.49694607486487
C          125.01384742174005      117.02908674348667      133.06183857074834
C          126.87344039021934      118.50206192892799      132.27707200716515
C          125.89961910432035      119.33948122602767      131.45096144596690
H          127.70965366795220      119.11925109905755      132.60704611646753
H          127.27427537997997      117.69067930572730      131.66685121400613
C          126.56794649195308      120.02856357753302      130.25684526989386
H          125.09050963924354      118.69852853511247      131.09980695826061
H          125.46393827034568      120.11051885864835      132.08779017912281
C          127.40738903737770      119.07439627341394      129.44089564562404
H          125.79803584244215      120.48275536213296      129.63179191229568
H          127.23666145302653      120.80818509555853      130.62368881138516
N          126.81352879939908      118.23082464471254      128.60952714708006
O          123.89066121046874      117.32421027396258      133.66304360900421
O          125.12065100416608      116.15361726957477      132.22172466977224
H          123.08198524787389      116.78297508661133      133.33702032614445
H          126.87220315789511      117.27700263471024      134.05376617353167
H          125.78833736709181      118.68001877460900      134.15469940973645
C          125.40323398891684      118.10185007985719      128.30859417175094
H          127.43041780398016      117.57661985799180      128.12325071357907
C          125.21908558510894      117.30770020586715      127.01848986032230
H          124.89859860303203      117.57596045145677      129.12665956338796
H          124.95615959589466      119.09630061777456      128.21765047930322
C          125.81532862845665      118.00101387941739      125.79450202223205
H          125.69586443520937      116.33583778410186      127.14068566988720
H          124.15275505225721      117.13731683164713      126.86755682928690
C          125.64620355996094      117.15009219713959      124.53568642940667
H          125.33634224165294      118.96972872798796      125.64641470219216
H          126.87696634652977      118.17957117296888      125.96670423272639
C          126.37600005165703      117.72984565779068      123.32285652528603
H          126.02907390353029      116.14620836143423      124.72337371735708
H          124.58458344305831      117.05807526547710      124.30143039821652
C          127.87950071112122      117.47514801679060      123.39242673659612
H          125.99375683882300      117.26400451593157      122.41275190482487
H          126.19530940007768      118.80403690069755      123.25700474066346
N          128.58633962177552      118.13806415237515      122.31732670763564
H          128.30054555324529      117.85169656901797      124.32725152013404
H          128.07024744349803      116.39685099312173      123.34076026900460