3864
 energy: -5104.235787624896 gnorm: 0.000948054659 xtb: 6.6.1 (8d0f1dd)
C           70.27459524729876       39.22537830837827       51.89006600103209
C           70.97424536987533       40.27251310336759       52.47960413051226
C           70.41293924352718       40.90805661346154       53.57912364602225
C           69.16628813095747       40.53765856224653       54.05374879011498
C           68.46424855218069       39.51785945760763       53.43671579741476
C           69.03084558091213       38.85127436868021       52.36385483485467
C           72.29551980274194       40.73506566279764       51.91924290417337
C           73.34909705072755       39.62880169683224       52.00722473234306
C           72.12681838466756       41.20404218443768       50.46572699323550
C           71.04618811970187       42.28456770742500       50.32813905595143
C           71.34509086181482       43.47095434402384       51.21452884672230
C           70.42887499741343       43.87241122737257       52.17879198041288
C           70.68496370821039       44.95343422087536       53.00334535314915
C           71.87197693886898       45.65217346986124       52.87776772755852
C           72.79764578020023       45.25795989201998       51.92782894146517
C           72.53348089878901       44.18155397247256       51.10047651990588
C           70.87842440668483       42.76758621447242       48.87839914075970
C           70.44714770316827       41.69670622252123       47.85779541649038
C           70.48624447182351       42.32380672428398       46.48403537041541
C           69.50683265936190       43.21058603366087       46.05256494198541
C           69.58283631867897       43.80785463338701       44.80775411911565
C           70.64393924989298       43.52481111207275       43.96553707396390
C           71.62733076604579       42.64334111053503       44.38007135049627
C           71.54771853715124       42.05246581527597       45.62904052080648
C           69.07764679835235       41.08759493888802       48.17646246541089
C           68.68648003687098       39.97459868984934       47.19103086870911
C           69.66220526588064       38.83143206918620       47.30054828372229
C           69.70121911869350       38.03253177906838       48.43796255114425
C           70.61475074523449       36.99999961357013       48.54846709522531
C           71.50857947943808       36.74825090046742       47.52103942959852
C           71.47595127972683       37.53312521114712       46.38120997831655
C           70.55840857653679       38.56389169859310       46.27344342642325
C           67.24885101527542       39.50200587297490       47.46370449368107
C           66.18003802293713       40.42094070150621       46.83642634766592
C           65.07493074228839       40.70101068447788       47.82494260312969
C           64.29451827419092       39.67309122382495       48.34220636345289
C           63.28531693648770       39.93682005716880       49.25063903724597
C           63.03474891796683       41.23796799939633       49.65200056732458
C           63.80892397624613       42.26956637082478       49.15169972888343
C           64.82215277726947       41.99954247815938       48.24813887492003
C           65.61286988094871       39.80566795869681       45.54860799099138
C           64.61878822854922       40.74749433206861       44.85464838370853
C           65.34159998422906       41.89086431268122       44.18708023397881
C           66.15269282016365       41.68000111939050       43.07784440320685
C           66.78320685906213       42.73871786917206       42.45005245038644
C           66.62378711831619       44.02808801857309       42.92731128930264
C           65.83639656516068       44.24784634735049       44.04355421388603
C           65.19611021879757       43.18818475742575       44.66000965693578
C           63.74372401721481       40.01575526554789       43.82422642618336
C           62.60557972699170       39.16943470644198       44.42214866168214
C           61.98677632895764       38.34870611498542       43.31659703543500
C           62.01224427753078       36.96032074131254       43.36059322380770
C           61.46366509261846       36.20298280019650       42.33975668321744
C           60.87954297537765       36.82504339873011       41.25044712920917
C           60.85047056635506       38.20773322489389       41.19523357904664
C           61.39400476672613       38.96220680445991       42.21806038147805
C           61.54703643549891       40.04413312923288       45.10615287745242
C           60.35357162766626       39.26092565509500       45.68505315395048
C           59.23272438487011       40.23531440385862       45.95345812118178
C           59.37385206512268       41.25332171503165       46.88940249161960
C           58.37569056456011       42.19392599775159       47.06510914187721
C           57.21595140691368       42.13139982494737       46.31239694909503
C           57.05410182954734       41.11438741676558       45.38853117964268
C           58.05897937303192       40.17949980464607       45.21126398260855
C           60.77292671361513       38.49158245248307       46.94262074473834
C           59.66731217211790       37.62487718115429       47.56473778830325
C           60.04995389074021       37.19568037963732       48.96174544640542
C           59.10950812465459       37.20741726147318       49.98455778417603
C           59.43563076669598       36.78833502837085       51.26253384114658
C           60.72431986840319       36.37192023727810       51.54854985171961
C           61.67390451576428       36.35764086697564       50.54240195218663
C           61.33401388273167       36.75182656708046       49.26036447543957
C           59.38685556761729       36.38422891256944       46.70172497652596
C           58.16699521071251       35.57054702490981       47.15755263962044
C           56.89896917815049       36.38793646975447       47.18341168527748
C           56.49261038913193       37.10318296932379       46.06202233153117
C           55.31350343001078       37.82297399593119       46.06431563800012
C           54.50234632309817       37.82719986511908       47.18561383897369
C           54.88461915742960       37.10699391974467       48.30235904928558
C           56.07430815653957       36.39770947258621       48.30134964100088
C           57.96434998076558       34.37771685851235       46.20899759932020
C           57.01883514963206       33.30393114882417       46.77372088853345
C           56.51560470721454       32.47728822048541       45.61792791006393
C           57.36882288426055       31.62767414107274       44.92217740355863
C           56.91884791869575       30.91447760109305       43.82592786733129
C           55.60661812783562       31.04337481260430       43.40175382897050
C           54.74817141924770       31.88578709273749       44.08561513281064
C           55.20204457237134       32.59357052585243       45.18450657905512
C           57.71369248284823       32.44621672590878       47.84903885119559
C           57.13002414124332       32.60529923446914       49.26565846420898
C           58.18370155891522       32.12487127888460       50.23198786047140
C           59.01620497328539       33.05231357958226       50.84892673587511
C           60.06609030343996       32.64478380030725       51.65126893613953
C           60.29927431200394       31.29528873443961       51.85690448068879
C           59.46970126099756       30.36173065253551       51.25870091320839
C           58.42553948411512       30.77373148843366       50.44949507836509
C           55.78671793088874       31.88155214614986       49.39175613341228
C           55.18956111619779       31.94965956033421       50.80658674345359
C           54.93548798459171       33.37772878538286       51.21651036337869
C           53.87917858757401       34.10778792795431       50.68474680765642
C           53.63509525141404       35.40527711052057       51.09880881797994
C           54.46908858904510       36.01043499547075       52.02295227597741
C           55.54250505187476       35.30331657550877       52.53557560896987
C           55.76295471805950       33.99375389512796       52.14720283016305
C           53.91021910572542       31.10231788189108       50.86951923823280
C           53.24058284636823       31.15736446197078       52.24715754485120
C           54.16170703858332       30.65483938750715       53.33235383205344
C           54.45594479627169       31.45459901396454       54.42847107380404
C           55.22552042983204       30.97362373966511       55.47195917078284
C           55.73469612445820       29.68850686110253       55.42645585398203
C           55.47209723101385       28.89035399781519       54.32648779507958
C           54.68629883536490       29.36782187947808       53.29345663308234
C           51.94955674853621       30.32360868710147       52.30316930716268
C           50.77250771830003       30.85195728389209       51.46424581418172
C           49.77269255534758       29.73158462104774       51.31594643200435
C           49.08761959051391       29.22870363578352       52.41541633999006
C           48.20764374956828       28.16987706120031       52.28531446638112
C           48.00592688770227       27.58383422737864       51.04697315875696
C           48.69278377107537       28.06472728659508       49.94577456742629
C           49.56384885439488       29.13179404895638       50.08006156995595
C           50.14473790355870       32.11392718429025       52.07082248337796
C           48.97288842147639       32.64290863801356       51.23078981786248
C           49.40651552387249       32.89354723307834       49.80644578086588
C           50.39563778769197       33.82619628455548       49.51553469892073
C           50.81033806211199       34.03730225557781       48.21345520963972
C           50.23680123690621       33.32415848730950       47.17409563226383
C           49.23303657058032       32.41028357942596       47.44713621804114
C           48.82270402171103       32.20188160848055       48.75288075583751
C           48.39053285051297       33.93946772887435       51.82051887615361
C           47.51254054355982       33.75354902977112       53.07782188596909
C           48.04898214284049       34.51809586390259       54.26347371714681
C           48.30629287704564       35.88201993131482       54.18559681796151
C           48.81238572629009       36.57386203781750       55.26981003501457
C           49.06701578545425       35.91173473649698       56.45860470879560
C           48.79232404696996       34.55991546048237       56.55856035375022
C           48.28377526017490       33.87238066952873       55.46993208961938
C           46.06036532076303       34.18955202990664       52.81088610948967
C           45.27928441628405       33.18253280599149       51.94910249294448
C           44.17735862603023       33.87140346477275       51.18309782037815
C           44.16441912823193       33.86362250991844       49.79462780234822
C           43.11180420221115       34.42590920288926       49.09221614250487
C           42.05695504669565       35.00577997001701       49.77420971204262
C           42.07589299495640       35.04949688384136       51.15941246686606
C           43.12802504707928       34.48751689045695       51.85659207483820
C           44.66800006088943       32.04766770422520       52.79871439172328
C           45.47761050000273       30.73559529916895       52.83130169057936
H           72.64120300242094       41.58634850936563       52.51712285409012
H           73.08326518103766       41.58547133957803       50.10301170304567
H           71.85715947783838       40.34528016549122       49.84911080167229
H           70.09851194029449       41.85442208565276       50.66607231787891
H           70.14526516162128       43.57693324711321       48.87799530947895
H           71.82544133375718       43.19414113227916       48.53807709988180
H           71.18677400094921       40.88953956162827       47.87185773088811
H           69.10165180065985       40.66319533529694       49.18182164299203
H           68.30949808393123       41.86106264656272       48.16133104086567
H           68.73869114970036       40.37302678203820       46.17150042395886
H           67.09420304851648       39.45938306793822       48.54371954871158
H           66.64800885943285       41.37410576875740       46.56724911432208
H           66.43741766655035       39.57465029756393       44.87023718581290
H           65.11126978662575       38.86784584833881       45.79280512506291
H           63.96734184267417       41.16811442542146       45.62591229109743
H           63.30959796005882       40.75933593007731       43.15192341963247
H           64.37438278018901       39.35991861228543       43.21842281795598
H           63.03441217648830       38.48653052071585       45.16136392645701
H           62.00948050791682       40.61056456352193       45.91579067333591
H           61.16899182567533       40.75666667875307       44.37162318578701
H           60.01781027408352       38.54899327950076       44.92310553819128
H           58.74832533635195       38.22008450242021       47.61921340195077
H           59.23993935007832       36.69653610117642       45.66763049650625
H           60.26559446202440       35.73314164868793       46.72733218214537
H           58.36833307237708       35.19104718450248       48.16507146830618
H           57.54682595131571       34.74562085553789       45.26907079858913
H           58.92934164504976       33.91831484494699       45.98192889684734
H           56.16207661269059       33.81838633305933       47.22000799741190
H           57.65688825968781       31.39006783116784       47.57618169426785
H           58.77366927825305       32.70918489789121       47.88943009960222
H           56.96252683936197       33.66969557481665       49.45745701361180
H           55.08458270154259       32.32684035898326       48.68328046672525
H           55.90548859218251       30.83302255896942       49.10986222387972
H           55.91604954822861       31.52024550724426       51.50694614436016
H           53.20905322389584       31.45036973857677       50.10987468231727
H           54.16273369020016       30.06810750084814       50.62648865785054
H           52.99654174778296       32.19956838782855       52.47262637682089
H           52.17675140203640       29.30777364862763       51.96926681341306
H           51.63716840058785       30.25724074560018       53.34838468393748
H           51.13798759363936       31.10449030784971       50.46424163774008
H           49.79526468320064       31.90652595625690       53.08383874205360
H           50.91349980492117       32.88474023022321       52.14193529194736
H           48.19195320508582       31.87355521890151       51.21526496177627
H           49.21983121483976       34.60878988150281       52.05333678338753
H           47.79844330906510       34.42052269896951       51.03814916028070
H           47.49482159112925       32.69681481311810       53.35440912374619
H           45.54769906835804       34.32960033584150       53.76594396730360
H           46.07060878515814       35.15833651074479       52.30474212454240
H           70.70151046080568       38.70525366652643       51.04519145934341
H           68.49104216578289       38.04067357008007       51.89570542971421
H           67.47713876933332       39.24055628223569       53.77747199323512
H           68.74490829528283       41.05330994284261       54.90450482960554
H           70.95191297424218       41.71335937013327       54.05928946965153
H           69.50728945187163       43.32167354690245       52.29358226135562
H           69.96553310586337       45.24687170150583       53.75543620168907
H           72.07339155525057       46.49501890638911       53.52250072852688
H           73.73400696945811       45.78939893453593       51.83335002164142
H           73.26869549531220       43.89166578655391       50.36387288641910
H           68.66633837709129       43.44065258959406       46.68956039276540
H           68.80859293977336       44.49155397845643       44.49208905442529
H           70.70443006009188       43.98792193881994       42.99146684365729
H           72.46027784002844       42.41496251014623       43.72981150925820
H           72.32174300398010       41.36609865429030       45.94534785046199
H           69.01100047694594       38.21975722213060       49.24681454964175
H           70.63221640289878       36.38785361098086       49.43966001182075
H           72.22495493564558       35.94416403575938       47.60770050787526
H           72.16832768486057       37.34152236133559       45.57369167430514
H           70.54081918176382       39.17518914529509       45.38144041345132
H           67.12867169280163       38.48799340562562       47.07484974200113
H           64.48392206089967       38.65280090882032       48.04123399897411
H           62.69800838949644       39.12366389773991       49.65390870076224
H           62.24104762257209       41.44541344366645       50.35248640642897
H           63.61717320818281       43.28660997512967       49.46391580440115
H           65.42895052671234       42.80612002193214       47.85862413791149
H           66.28711795639202       40.67938596087389       42.69152434683377
H           67.40223995005535       42.55500190117930       41.58269333972734
H           67.10379079291599       44.85816050702986       42.42938333055935
H           65.71575923779774       45.24856531156871       44.42993868306408
H           64.56696321363924       43.37417866139038       45.51886168601312
H           62.46826145346389       36.46138388354528       44.20524525488387
H           61.49258629073648       35.12363475467637       42.39288863253140
H           60.44614008670219       36.23521426531588       40.45523037934693
H           60.40473181757552       38.70638748895858       40.34641890790353
H           61.35669599344411       40.03957736333215       42.15213375631554
H           60.27212617761943       41.32293365167658       47.48622258831933
H           58.51123002516109       42.97450481129674       47.79840077261682
H           56.43856595411086       42.87102206377629       46.43706280171046
H           56.14765632912854       41.05699278931422       44.80183617269525
H           57.93516934287495       39.39675242338431       44.47534806411328
H           61.61768914787256       37.85227446194620       46.68339255696321
H           61.11751195762138       39.20581926068442       47.69362423771972
H           58.10536938583829       37.54385130830651       49.77268256999859
H           58.68155557074566       36.78472898165730       52.03685918062460
H           60.99239205102354       36.05478578210698       52.54665204123528
H           62.68472091729637       36.04063944067239       50.75870595294730
H           62.08805515936247       36.71310304822528       48.48845695879996
H           57.09552765759635       37.08978572625443       45.16696801360639
H           55.02538287858199       38.37473334226036       45.18344530955461
H           53.57253683102635       38.37691293050383       47.18157425806626
H           54.25766788243861       37.08573784893159       49.18081408762602
H           56.35382706316704       35.83944673149207       49.18601244986611
H           58.39724553703066       31.52480355866795       45.23800311463691
H           57.59533965295389       30.25880498996755       43.29521731067957
H           55.25757633882341       30.48933575972009       42.54204721297459
H           53.72327256793290       31.99597541931943       43.76120090878989
H           54.52425458731927       33.24980182809869       45.71087371499240
H           58.84892765965515       34.10948310661303       50.69310581122562
H           60.70570629954443       33.38208419682260       52.11429822884697
H           61.12039392578626       30.97283757898018       52.48137500278285
H           59.64150915146592       29.30647117519885       51.41830112049436
H           57.79960616632106       30.02936453018670       49.98037427659454
H           53.23128832932969       33.65728733666196       49.94752142862414
H           52.78698299716505       35.94300090830696       50.69749963174426
H           54.29423747722575       37.03048859760869       52.33521321973640
H           56.20404856048989       35.77267621185809       53.24796824945724
H           56.58884429761516       33.43503308820609       52.56751947434834
H           54.06769487874378       32.46181332936398       54.47375887075724
H           55.42330566985928       31.60152175035875       56.32690442482757
H           56.33530161753811       29.31351023987843       56.24221153063242
H           55.87109904104726       27.88657501879766       54.27890493215323
H           54.47608442972352       28.72255721716335       52.45251203542264
H           49.25551665522390       29.65882132200451       53.39156493261949
H           47.68279865376870       27.79805618635839       53.15463212552711
H           47.32098984345055       26.75484999071568       50.93936257743710
H           48.55155269019902       27.60032252469929       48.98031558731042
H           50.09481161600917       29.50229843257188       49.21367758450571
H           50.84879862222606       34.39053038874076       50.31580419523163
H           51.58829736408303       34.75870306968078       48.00681592282398
H           50.56640086323633       33.48477414022044       46.15687561613803
H           48.76535406910984       31.85990993019014       46.64162399237286
H           48.04125180087050       31.48147396088370       48.95565935963966
H           48.11276493301711       36.41137907127958       53.26551921814250
H           49.02015301756186       37.63042938849473       55.18712284430853
H           49.48174484855108       36.44669824023951       57.30103183055319
H           48.98513688190089       34.03465957799297       57.48428627922061
H           48.06995087063619       32.81587435351874       55.56133089514118
H           43.13875579318315       34.51753885397269       52.93552440277172
H           41.27045341726146       35.53067286853721       51.69681108723308
H           41.22694715141937       35.43422425727287       49.23211286538940
H           43.11866614423057       34.40362535767841       48.01104195397507
H           44.98143988844990       33.40982972460994       49.24977668312208
H           73.46440025948515       39.29746138904618       53.03719743798608
H           73.06394350044577       38.77231055516194       51.40085016062936
H           74.31056710068486       39.99439516844953       51.65305832651469
H           45.97087094420159       32.75576309543928       51.21900401164820
H           44.54828083086341       32.40839503057416       53.82324809717004
H           43.66541312325388       31.82267716233567       52.42722458265677
C           44.99098503178584       29.71759031044998       51.78985505136908
C           45.40559815729321       30.15514488555833       54.22203857698753
C           46.53834200901689       30.09525872807759       55.02262345732302
C           46.47835529588895       29.60420050796595       56.31489705128728
C           45.27314517822098       29.16331183601327       56.83210110091947
C           44.13289182687488       29.22383312073925       56.04803223816468
C           44.19911044105382       29.71826873428653       54.75806591745623
H           47.48354448224921       30.43958230808694       54.62891697237069
H           47.37270957131183       29.56748546640242       56.92104055186595
H           45.22041147192059       28.77932006535997       57.84072237766079
H           43.18638080492474       28.88801397679758       56.44778688785451
H           43.29732672969197       29.77156807084278       54.16627279986834
C           45.13107991946728       30.23105634297617       50.35413859799687
H           45.57997912811070       28.80311079019267       51.89496454456989
H           43.94848728484358       29.46287478604146       51.98488890737639
C           44.80579092445407       29.18084045701702       49.33060718676168
C           45.74190017349734       28.81261351301540       48.37306424455226
C           45.44943668859491       27.84815009509497       47.42493807544822
C           44.21052218024011       27.23232686097200       47.42050876360333
C           43.26504450729889       27.59614681229669       48.36491396404848
C           43.55947864499437       28.56495666910563       49.30681318388825
H           46.71393881472596       29.28552203663263       48.37100102879075
H           46.19004157786865       27.57504568027968       46.68658516770930
H           43.98062017620252       26.47563714164142       46.68446927415946
H           42.29303923301475       27.12343315725306       48.36429442179799
H           42.80830400183369       28.84844174480709       50.02994926474430
H           46.52801427264108       30.94721476367010       52.61058036515389
H           44.46432079746022       31.08455849425356       50.20988101476050
H           46.15909394675661       30.56621502401953       50.19899029382683
C           55.70137931742578       57.58607297398869       49.74724002939180
C           56.47767431573252       56.43344251420324       49.76685593881867
C           57.85631906306894       56.56570132365766       49.65944018177293
C           58.44274796692600       57.81412789704846       49.56458161215820
C           57.66023956076909       58.95523514714121       49.55856491218188
C           56.28428794822323       58.83619268164757       49.64212873451780
C           55.81224627832469       55.08341273760588       49.85270683978856
C           55.80120820000869       54.43050890486834       48.46770341200674
C           56.47295832477219       54.13657863436180       50.86182398745073
C           56.58615586224911       54.70671583897234       52.28716855793363
C           55.26826472549985       55.29206746150730       52.71597599284954
C           54.14265130619913       54.50377592925447       52.91649641919275
C           52.93099257891728       55.07987702119864       53.25329980378621
C           52.81592865950201       56.45354671754576       53.37545882220429
C           53.93250343344825       57.24881064799999       53.17807562939353
C           55.14575592941505       56.66892601309477       52.85745893468841
C           57.09351613598226       53.59800115427894       53.21972725488016
C           57.23930937909014       53.99003177108169       54.70062683669431
C           58.15983994900547       55.16836958972547       54.87521132818565
C           57.63988767498897       56.40641248970196       55.23399265062259
C           58.46426952100626       57.50236967424540       55.41235587798965
C           59.83160114958499       57.37592461996004       55.23601237430299
C           60.36208939016522       56.14916751024314       54.87657949115282
C           59.53309431266238       55.05546521902623       54.69493798075193
C           57.71200492668767       52.74446229569502       55.47238126270787
C           58.21074088229308       53.00467676384778       56.90042842475854
C           57.23585099001316       53.82741578059652       57.70183452137203
C           57.59267041808265       55.09027762631893       58.15629719631713
C           56.70968310711029       55.85047650347526       58.90119166282667
C           55.45547335494010       55.35349689358299       59.20664434889535
C           55.09476192043488       54.08921029490199       58.77542169664130
C           55.97897119346995       53.33504056169755       58.02791112445349
C           58.47868539505723       51.67747534445541       57.63120723160574
C           59.73777650192365       50.93998707856719       57.15336168866745
C           59.69376456456061       49.48241999728242       57.54193568364125
C           59.98395720587723       48.49908682433497       56.60433655341421
C           59.98657671823721       47.15951028265311       56.95277749302258
C           59.68387731841646       46.78323288692737       58.24862886493971
C           59.38758822321049       47.75219887009908       59.19139370083385
C           59.39770365133512       49.09005414825753       58.84255960682206
C           61.00920569949533       51.58595271828141       57.72181562242589
C           62.27705749142171       51.03787376847309       57.06002848970372
C           62.34728325546381       51.40542277125266       55.59888693041106
C           62.34633000267906       52.73190341155113       55.18042069769743
C           62.46160275607496       53.05248771444988       53.83855112376563
C           62.58382559796123       52.05290824773110       52.88914846120422
C           62.57214611574195       50.72939933887720       53.29289074886832
C           62.45497011122466       50.41161617369827       54.63412394398554
C           63.54108316335437       51.52609224666053       57.78338010502899
C           64.78679519638814       50.79543977922302       57.25666440368429
C           64.69030047327365       49.33559796366958       57.62493926522607
C           64.57594608112244       48.93004580395298       58.94925808336033
C           64.37589332217057       47.59870071941940       59.26164768087808
C           64.30071238890814       46.64621749097923       58.25978310342781
C           64.46260144905872       47.03050798327651       56.93994365921454
C           64.65870674385906       48.36494598275688       56.63260646120548
C           66.10202195230221       51.42959429631154       57.75113391882408
C           66.80345309874981       52.26447972673057       56.66343964177845
C           68.18903726395628       52.63861323292010       57.13295032336848
C           68.39130463241300       53.54500014277784       58.16742643076942
C           69.66494394419576       53.82334176695377       58.62881876205737