      -----------------------------------------------------------      
     |                   =====================                   |     
     |                           x T B                           |     
     |                   =====================                   |     
     |                         S. Grimme                         |     
     |          Mulliken Center for Theoretical Chemistry        |     
     |                    University of Bonn                     |     
      -----------------------------------------------------------      

   * xtb version 6.6.1 (8d0f1dd) compiled by 'stahn@M-Bot' on 2023-08-01

   xtb is free software: you can redistribute it and/or modify it under
   the terms of the GNU Lesser General Public License as published by
   the Free Software Foundation, either version 3 of the License, or
   (at your option) any later version.
   
   xtb is distributed in the hope that it will be useful,
   but WITHOUT ANY WARRANTY; without even the implied warranty of
   MERCHANTABILITY or FITNESS FOR A PARTICULAR PURPOSE.  See the
   GNU Lesser General Public License for more details.
   
   Cite this work as:
   * C. Bannwarth, E. Caldeweyher, S. Ehlert, A. Hansen, P. Pracht,
     J. Seibert, S. Spicher, S. Grimme, WIREs Comput. Mol. Sci., 2020, 11,
     e01493. DOI: 10.1002/wcms.1493
   
   for GFN2-xTB:
   * C. Bannwarth, S. Ehlert and S. Grimme., J. Chem. Theory Comput., 2019,
     15, 1652-1671. DOI: 10.1021/acs.jctc.8b01176
   for GFN1-xTB:
   * S. Grimme, C. Bannwarth, P. Shushkov, J. Chem. Theory Comput., 2017,
     13, 1989-2009. DOI: 10.1021/acs.jctc.7b00118
   for GFN0-xTB:
   * P. Pracht, E. Caldeweyher, S. Ehlert, S. Grimme, ChemRxiv, 2019, preprint.
     DOI: 10.26434/chemrxiv.8326202.v1
   for GFN-FF:
   * S. Spicher and S. Grimme, Angew. Chem. Int. Ed., 2020, 59, 15665-15673.
     DOI: 10.1002/anie.202004239
   
   for ALPB and GBSA implicit solvation:
   * S. Ehlert, M. Stahn, S. Spicher, S. Grimme, J. Chem. Theory Comput.,
     2021, 17, 4250-4261. DOI: 10.1021/acs.jctc.1c00471
   
   for DFT-D4:
   * E. Caldeweyher, C. Bannwarth and S. Grimme, J. Chem. Phys., 2017,
     147, 034112. DOI: 10.1063/1.4993215
   * E. Caldeweyher, S. Ehlert, A. Hansen, H. Neugebauer, S. Spicher,
     C. Bannwarth and S. Grimme, J. Chem. Phys., 2019, 150, 154122.
     DOI: 10.1063/1.5090222
   * E. Caldeweyher, J.-M. Mewes, S. Ehlert and S. Grimme, Phys. Chem. Chem. Phys.
     2020, 22, 8499-8512. DOI: 10.1039/D0CP00502A
   
   for sTDA-xTB:
   * S. Grimme and C. Bannwarth, J. Chem. Phys., 2016, 145, 054103.
     DOI: 10.1063/1.4959605
   
   in the mass-spec context:
   * V. Asgeirsson, C. Bauer and S. Grimme, Chem. Sci., 2017, 8, 4879.
     DOI: 10.1039/c7sc00601b
   * J. Koopman and S. Grimme, ACS Omega 2019, 4, 12, 15120-15133.
     DOI: 10.1021/acsomega.9b02011
   
   for metadynamics refer to:
   * S. Grimme, J. Chem. Theory Comput., 2019, 155, 2847-2862
     DOI: 10.1021/acs.jctc.9b00143
   
   for SPH calculations refer to:
   * S. Spicher and S. Grimme, J. Chem. Theory Comput., 2021, 17, 1701-1714
     DOI: 10.1021/acs.jctc.0c01306
   
   with help from (in alphabetical order)
   P. Atkinson, C. Bannwarth, F. Bohle, G. Brandenburg, E. Caldeweyher
   M. Checinski, S. Dohm, S. Ehlert, S. Ehrlich, I. Gerasimov, C. Hölzer
   A. Katbashev, J. Koopman, C. Lavigne, S. Lehtola, F. März, M. Müller,
   F. Musil, H. Neugebauer, J. Pisarek, C. Plett, P. Pracht, F. Pultar,
   J. Seibert, P. Shushkov, S. Spicher, M. Stahn, M. Steiner, T. Strunk,
   J. Stückrath, T. Rose, and J. Unsleber
   
 * started run on 2024/10/04 at 20:47:17.249     

           -------------------------------------------------
          |                Calculation Setup                |
           -------------------------------------------------

          program call               : /home/abt-grimme/AK-bin/xtb input.xyz --input input.inp --opt
          hostname                   : boar021.thch.uni-bonn.de
          coordinate file            : input.xyz
          omp threads                :                     8

   ID    Z sym.   atoms
    1    6 C      1-146, 294-300, 306, 309-314, 323-468, 616-622, 628,
                  631-636, 645-790, 938-944, 950, 953-958, 967-1112,
                  1260-1266, 1272, 1275-1280, 1289-1434, 1582-1588, 1594,
                  1597-1602, 1611-1756, 1904-1910, 1916, 1919-1924,
                  1933-2078, 2226-2232, 2238, 2241-2246, 2255-2400,
                  2548-2554, 2560, 2563-2568, 2577-2722, 2870-2876, 2882,
                  2885-2890, 2899-3044, 3192-3198, 3204, 3207-3212,
                  3221-3366, 3514-3520, 3526, 3529-3534, 3543-3688,
                  3836-3842, 3848, 3851-3856
    2    1 H      147-293, 301-305, 307, 308, 315-322, 469-615, 623-627, 629,
                  630, 637-644, 791-937, 945-949, 951, 952, 959-966,
                  1113-1259, 1267-1271, 1273, 1274, 1281-1288, 1435-1581,
                  1589-1593, 1595, 1596, 1603-1610, 1757-1903, 1911-1915,
                  1917, 1918, 1925-1932, 2079-2225, 2233-2237, 2239, 2240,
                  2247-2254, 2401-2547, 2555-2559, 2561, 2562, 2569-2576,
                  2723-2869, 2877-2881, 2883, 2884, 2891-2898, 3045-3191,
                  3199-3203, 3205, 3206, 3213-3220, 3367-3513, 3521-3525,
                  3527, 3528, 3535-3542, 3689-3835, 3843-3847, 3849, 3850,
                  3857-3864

molecular fragmentation (1/2 indicates fragments):
111111111111111111111111111111111111111111111111111111111111111111111111
111111111111111111111111111111111111111111111111111111111111111111111111
111111111111111111111111111111111111111111111111111111111111111111111111
111111111111111111111111111111111111111111111111111111111111111111111111
111111111111111111111111111111111122222222222222222222222222222222222222
222222222222222222222222222222222222222222222222222222222222222222222222
222222222222222222222222222222222222222222222222222222222222222222222222
222222222222222222222222222222222222222222222222222222222222222222222222
222222222222222222222222222222222222222222222222222222222222222222222222
222222222222222222222222222222222222222222222222222222222222222222222222
222222222222222222222222222222222222222222222222222222222222222222222222
222222222222222222222222222222222222222222222222222222222222222222222222
222222222222222222222222222222222222222222222222222222222222222222222222
222222222222222222222222222222222222222222222222222222222222222222222222
222222222222222222222222222222222222222222222222222222222222222222222222
222222222222222222222222222222222222222222222222222222222222222222222222
222222222222222222222222222222222222222222222222222222222222222222222222
222222222222222222222222222222222222222222222222222222222222222222222222
222222222222222222222222222222222222222222222222222222222222222222222222
222222222222222222222222222222222222222222222222222222222222222222222222
222222222222222222222222222222222222222222222222222222222222222222222222
222222222222222222222222222222222222222222222222222222222222222222222222
222222222222222222222222222222222222222222222222222222222222222222222222
222222222222222222222222222222222222222222222222222222222222222222222222
222222222222222222222222222222222222222222222222222222222222222222222222
222222222222222222222222222222222222222222222222222222222222222222222222
222222222222222222222222222222222222222222222222222222222222222222222222
222222222222222222222222222222222222222222222222222222222222222222222222
222222222222222222222222222222222222222222222222222222222222222222222222
222222222222222222222222222222222222222222222222222222222222222222222222
222222222222222222222222222222222222222222222222222222222222222222222222
222222222222222222222222222222222222222222222222222222222222222222222222
222222222222222222222222222222222222222222222222222222222222222222222222
222222222222222222222222222222222222222222222222222222222222222222222222
222222222222222222222222222222222222222222222222222222222222222222222222
222222222222222222222222222222222222222222222222222222222222222222222222
222222222222222222222222222222222222222222222222222222222222222222222222
222222222222222222222222222222222222222222222222222222222222222222222222
222222222222222222222222222222222222222222222222222222222222222222222222
222222222222222222222222222222222222222222222222222222222222222222222222
222222222222222222222222222222222222222222222222222222222222222222222222
222222222222222222222222222222222222222222222222222222222222222222222222
222222222222222222222222222222222222222222222222222222222222222222222222
222222222222222222222222222222222222222222222222222222222222222222222222
222222222222222222222222222222222222222222222222222222222222222222222222
222222222222222222222222222222222222222222222222222222222222222222222222
222222222222222222222222222222222222222222222222222222222222222222222222
222222222222222222222222222222222222222222222222222222222222222222222222
222222222222222222222222222222222222222222222222222222222222222222222222
222222222222222222222222222222222222222222222222222222222222222222222222
222222222222222222222222222222222222222222222222222222222222222222222222
222222222222222222222222222222222222222222222222222222222222222222222222
222222222222222222222222222222222222222222222222222222222222222222222222
222222222222222222222222222222222222222222222222
# atoms in fragment 1/2:   322  3542
 fragment masses (1/2) :     2085.00    22935.05
CMA distance (Bohr)    :  28.475
constraining FC (au)   :  0.0500

           -------------------------------------------------
          |                 G F N 2 - x T B                 |
           -------------------------------------------------

        Reference                      10.1021/acs.jctc.8b01176
      * Hamiltonian:
        H0-scaling (s, p, d)           1.850000    2.230000    2.230000
        zeta-weighting                 0.500000
      * Dispersion:
        s8                             2.700000
        a1                             0.520000
        a2                             5.000000
        s9                             5.000000
      * Repulsion:
        kExp                           1.500000    1.000000
        rExp                           1.000000
      * Coulomb:
        alpha                          2.000000
        third order                    shell-resolved
        anisotropic                    true
        a3                             3.000000
        a5                             4.000000
        cn-shift                       1.200000
        cn-exp                         4.000000
        max-rad                        5.000000


          ...................................................
          :                      SETUP                      :
          :.................................................:
          :  # basis functions                9624          :
          :  # atomic orbitals                9624          :
          :  # shells                         5784          :
          :  # electrons                      9624          :
          :  max. iterations                   250          :
          :  Hamiltonian                  GFN2-xTB          :
          :  restarted?                      false          :
          :  GBSA solvation                  false          :
          :  PC potential                    false          :
          :  electronic temp.          300.0000000     K    :
          :  accuracy                    1.0000000          :
          :  -> integral cutoff          0.2500000E+02      :
          :  -> integral neglect         0.1000000E-07      :
          :  -> SCF convergence          0.1000000E-05 Eh   :
          :  -> wf. convergence          0.1000000E-03 e    :
          :  Broyden damping             0.4000000          :
          ...................................................

 iter      E             dE          RMSdq      gap      omega  full diag
   1  -5195.7309658 -0.519573E+04  0.371E+00    4.33       0.0  T
   2  -5198.3124425 -0.258148E+01  0.219E+00    4.34       1.0  T
   3  -5198.2387294  0.737131E-01  0.495E-01    4.16       1.0  T
   4  -5198.4440718 -0.205342E+00  0.242E-01    4.10       1.0  T
   5  -5198.5981101 -0.154038E+00  0.465E-02    4.18       1.0  T
   6  -5198.6002042 -0.209402E-02  0.288E-02    4.16       1.0  T
   7  -5198.6014508 -0.124669E-02  0.111E-02    4.18       1.0  T
   8  -5198.6017605 -0.309644E-03  0.294E-03    4.17       1.0  T
   9  -5198.6017787 -0.182519E-04  0.127E-03    4.17       1.3  T
  10  -5198.6017805 -0.175328E-05  0.564E-04    4.17       2.9  T
  11  -5198.6017809 -0.405067E-06  0.296E-04    4.17       5.4  T
  12  -5198.6017811 -0.178653E-06  0.101E-04    4.17      16.0  T

   *** convergence criteria satisfied after 12 iterations ***

         #    Occupation            Energy/Eh            Energy/eV
      -------------------------------------------------------------
         1        2.0000           -0.6495657             -17.6756
       ...           ...                  ...                  ...
      4806        2.0000           -0.3820650             -10.3965
      4807        2.0000           -0.3820174             -10.3952
      4808        2.0000           -0.3818497             -10.3907
      4809        2.0000           -0.3809296             -10.3656
      4810        2.0000           -0.3807447             -10.3606
      4811        2.0000           -0.3805471             -10.3552
      4812        2.0000           -0.3803647             -10.3502 (HOMO)
      4813                         -0.2269441              -6.1755 (LUMO)
      4814                         -0.2266691              -6.1680
      4815                         -0.2265818              -6.1656
      4816                         -0.2260728              -6.1518
      4817                         -0.2260380              -6.1508
       ...                                ...                  ...
      9624                          0.6818374              18.5537
      -------------------------------------------------------------
                  HL-Gap            0.1534206 Eh            4.1748 eV
             Fermi-level           -0.3036544 Eh           -8.2629 eV

 SCC (total)                   0 d,  0 h, 47 min, 28.964 sec
 SCC setup                      ...        0 min,  0.712 sec (  0.025%)
 Dispersion                     ...        0 min,  7.115 sec (  0.250%)
 classical contributions        ...        0 min,  0.185 sec (  0.006%)
 integral evaluation            ...        0 min, 15.848 sec (  0.556%)
 iterations                     ...       40 min, 17.755 sec ( 84.864%)
 molecular gradient             ...        6 min, 20.975 sec ( 13.372%)
 printout                       ...        0 min, 26.376 sec (  0.926%)

         :::::::::::::::::::::::::::::::::::::::::::::::::::::
         ::                     SUMMARY                     ::
         :::::::::::::::::::::::::::::::::::::::::::::::::::::
         :: total energy           -5104.082692217520 Eh    ::
         :: gradient norm              0.022291774372 Eh/a0 ::
         :: HOMO-LUMO gap              4.174786675892 eV    ::
         ::.................................................::
         :: SCC energy             -5198.601781078423 Eh    ::
         :: -> isotropic ES            0.264474232752 Eh    ::
         :: -> anisotropic ES          0.792111755728 Eh    ::
         :: -> anisotropic XC          3.251925026174 Eh    ::
         :: -> dispersion             -7.004541710234 Eh    ::
         :: repulsion energy          93.379406087730 Eh    ::
         :: add. restraining           0.000000000000 Eh    ::
         :: total charge              -0.000000000032 e     ::
         :::::::::::::::::::::::::::::::::::::::::::::::::::::

      ----------------------------------------------------------- 
     |              Fast Inertial Relaxation Engine              |
      ----------------------------------------------------------- 

          ...................................................
          :                      SETUP                      :
          :.................................................:
          :   energy convergence        0.5000000E-05 Eh    :
          :   grad. convergence         0.1000000E-02 Eh/a0 :
          :   optimization log               true           :
          :   writing optlog all                1     steps :
          :   Hessian reset                    20     steps :
          :   time step scaling                 5     steps :
          :   maximium step len.        1.0000000     a0    :
          :   initial time step         0.2500000     fs    :
          :   maximum time step         1.2500000     fs    :
          :   power reset thr           0.0000000     au    :
          :   alpha parameter           0.1000000           :
          :   BFGS update                   false           :
          :   preconditioning               false           :
          ...................................................

........................................................................
.............................. CYCLE    1 ..............................
........................................................................

 iter      E             dE          RMSdq      gap      omega  full diag
   1  -5198.6029943 -0.519860E+04  0.311E-04    4.17       0.0  T
   2  -5198.6029943 -0.152304E-07  0.192E-04    4.17       8.4  T
   3  -5198.6029943  0.325017E-07  0.869E-05    4.17      18.5  T
     SCC iter.                  ...       10 min, 32.116 sec
     gradient                   ...        6 min,  1.542 sec
 * total energy  : -5104.0827486 Eh     change    :  -0.5640851E-04 Eh
   gradient norm :     0.0209088 Eh/a0  converged?    E=F G=F D=F
   time step     :     0.2500000 fs     power     :   0.2896939E-08
   step length   :     0.0026125 a0     speed     :   0.2527781E-03

........................................................................
.............................. CYCLE    2 ..............................
........................................................................

 iter      E             dE          RMSdq      gap      omega  full diag
   1  -5198.6047898 -0.519860E+04  0.456E-04    4.17       0.0  T
   2  -5198.6047898 -0.290220E-07  0.280E-04    4.18       5.7  T
   3  -5198.6047898  0.462996E-07  0.105E-04    4.18      15.3  T
     SCC iter.                  ...       10 min, 21.604 sec
     gradient                   ...        6 min, 24.716 sec
 * total energy  : -5104.0828250 Eh     change    :  -0.7633451E-04 Eh
   gradient norm :     0.0189560 Eh/a0  converged?    E=F G=F D=F
   time step     :     0.2500000 fs     power     :   0.3843711E-08
   step length   :     0.0038370 a0     speed     :   0.3712511E-03

........................................................................
.............................. CYCLE    3 ..............................
........................................................................

 iter      E             dE          RMSdq      gap      omega  full diag
   1  -5198.6071486 -0.519861E+04  0.586E-04    4.18       0.0  T
   2  -5198.6071487 -0.448335E-07  0.360E-04    4.18       4.5  T
   3  -5198.6071486  0.711507E-07  0.128E-04    4.18      12.6  T
     SCC iter.                  ...       10 min,  9.025 sec
     gradient                   ...        6 min,  1.245 sec
 * total energy  : -5104.0829122 Eh     change    :  -0.8723210E-04 Eh
   gradient norm :     0.0166294 Eh/a0  converged?    E=F G=F D=F
   time step     :     0.2500000 fs     power     :   0.4300531E-08
   step length   :     0.0049432 a0     speed     :   0.4782854E-03

........................................................................
.............................. CYCLE    4 ..............................
........................................................................

 iter      E             dE          RMSdq      gap      omega  full diag
   1  -5198.6100501 -0.519861E+04  0.699E-04    4.18       0.0  T
   2  -5198.6100502 -0.595974E-07  0.431E-04    4.18       3.7  T
   3  -5198.6100501  0.109186E-06  0.152E-04    4.18      10.6  T
     SCC iter.                  ...       10 min,  5.620 sec
     gradient                   ...        5 min, 42.354 sec
 * total energy  : -5104.0830010 Eh     change    :  -0.8880070E-04 Eh
   gradient norm :     0.0141893 Eh/a0  converged?    E=F G=F D=F
   time step     :     0.2500000 fs     power     :   0.4270980E-08
   step length   :     0.0059018 a0     speed     :   0.5710339E-03

........................................................................
.............................. CYCLE    5 ..............................
........................................................................

 iter      E             dE          RMSdq      gap      omega  full diag
   1  -5198.6134693 -0.519861E+04  0.790E-04    4.18       0.0  T
   2  -5198.6134694 -0.703430E-07  0.489E-04    4.18       3.3  T
   3  -5198.6134693  0.161226E-06  0.179E-04    4.18       9.0  T
     SCC iter.                  ...       10 min,  2.087 sec
     gradient                   ...        5 min, 45.508 sec
 * total energy  : -5104.0830834 Eh     change    :  -0.8243003E-04 Eh
   gradient norm :     0.0119582 Eh/a0  converged?    E=F G=F D=F
   time step     :     0.2500000 fs     power     :   0.3846952E-08
   step length   :     0.0066893 a0     speed     :   0.6472240E-03

........................................................................
.............................. CYCLE    6 ..............................
........................................................................

 iter      E             dE          RMSdq      gap      omega  full diag
   1  -5198.6178033 -0.519862E+04  0.950E-04    4.18       0.0  T
   2  -5198.6178034 -0.942237E-07  0.593E-04    4.18       2.7  T
   3  -5198.6178031  0.304964E-06  0.237E-04    4.18       6.8  T
     SCC iter.                  ...       10 min, 38.459 sec
     gradient                   ...        6 min, 43.357 sec
 * total energy  : -5104.0831607 Eh     change    :  -0.7726893E-04 Eh
   gradient norm :     0.0101194 Eh/a0  converged?    E=F G=F D=F
   time step     :     0.2750000 fs     power     :   0.3102720E-08
   step length   :     0.0080851 a0     speed     :   0.7111650E-03

........................................................................
.............................. CYCLE    7 ..............................
........................................................................

 iter      E             dE          RMSdq      gap      omega  full diag
   1  -5198.6231361 -0.519862E+04  0.110E-03    4.18       0.0  T
   2  -5198.6231363 -0.114615E-06  0.696E-04    4.18       2.3  T
   3  -5198.6231357  0.521287E-06  0.303E-04    4.18       5.3  T
     SCC iter.                  ...       10 min,  8.149 sec
     gradient                   ...        5 min, 39.982 sec
 * total energy  : -5104.0832261 Eh     change    :  -0.6544293E-04 Eh
   gradient norm :     0.0090638 Eh/a0  converged?    E=F G=F D=F
   time step     :     0.3025000 fs     power     :   0.2203979E-08
   step length   :     0.0094496 a0     speed     :   0.7556164E-03

........................................................................
.............................. CYCLE    8 ..............................
........................................................................

 iter      E             dE          RMSdq      gap      omega  full diag
   1  -5198.6294060 -0.519863E+04  0.123E-03    4.18       0.0  T
   2  -5198.6294062 -0.131996E-06  0.784E-04    4.18       2.1  T
   3  -5198.6294054  0.765445E-06  0.367E-04    4.18       4.4  T
     SCC iter.                  ...       10 min,  3.692 sec
     gradient                   ...        5 min, 44.137 sec
 * total energy  : -5104.0832766 Eh     change    :  -0.5041516E-04 Eh
   gradient norm :     0.0086821 Eh/a0  converged?    E=F G=F D=F
   time step     :     0.3327500 fs     power     :   0.1363701E-08
   step length   :     0.0106443 a0     speed     :   0.7737761E-03

........................................................................
.............................. CYCLE    9 ..............................
........................................................................

 iter      E             dE          RMSdq      gap      omega  full diag
   1  -5198.6363314 -0.519864E+04  0.132E-03    4.18       0.0  T
   2  -5198.6363316 -0.151678E-06  0.846E-04    4.18       1.9  T
   3  -5198.6363307  0.901507E-06  0.408E-04    4.18       3.9  T
     SCC iter.                  ...       10 min,  5.188 sec
     gradient                   ...        5 min, 37.133 sec
 * total energy  : -5104.0833122 Eh     change    :  -0.3565858E-04 Eh
   gradient norm :     0.0084389 Eh/a0  converged?    E=F G=F D=F
   time step     :     0.3660250 fs     power     :   0.6909817E-09
   step length   :     0.0115828 a0     speed     :   0.7654534E-03

........................................................................
.............................. CYCLE   10 ..............................
........................................................................

 iter      E             dE          RMSdq      gap      omega  full diag
   1  -5198.6434065 -0.519864E+04  0.138E-03    4.18       0.0  T
   2  -5198.6434067 -0.171423E-06  0.873E-04    4.18       1.8  T
   3  -5198.6434058  0.867106E-06  0.417E-04    4.18       3.9  T
     SCC iter.                  ...       10 min,  5.119 sec
     gradient                   ...        5 min, 37.925 sec
 * total energy  : -5104.0833343 Eh     change    :  -0.2209026E-04 Eh
   gradient norm :     0.0081630 Eh/a0  converged?    E=F G=F D=F
   time step     :     0.4026275 fs     power     :   0.1527788E-09
   step length   :     0.0122551 a0     speed     :   0.7362541E-03

........................................................................
.............................. CYCLE   11 ..............................
........................................................................

 iter      E             dE          RMSdq      gap      omega  full diag
   1  -5198.6499046 -0.519865E+04  0.139E-03    4.18       0.0  T
   2  -5198.6499048 -0.174812E-06  0.859E-04    4.18       1.9  T
   3  -5198.6499041  0.671020E-06  0.380E-04    4.18       4.2  T
     SCC iter.                  ...       10 min,  3.650 sec
     gradient                   ...        5 min, 43.379 sec
 * total energy  : -5104.0833436 Eh     change    :  -0.9308437E-05 Eh
   gradient norm :     0.0083046 Eh/a0  converged?    E=F G=F D=F
   time step     :     0.4428903 fs     power     :  -0.2627732E-09
   step length   :     0.0126372 a0     speed     :   0.6901915E-03

........................................................................
.............................. CYCLE   12 ..............................
........................................................................
 * reset velocities

 iter      E             dE          RMSdq      gap      omega  full diag
   1  -5198.6497362 -0.519865E+04  0.617E-05    4.18       0.0  T
   2  -5198.6497362 -0.537239E-08  0.560E-05    4.18      28.7  T
   3  -5198.6497362 -0.132259E-07  0.196E-05    4.18      81.9  T
     SCC iter.                  ...       10 min,  6.022 sec
     gradient                   ...        5 min, 39.944 sec
 * total energy  : -5104.0833476 Eh     change    :  -0.3954415E-05 Eh
   gradient norm :     0.0081635 Eh/a0  converged?    E=T G=F D=T
   time step     :     0.2214451 fs     power     :   0.1867585E-09
   step length   :     0.0003818 a0     speed     :   0.4170717E-04

........................................................................
.............................. CYCLE   13 ..............................
........................................................................

 iter      E             dE          RMSdq      gap      omega  full diag
   1  -5198.6493902 -0.519865E+04  0.740E-05    4.18       0.0  T
   2  -5198.6493902 -0.110686E-08  0.521E-05    4.18      30.9  T
   3  -5198.6493902  0.256841E-08  0.228E-05    4.18      70.4  T
     SCC iter.                  ...       10 min,  7.753 sec
     gradient                   ...        5 min, 38.132 sec
 * total energy  : -5104.0833536 Eh     change    :  -0.6052963E-05 Eh
   gradient norm :     0.0078423 Eh/a0  converged?    E=F G=F D=T
   time step     :     0.2214451 fs     power     :   0.3556758E-09
   step length   :     0.0007571 a0     speed     :   0.8270331E-04

........................................................................
.............................. CYCLE   14 ..............................
........................................................................

 iter      E             dE          RMSdq      gap      omega  full diag
   1  -5198.6488709 -0.519865E+04  0.106E-04    4.18       0.0  T
   2  -5198.6488709 -0.241562E-08  0.753E-05    4.18      21.4  T
   3  -5198.6488709  0.486398E-08  0.328E-05    4.18      49.0  T
     SCC iter.                  ...       10 min,  1.410 sec
     gradient                   ...        5 min, 38.506 sec
 * total energy  : -5104.0833621 Eh     change    :  -0.8503443E-05 Eh
   gradient norm :     0.0073771 Eh/a0  converged?    E=F G=F D=F
   time step     :     0.2214451 fs     power     :   0.4934136E-09
   step length   :     0.0011176 a0     speed     :   0.1220785E-03

........................................................................
.............................. CYCLE   15 ..............................
........................................................................

 iter      E             dE          RMSdq      gap      omega  full diag
   1  -5198.6481843 -0.519865E+04  0.138E-04    4.18       0.0  T
   2  -5198.6481843 -0.403725E-08  0.976E-05    4.18      16.5  T
   3  -5198.6481843  0.818909E-08  0.422E-05    4.18      38.1  T
     SCC iter.                  ...       10 min,  2.218 sec
     gradient                   ...        5 min, 38.591 sec
 * total energy  : -5104.0833724 Eh     change    :  -0.1028459E-04 Eh
   gradient norm :     0.0067896 Eh/a0  converged?    E=F G=F D=F
   time step     :     0.2214451 fs     power     :   0.5903928E-09
   step length   :     0.0014564 a0     speed     :   0.1590841E-03

........................................................................
.............................. CYCLE   16 ..............................
........................................................................

 iter      E             dE          RMSdq      gap      omega  full diag
   1  -5198.6473389 -0.519865E+04  0.166E-04    4.18       0.0  T
   2  -5198.6473389 -0.578439E-08  0.118E-04    4.18      13.7  T
   3  -5198.6473389  0.124792E-07  0.508E-05    4.18      31.7  T
     SCC iter.                  ...       10 min,  2.618 sec
     gradient                   ...        5 min, 38.196 sec
 * total energy  : -5104.0833837 Eh     change    :  -0.1133492E-04 Eh
   gradient norm :     0.0061101 Eh/a0  converged?    E=F G=F D=F
   time step     :     0.2214451 fs     power     :   0.6413144E-09
   step length   :     0.0017673 a0     speed     :   0.1930488E-03

........................................................................
.............................. CYCLE   17 ..............................
........................................................................

 iter      E             dE          RMSdq      gap      omega  full diag
   1  -5198.6463444 -0.519865E+04  0.191E-04    4.18       0.0  T
   2  -5198.6463444 -0.731870E-08  0.135E-04    4.18      11.9  T
   3  -5198.6463444  0.170348E-07  0.584E-05    4.18      27.6  T
     SCC iter.                  ...       10 min,  1.270 sec
     gradient                   ...        5 min, 38.250 sec
 * total energy  : -5104.0833953 Eh     change    :  -0.1155760E-04 Eh
   gradient norm :     0.0053781 Eh/a0  converged?    E=F G=F D=F
   time step     :     0.2214451 fs     power     :   0.6457971E-09
   step length   :     0.0020451 a0     speed     :   0.2233888E-03

........................................................................
.............................. CYCLE   18 ..............................
........................................................................

 iter      E             dE          RMSdq      gap      omega  full diag
   1  -5198.6450856 -0.519865E+04  0.233E-04    4.18       0.0  T
   2  -5198.6450856 -0.107311E-07  0.166E-04    4.18       9.7  T
   3  -5198.6450856  0.271193E-07  0.723E-05    4.18      22.2  T
     SCC iter.                  ...       10 min,  2.560 sec
     gradient                   ...        5 min, 38.145 sec
 * total energy  : -5104.0834075 Eh     change    :  -0.1222604E-04 Eh
   gradient norm :     0.0045704 Eh/a0  converged?    E=F G=F D=F
   time step     :     0.2435896 fs     power     :   0.6022663E-09
   step length   :     0.0025404 a0     speed     :   0.2522655E-03

........................................................................
.............................. CYCLE   19 ..............................
........................................................................

 iter      E             dE          RMSdq      gap      omega  full diag
   1  -5198.6435266 -0.519864E+04  0.277E-04    4.18       0.0  T
   2  -5198.6435266 -0.141763E-07  0.197E-04    4.18       8.1  T
   3  -5198.6435266  0.411546E-07  0.868E-05    4.18      18.5  T
     SCC iter.                  ...       10 min,  5.499 sec
     gradient                   ...        5 min, 37.677 sec
 * total energy  : -5104.0834194 Eh     change    :  -0.1187431E-04 Eh
   gradient norm :     0.0037848 Eh/a0  converged?    E=F G=F D=F
   time step     :     0.2679486 fs     power     :   0.5092896E-09
   step length   :     0.0030794 a0     speed     :   0.2779859E-03

........................................................................
.............................. CYCLE   20 ..............................
........................................................................

 iter      E             dE          RMSdq      gap      omega  full diag
   1  -5198.6416465 -0.519864E+04  0.317E-04    4.18       0.0  T
   2  -5198.6416465 -0.171303E-07  0.226E-04    4.18       7.1  T
   3  -5198.6416464  0.598884E-07  0.101E-04    4.18      15.9  T
     SCC iter.                  ...       10 min,  2.471 sec
     gradient                   ...        5 min, 38.339 sec
 * total energy  : -5104.0834298 Eh     change    :  -0.1043548E-04 Eh
   gradient norm :     0.0032135 Eh/a0  converged?    E=F G=F D=F
   time step     :     0.2947435 fs     power     :   0.3790273E-09
   step length   :     0.0036328 a0     speed     :   0.2981322E-03
 * RMSD in coord.:     0.0012414 a0     energy gain  -0.7376139E-03 Eh

........................................................................
.............................. CYCLE   21 ..............................
........................................................................

 iter      E             dE          RMSdq      gap      omega  full diag
   1  -5198.6399923 -0.519864E+04  0.267E-04    4.18       0.0  T
   2  -5198.6399923 -0.996260E-08  0.187E-04    4.18       8.6  T
   3  -5198.6399923  0.451091E-07  0.846E-05    4.18      19.0  T
     SCC iter.                  ...       10 min,  0.669 sec
     gradient                   ...        5 min, 38.104 sec
 * total energy  : -5104.0834365 Eh     change    :  -0.6643921E-05 Eh
   gradient norm :     0.0030559 Eh/a0  converged?    E=F G=F D=F
   time step     :     0.2500000 fs     power     :   0.2798057E-09
   step length   :     0.0031500 a0     speed     :   0.3047815E-03

........................................................................
.............................. CYCLE   22 ..............................
........................................................................

 iter      E             dE          RMSdq      gap      omega  full diag
   1  -5198.6383536 -0.519864E+04  0.252E-04    4.18       0.0  T
   2  -5198.6383536 -0.774344E-08  0.176E-04    4.18       9.2  T
   3  -5198.6383535  0.436130E-07  0.818E-05    4.18      19.7  T
     SCC iter.                  ...       10 min,  9.721 sec
     gradient                   ...        5 min, 39.480 sec
 * total energy  : -5104.0834416 Eh     change    :  -0.5134000E-05 Eh
   gradient norm :     0.0031237 Eh/a0  converged?    E=F G=F D=F
   time step     :     0.2500000 fs     power     :   0.2126117E-09
   step length   :     0.0031330 a0     speed     :   0.3031330E-03

........................................................................
.............................. CYCLE   23 ..............................
........................................................................

 iter      E             dE          RMSdq      gap      omega  full diag
   1  -5198.6368041 -0.519864E+04  0.235E-04    4.18       0.0  T
   2  -5198.6368041 -0.527052E-08  0.160E-04    4.18      10.1  T
   3  -5198.6368041  0.350074E-07  0.734E-05    4.18      21.9  T
     SCC iter.                  ...       10 min,  1.007 sec
     gradient                   ...        5 min, 38.944 sec
 * total energy  : -5104.0834459 Eh     change    :  -0.4263550E-05 Eh
   gradient norm :     0.0032768 Eh/a0  converged?    E=T G=F D=F
   time step     :     0.2500000 fs     power     :   0.1833280E-09
   step length   :     0.0030566 a0     speed     :   0.2957401E-03

........................................................................
.............................. CYCLE   24 ..............................
........................................................................

 iter      E             dE          RMSdq      gap      omega  full diag
   1  -5198.6354014 -0.519864E+04  0.220E-04    4.18       0.0  T
   2  -5198.6354014 -0.330419E-08  0.143E-04    4.18      11.2  T
   3  -5198.6354014  0.203117E-07  0.575E-05    4.18      28.0  T
     SCC iter.                  ...       10 min,  3.219 sec
     gradient                   ...        5 min, 46.465 sec
 * total energy  : -5104.0834500 Eh     change    :  -0.4126729E-05 Eh
   gradient norm :     0.0034102 Eh/a0  converged?    E=T G=F D=F
   time step     :     0.2500000 fs     power     :   0.1859848E-09
   step length   :     0.0029596 a0     speed     :   0.2863610E-03

........................................................................
.............................. CYCLE   25 ..............................
........................................................................

 iter      E             dE          RMSdq      gap      omega  full diag
   1  -5198.6341827 -0.519863E+04  0.210E-04    4.18       0.0  T
   2  -5198.6341827 -0.216733E-08  0.130E-04    4.18      12.4  T
   3  -5198.6341827  0.597902E-08  0.342E-05    4.18      47.1  T
     SCC iter.                  ...       10 min,  6.101 sec
     gradient                   ...        5 min, 48.343 sec
 * total energy  : -5104.0834544 Eh     change    :  -0.4420960E-05 Eh
   gradient norm :     0.0034723 Eh/a0  converged?    E=T G=F D=F
   time step     :     0.2500000 fs     power     :   0.2089803E-09
   step length   :     0.0028737 a0     speed     :   0.2780427E-03

........................................................................
.............................. CYCLE   26 ..............................
........................................................................

 iter      E             dE          RMSdq      gap      omega  full diag
   1  -5198.6330709 -0.519863E+04  0.228E-04    4.18       0.0  T
   2  -5198.6330709 -0.198361E-08  0.136E-04    4.18      11.9  T
   3  -5198.6330709  0.147884E-08  0.231E-05    4.18      69.7  T
     SCC iter.                  ...       10 min,  4.457 sec
     gradient                   ...        5 min, 37.873 sec
 * total energy  : -5104.0834598 Eh     change    :  -0.5390968E-05 Eh
   gradient norm :     0.0034417 Eh/a0  converged?    E=F G=F D=F
   time step     :     0.2750000 fs     power     :   0.2401847E-09
   step length   :     0.0031100 a0     speed     :   0.2735559E-03

........................................................................
.............................. CYCLE   27 ..............................
........................................................................

 iter      E             dE          RMSdq      gap      omega  full diag
   1  -5198.6321193 -0.519863E+04  0.253E-04    4.18       0.0  T
   2  -5198.6321193 -0.219188E-08  0.149E-04    4.18      10.8  T
   3  -5198.6321193  0.351520E-08  0.308E-05    4.18      52.2  T
     SCC iter.                  ...       10 min,  2.630 sec
     gradient                   ...        5 min, 39.325 sec
 * total energy  : -5104.0834664 Eh     change    :  -0.6626694E-05 Eh
   gradient norm :     0.0033062 Eh/a0  converged?    E=F G=F D=F
   time step     :     0.3025000 fs     power     :   0.2696827E-09
   step length   :     0.0034235 a0     speed     :   0.2737519E-03

........................................................................
.............................. CYCLE   28 ..............................
........................................................................

 iter      E             dE          RMSdq      gap      omega  full diag
   1  -5198.6313851 -0.519863E+04  0.288E-04    4.18       0.0  T
   2  -5198.6313851 -0.301952E-08  0.170E-04    4.18       9.4  T
   3  -5198.6313851  0.139808E-07  0.541E-05    4.18      29.7  T
     SCC iter.                  ...       10 min,  4.071 sec
     gradient                   ...        5 min, 39.670 sec
 * total energy  : -5104.0834743 Eh     change    :  -0.7816286E-05 Eh
   gradient norm :     0.0030758 Eh/a0  converged?    E=F G=F D=F
   time step     :     0.3327500 fs     power     :   0.2884561E-09
   step length   :     0.0038306 a0     speed     :   0.2784614E-03

........................................................................
.............................. CYCLE   29 ..............................
........................................................................

 iter      E             dE          RMSdq      gap      omega  full diag
   1  -5198.6309289 -0.519863E+04  0.331E-04    4.18       0.0  T
   2  -5198.6309289 -0.491218E-08  0.199E-04    4.18       8.1  T
   3  -5198.6309289  0.354448E-07  0.837E-05    4.18      19.2  T
     SCC iter.                  ...       10 min,  4.929 sec
     gradient                   ...        5 min, 40.934 sec
 * total energy  : -5104.0834831 Eh     change    :  -0.8805621E-05 Eh
   gradient norm :     0.0027856 Eh/a0  converged?    E=F G=F D=F
   time step     :     0.3660250 fs     power     :   0.2898056E-09
   step length   :     0.0043387 a0     speed     :   0.2867220E-03

........................................................................
.............................. CYCLE   30 ..............................
........................................................................

 iter      E             dE          RMSdq      gap      omega  full diag
   1  -5198.6308079 -0.519863E+04  0.377E-04    4.18       0.0  T
   2  -5198.6308079 -0.695036E-08  0.229E-04    4.18       7.0  T
   3  -5198.6308079  0.603741E-07  0.108E-04    4.18      14.9  T
     SCC iter.                  ...        9 min, 59.395 sec
     gradient                   ...        5 min, 40.599 sec
 * total energy  : -5104.0834924 Eh     change    :  -0.9311117E-05 Eh
   gradient norm :     0.0025046 Eh/a0  converged?    E=F G=F D=F
   time step     :     0.4026275 fs     power     :   0.2720055E-09
   step length   :     0.0049418 a0     speed     :   0.2968923E-03

........................................................................
.............................. CYCLE   31 ..............................
........................................................................

 iter      E             dE          RMSdq      gap      omega  full diag
   1  -5198.6310608 -0.519863E+04  0.417E-04    4.18       0.0  T
   2  -5198.6310608 -0.854743E-08  0.256E-04    4.18       6.3  T
   3  -5198.6310607  0.787832E-07  0.123E-04    4.18      13.1  T
     SCC iter.                  ...       10 min,  3.403 sec
     gradient                   ...        5 min, 36.394 sec
 * total energy  : -5104.0835017 Eh     change    :  -0.9296111E-05 Eh
   gradient norm :     0.0023172 Eh/a0  converged?    E=F G=F D=F
   time step     :     0.4428903 fs     power     :   0.2408900E-09
   step length   :     0.0056183 a0     speed     :   0.3068504E-03

........................................................................
.............................. CYCLE   32 ..............................
........................................................................

 iter      E             dE          RMSdq      gap      omega  full diag
   1  -5198.6316821 -0.519863E+04  0.444E-04    4.18       0.0  T
   2  -5198.6316821 -0.933778E-08  0.271E-04    4.18       5.9  T
   3  -5198.6316820  0.793734E-07  0.122E-04    4.18      13.2  T
     SCC iter.                  ...       10 min,  1.569 sec
     gradient                   ...        5 min, 41.250 sec
 * total energy  : -5104.0835108 Eh     change    :  -0.9116747E-05 Eh
   gradient norm :     0.0022624 Eh/a0  converged?    E=F G=F D=F
   time step     :     0.4871793 fs     power     :   0.2088093E-09
   step length   :     0.0063352 a0     speed     :   0.3145469E-03

........................................................................
.............................. CYCLE   33 ..............................
........................................................................

 iter      E             dE          RMSdq      gap      omega  full diag
   1  -5198.6326054 -0.519863E+04  0.453E-04    4.18       0.0  T
   2  -5198.6326054 -0.914315E-08  0.273E-04    4.18       5.9  T
   3  -5198.6326054  0.507134E-07  0.977E-05    4.18      16.5  T
     SCC iter.                  ...       10 min,  1.303 sec
     gradient                   ...        5 min, 38.026 sec
 * total energy  : -5104.0835199 Eh     change    :  -0.9066037E-05 Eh
   gradient norm :     0.0023074 Eh/a0  converged?    E=F G=F D=F
   time step     :     0.5358972 fs     power     :   0.1883056E-09
   step length   :     0.0070728 a0     speed     :   0.3192474E-03

........................................................................
.............................. CYCLE   34 ..............................
........................................................................

 iter      E             dE          RMSdq      gap      omega  full diag
   1  -5198.6337106 -0.519863E+04  0.443E-04    4.18       0.0  T
   2  -5198.6337106 -0.874115E-08  0.264E-04    4.18       6.1  T
   3  -5198.6337106  0.112859E-07  0.533E-05    4.18      30.2  T
     SCC iter.                  ...       10 min,  1.099 sec
     gradient                   ...        5 min, 40.119 sec
 * total energy  : -5104.0835295 Eh     change    :  -0.9683115E-05 Eh
   gradient norm :     0.0023865 Eh/a0  converged?    E=F G=F D=F
   time step     :     0.5894869 fs     power     :   0.1865655E-09
   step length   :     0.0078554 a0     speed     :   0.3223379E-03

........................................................................
.............................. CYCLE   35 ..............................
........................................................................

 iter      E             dE          RMSdq      gap      omega  full diag
   1  -5198.6348419 -0.519863E+04  0.424E-04    4.18       0.0  T
   2  -5198.6348419 -0.696400E-08  0.256E-04    4.18       6.3  T
   3  -5198.6348419  0.137479E-07  0.541E-05    4.18      29.7  T
     SCC iter.                  ...       10 min,  0.990 sec
     gradient                   ...        5 min, 37.588 sec
 * total energy  : -5104.0835407 Eh     change    :  -0.1111729E-04 Eh
   gradient norm :     0.0023922 Eh/a0  converged?    E=F G=F D=F
   time step     :     0.6484356 fs     power     :   0.2022600E-09
   step length   :     0.0087552 a0     speed     :   0.3265973E-03

........................................................................
.............................. CYCLE   36 ..............................
........................................................................

 iter      E             dE          RMSdq      gap      omega  full diag
   1  -5198.6358143 -0.519864E+04  0.416E-04    4.18       0.0  T
   2  -5198.6358143 -0.639739E-08  0.256E-04    4.18       6.3  T
   3  -5198.6358143  0.248174E-07  0.675E-05    4.18      23.8  T
     SCC iter.                  ...       10 min,  3.614 sec
     gradient                   ...        5 min, 41.024 sec
 * total energy  : -5104.0835539 Eh     change    :  -0.1321091E-04 Eh
   gradient norm :     0.0022459 Eh/a0  converged?    E=F G=F D=F
   time step     :     0.7132792 fs     power     :   0.2199353E-09
   step length   :     0.0098700 a0     speed     :   0.3347115E-03

........................................................................
.............................. CYCLE   37 ..............................
........................................................................

 iter      E             dE          RMSdq      gap      omega  full diag
   1  -5198.6364156 -0.519864E+04  0.421E-04    4.18       0.0  T
   2  -5198.6364156 -0.967430E-08  0.268E-04    4.18       6.0  T
   3  -5198.6364156  0.609207E-07  0.101E-04    4.18      16.0  T
     SCC iter.                  ...        9 min, 59.864 sec
     gradient                   ...        5 min, 41.381 sec
 * total energy  : -5104.0835689 Eh     change    :  -0.1507414E-04 Eh
   gradient norm :     0.0021582 Eh/a0  converged?    E=F G=F D=F
   time step     :     0.7846071 fs     power     :   0.2239125E-09
   step length   :     0.0112594 a0     speed     :   0.3471179E-03

........................................................................
.............................. CYCLE   38 ..............................
........................................................................

 iter      E             dE          RMSdq      gap      omega  full diag
   1  -5198.6364455 -0.519864E+04  0.445E-04    4.18       0.0  T
   2  -5198.6364455 -0.125647E-07  0.278E-04    4.18       5.8  T
   3  -5198.6364455  0.520185E-07  0.971E-05    4.18      16.6  T
     SCC iter.                  ...       10 min,  2.036 sec
     gradient                   ...        5 min, 40.423 sec
 * total energy  : -5104.0835861 Eh     change    :  -0.1716171E-04 Eh
   gradient norm :     0.0023006 Eh/a0  converged?    E=F G=F D=F
   time step     :     0.8630678 fs     power     :   0.2364533E-09
   step length   :     0.0128932 a0     speed     :   0.3613537E-03

........................................................................
.............................. CYCLE   39 ..............................
........................................................................

 iter      E             dE          RMSdq      gap      omega  full diag
   1  -5198.6359474 -0.519864E+04  0.512E-04    4.18       0.0  T
   2  -5198.6359474 -0.122436E-07  0.308E-04    4.18       5.2  T
   3  -5198.6359474  0.202381E-07  0.680E-05    4.18      23.6  T
     SCC iter.                  ...        9 min, 59.383 sec
     gradient                   ...        5 min, 37.406 sec
 * total energy  : -5104.0836074 Eh     change    :  -0.2125929E-04 Eh
   gradient norm :     0.0022446 Eh/a0  converged?    E=F G=F D=F
   time step     :     0.9493746 fs     power     :   0.2760054E-09
   step length   :     0.0148439 a0     speed     :   0.3782024E-03

........................................................................
.............................. CYCLE   40 ..............................
........................................................................

 iter      E             dE          RMSdq      gap      omega  full diag
   1  -5198.6354442 -0.519864E+04  0.594E-04    4.18       0.0  T
   2  -5198.6354442 -0.156106E-07  0.361E-04    4.18       4.5  T
   3  -5198.6354441  0.460423E-07  0.949E-05    4.18      17.0  T
     SCC iter.                  ...       10 min,  3.888 sec
     gradient                   ...        5 min, 37.036 sec
 * total energy  : -5104.0836331 Eh     change    :  -0.2573049E-04 Eh
   gradient norm :     0.0019755 Eh/a0  converged?    E=F G=F D=F
   time step     :     1.0443120 fs     power     :   0.2958702E-09
   step length   :     0.0173702 a0     speed     :   0.4023364E-03

........................................................................
.............................. CYCLE   41 ..............................
........................................................................

 iter      E             dE          RMSdq      gap      omega  full diag
   1  -5198.6359527 -0.519864E+04  0.632E-04    4.18       0.0  T
   2  -5198.6359527 -0.181517E-07  0.389E-04    4.18       4.1  T
   3  -5198.6359527  0.680193E-07  0.114E-04    4.18      14.1  T
     SCC iter.                  ...        9 min, 57.869 sec
     gradient                   ...        5 min, 38.590 sec
 * total energy  : -5104.0836615 Eh     change    :  -0.2845311E-04 Eh
   gradient norm :     0.0021008 Eh/a0  converged?    E=F G=F D=F
   time step     :     1.1487432 fs     power     :   0.2900707E-09
   step length   :     0.0204591 a0     speed     :   0.4308019E-03

........................................................................
.............................. CYCLE   42 ..............................
........................................................................

 iter      E             dE          RMSdq      gap      omega  full diag
   1  -5198.6377906 -0.519864E+04  0.690E-04    4.18       0.0  T
   2  -5198.6377906 -0.134332E-07  0.409E-04    4.18       3.9  T
   3  -5198.6377906  0.141454E-07  0.639E-05    4.18      25.2  T
     SCC iter.                  ...       10 min,  2.489 sec
     gradient                   ...        5 min, 39.006 sec
 * total energy  : -5104.0836952 Eh     change    :  -0.3363992E-04 Eh
   gradient norm :     0.0021518 Eh/a0  converged?    E=F G=F D=F
   time step     :     1.2500000 fs     power     :   0.3349224E-09
   step length   :     0.0236199 a0     speed     :   0.4570695E-03
 * RMSD in coord.:     0.0025775 a0     energy gain  -0.2653487E-03 Eh

........................................................................
.............................. CYCLE   43 ..............................
........................................................................

 iter      E             dE          RMSdq      gap      omega  full diag
   1  -5198.6381268 -0.519864E+04  0.136E-04    4.18       0.0  T
   2  -5198.6381268 -0.405635E-09  0.805E-05    4.18      20.0  T
   3  -5198.6381268  0.176988E-08  0.205E-05    4.18      78.3  T
     SCC iter.                  ...       10 min,  1.037 sec
     gradient                   ...        5 min, 42.011 sec
 * total energy  : -5104.0837021 Eh     change    :  -0.6913496E-05 Eh
   gradient norm :     0.0020756 Eh/a0  converged?    E=F G=F D=F
   time step     :     0.2500000 fs     power     :   0.3622286E-09
   step length   :     0.0046468 a0     speed     :   0.4496065E-03

........................................................................
.............................. CYCLE   44 ..............................
........................................................................

 iter      E             dE          RMSdq      gap      omega  full diag
   1  -5198.6384133 -0.519864E+04  0.146E-04    4.18       0.0  T
   2  -5198.6384133 -0.882210E-09  0.874E-05    4.18      18.4  T
   3  -5198.6384133  0.358705E-08  0.276E-05    4.18      58.3  T
     SCC iter.                  ...       10 min,  3.297 sec
     gradient                   ...        5 min, 35.201 sec
 * total energy  : -5104.0837093 Eh     change    :  -0.7235140E-05 Eh
   gradient norm :     0.0018984 Eh/a0  converged?    E=F G=F D=F
   time step     :     0.2500000 fs     power     :   0.3765252E-09
   step length   :     0.0046156 a0     speed     :   0.4465881E-03

........................................................................
.............................. CYCLE   45 ..............................
........................................................................

 iter      E             dE          RMSdq      gap      omega  full diag
   1  -5198.6386395 -0.519864E+04  0.161E-04    4.18       0.0  T
   2  -5198.6386395 -0.151613E-08  0.976E-05    4.18      16.5  T
   3  -5198.6386395  0.500950E-08  0.320E-05    4.18      50.3  T
     SCC iter.                  ...       10 min, 28.274 sec
     gradient                   ...        6 min, 30.840 sec
 * total energy  : -5104.0837165 Eh     change    :  -0.7215018E-05 Eh
   gradient norm :     0.0016940 Eh/a0  converged?    E=F G=F D=F
   time step     :     0.2500000 fs     power     :   0.3734205E-09
   step length   :     0.0046300 a0     speed     :   0.4479814E-03

........................................................................
.............................. CYCLE   46 ..............................
........................................................................

 iter      E             dE          RMSdq      gap      omega  full diag
   1  -5198.6388053 -0.519864E+04  0.172E-04    4.18       0.0  T
   2  -5198.6388053 -0.162072E-08  0.105E-04    4.18      15.3  T
   3  -5198.6388053  0.609998E-08  0.341E-05    4.18      47.2  T
     SCC iter.                  ...       10 min,  1.365 sec
     gradient                   ...        5 min, 40.789 sec
 * total energy  : -5104.0837235 Eh     change    :  -0.6990863E-05 Eh
   gradient norm :     0.0018794 Eh/a0  converged?    E=F G=F D=F
   time step     :     0.2500000 fs     power     :   0.3571279E-09
   step length   :     0.0046780 a0     speed     :   0.4526207E-03

........................................................................
.............................. CYCLE   47 ..............................
........................................................................

 iter      E             dE          RMSdq      gap      omega  full diag
   1  -5198.6389258 -0.519864E+04  0.174E-04    4.18       0.0  T
   2  -5198.6389258 -0.192631E-08  0.106E-04    4.18      15.1  T
   3  -5198.6389258  0.521050E-08  0.331E-05    4.18      48.6  T
     SCC iter.                  ...       10 min,  7.809 sec
     gradient                   ...        5 min, 39.150 sec
 * total energy  : -5104.0837301 Eh     change    :  -0.6547702E-05 Eh
   gradient norm :     0.0015678 Eh/a0  converged?    E=F G=F D=F
   time step     :     0.2500000 fs     power     :   0.3304570E-09
   step length   :     0.0046673 a0     speed     :   0.4515894E-03

........................................................................
.............................. CYCLE   48 ..............................
........................................................................

 iter      E             dE          RMSdq      gap      omega  full diag
   1  -5198.6390200 -0.519864E+04  0.180E-04    4.18       0.0  T
   2  -5198.6390200 -0.134241E-08  0.109E-04    4.18      14.7  T
   3  -5198.6390200  0.379259E-08  0.279E-05    4.18      57.7  T
     SCC iter.                  ...       10 min,  0.746 sec
     gradient                   ...        5 min, 43.129 sec
 * total energy  : -5104.0837369 Eh     change    :  -0.6852749E-05 Eh
   gradient norm :     0.0016744 Eh/a0  converged?    E=F G=F D=F
   time step     :     0.2750000 fs     power     :   0.3215907E-09
   step length   :     0.0051625 a0     speed     :   0.4540903E-03

........................................................................
.............................. CYCLE   49 ..............................
........................................................................

 iter      E             dE          RMSdq      gap      omega  full diag
   1  -5198.6390986 -0.519864E+04  0.179E-04    4.18       0.0  T
   2  -5198.6390986 -0.882210E-09  0.107E-04    4.18      15.0  T
   3  -5198.6390986  0.194268E-08  0.204E-05    4.18      78.8  T
     SCC iter.                  ...       10 min,  8.803 sec
     gradient                   ...        5 min, 40.581 sec
 * total energy  : -5104.0837446 Eh     change    :  -0.7623050E-05 Eh
   gradient norm :     0.0017531 Eh/a0  converged?    E=F G=F D=F
   time step     :     0.3025000 fs     power     :   0.3273832E-09
   step length   :     0.0056786 a0     speed     :   0.4540782E-03

........................................................................
.............................. CYCLE   50 ..............................
........................................................................

 iter      E             dE          RMSdq      gap      omega  full diag
   1  -5198.6391637 -0.519864E+04  0.178E-04    4.18       0.0  T
   2  -5198.6391637 -0.915861E-09  0.105E-04    4.18      15.3  T
   3  -5198.6391637  0.999535E-09  0.184E-05    4.18      87.4  T
     SCC iter.                  ...       10 min,  3.856 sec
     gradient                   ...        5 min, 48.396 sec
 * total energy  : -5104.0837532 Eh     change    :  -0.8637409E-05 Eh
   gradient norm :     0.0017526 Eh/a0  converged?    E=F G=F D=F
   time step     :     0.3327500 fs     power     :   0.3404277E-09
   step length   :     0.0062518 a0     speed     :   0.4544653E-03

........................................................................
.............................. CYCLE   51 ..............................
........................................................................

 iter      E             dE          RMSdq      gap      omega  full diag
   1  -5198.6392012 -0.519864E+04  0.185E-04    4.18       0.0  T
   2  -5198.6392012 -0.104956E-08  0.110E-04    4.18      14.6  T
   3  -5198.6392012  0.181626E-08  0.225E-05    4.18      71.5  T
     SCC iter.                  ...       10 min,  5.447 sec
     gradient                   ...        5 min, 47.152 sec
 * total energy  : -5104.0837631 Eh     change    :  -0.9884809E-05 Eh
   gradient norm :     0.0016938 Eh/a0  converged?    E=F G=F D=F
   time step     :     0.3660250 fs     power     :   0.3521046E-09
   step length   :     0.0069235 a0     speed     :   0.4575388E-03

........................................................................
.............................. CYCLE   52 ..............................
........................................................................

 iter      E             dE          RMSdq      gap      omega  full diag
   1  -5198.6391745 -0.519864E+04  0.204E-04    4.18       0.0  T
   2  -5198.6391745 -0.129148E-08  0.123E-04    4.18      13.1  T
   3  -5198.6391745  0.449290E-08  0.301E-05    4.18      53.4  T
     SCC iter.                  ...       10 min,  0.600 sec
     gradient                   ...        5 min, 38.243 sec
 * total energy  : -5104.0837741 Eh     change    :  -0.1104025E-04 Eh
   gradient norm :     0.0016016 Eh/a0  converged?    E=F G=F D=F
   time step     :     0.4026275 fs     power     :   0.3577535E-09
   step length   :     0.0077233 a0     speed     :   0.4639943E-03

........................................................................
.............................. CYCLE   53 ..............................
........................................................................

 iter      E             dE          RMSdq      gap      omega  full diag
   1  -5198.6390289 -0.519864E+04  0.233E-04    4.18       0.0  T
   2  -5198.6390289 -0.207547E-08  0.142E-04    4.18      11.3  T
   3  -5198.6390289  0.909949E-08  0.410E-05    4.18      39.2  T
     SCC iter.                  ...       10 min,  0.566 sec
     gradient                   ...        5 min, 38.935 sec
 * total energy  : -5104.0837864 Eh     change    :  -0.1224215E-04 Eh
   gradient norm :     0.0015160 Eh/a0  converged?    E=F G=F D=F
   time step     :     0.4428903 fs     power     :   0.3556731E-09
   step length   :     0.0086713 a0     speed     :   0.4735894E-03

........................................................................
.............................. CYCLE   54 ..............................
........................................................................

 iter      E             dE          RMSdq      gap      omega  full diag
   1  -5198.6387206 -0.519864E+04  0.260E-04    4.18       0.0  T
   2  -5198.6387206 -0.275759E-08  0.158E-04    4.18      10.2  T
   3  -5198.6387206  0.100763E-07  0.451E-05    4.18      35.7  T
     SCC iter.                  ...       10 min,  2.730 sec
     gradient                   ...        5 min, 42.569 sec
 * total energy  : -5104.0837997 Eh     change    :  -0.1331191E-04 Eh
   gradient norm :     0.0015419 Eh/a0  converged?    E=F G=F D=F
   time step     :     0.4871793 fs     power     :   0.3512934E-09
   step length   :     0.0097704 a0     speed     :   0.4851074E-03

........................................................................
.............................. CYCLE   55 ..............................
........................................................................

 iter      E             dE          RMSdq      gap      omega  full diag
   1  -5198.6382810 -0.519864E+04  0.277E-04    4.18       0.0  T
   2  -5198.6382810 -0.196906E-08  0.166E-04    4.18       9.7  T
   3  -5198.6382810  0.466480E-08  0.327E-05    4.18      49.2  T
     SCC iter.                  ...       10 min,  0.683 sec
     gradient                   ...        5 min, 36.681 sec
 * total energy  : -5104.0838144 Eh     change    :  -0.1476947E-04 Eh
   gradient norm :     0.0016216 Eh/a0  converged?    E=F G=F D=F
   time step     :     0.5358972 fs     power     :   0.3581270E-09
   step length   :     0.0109832 a0     speed     :   0.4957489E-03

........................................................................
.............................. CYCLE   56 ..............................
........................................................................

 iter      E             dE          RMSdq      gap      omega  full diag
   1  -5198.6378477 -0.519864E+04  0.295E-04    4.18       0.0  T
   2  -5198.6378477 -0.157888E-08  0.174E-04    4.18       9.2  T
   3  -5198.6378477  0.274758E-08  0.276E-05    4.18      58.3  T
     SCC iter.                  ...       10 min,  0.952 sec
     gradient                   ...        5 min, 35.427 sec
 * total energy  : -5104.0838313 Eh     change    :  -0.1689382E-04 Eh
   gradient norm :     0.0015929 Eh/a0  converged?    E=F G=F D=F
   time step     :     0.5894869 fs     power     :   0.3738728E-09
   step length   :     0.0123383 a0     speed     :   0.5062881E-03

........................................................................
.............................. CYCLE   57 ..............................
........................................................................

 iter      E             dE          RMSdq      gap      omega  full diag
   1  -5198.6376412 -0.519864E+04  0.328E-04    4.18       0.0  T
   2  -5198.6376412 -0.262389E-08  0.195E-04    4.18       8.2  T
   3  -5198.6376412  0.103519E-07  0.459E-05    4.18      35.1  T
     SCC iter.                  ...       10 min,  1.457 sec
     gradient                   ...        5 min, 48.007 sec
 * total energy  : -5104.0838506 Eh     change    :  -0.1922639E-04 Eh
   gradient norm :     0.0015348 Eh/a0  converged?    E=F G=F D=F
   time step     :     0.6484356 fs     power     :   0.3852569E-09
   step length   :     0.0139466 a0     speed     :   0.5202552E-03

........................................................................
.............................. CYCLE   58 ..............................
........................................................................

 iter      E             dE          RMSdq      gap      omega  full diag
   1  -5198.6378667 -0.519864E+04  0.372E-04    4.18       0.0  T
   2  -5198.6378667 -0.323416E-08  0.224E-04    4.18       7.2  T
   3  -5198.6378667  0.192913E-07  0.588E-05    4.18      27.4  T
     SCC iter.                  ...       10 min,  0.568 sec
     gradient                   ...        5 min, 38.815 sec
 * total energy  : -5104.0838721 Eh     change    :  -0.2152884E-04 Eh
   gradient norm :     0.0014885 Eh/a0  converged?    E=F G=F D=F
   time step     :     0.7132792 fs     power     :   0.3925928E-09
   step length   :     0.0158501 a0     speed     :   0.5375115E-03

........................................................................
.............................. CYCLE   59 ..............................
........................................................................

 iter      E             dE          RMSdq      gap      omega  full diag
   1  -5198.6385224 -0.519864E+04  0.412E-04    4.18       0.0  T
   2  -5198.6385224 -0.370983E-08  0.245E-04    4.18       6.6  T
   3  -5198.6385223  0.106920E-07  0.486E-05    4.18      33.1  T
     SCC iter.                  ...       10 min,  1.263 sec
     gradient                   ...        5 min, 43.917 sec
 * total energy  : -5104.0838963 Eh     change    :  -0.2415952E-04 Eh
   gradient norm :     0.0015535 Eh/a0  converged?    E=F G=F D=F
   time step     :     0.7846071 fs     power     :   0.4002579E-09
   step length   :     0.0180713 a0     speed     :   0.5571245E-03

........................................................................
.............................. CYCLE   60 ..............................
........................................................................

 iter      E             dE          RMSdq      gap      omega  full diag
   1  -5198.6393114 -0.519864E+04  0.442E-04    4.18       0.0  T
   2  -5198.6393114 -0.298132E-08  0.261E-04    4.18       6.2  T
   3  -5198.6393114  0.115033E-07  0.485E-05    4.18      33.2  T
     SCC iter.                  ...       10 min,  0.632 sec
     gradient                   ...        5 min, 37.607 sec
 * total energy  : -5104.0839241 Eh     change    :  -0.2782500E-04 Eh
   gradient norm :     0.0015202 Eh/a0  converged?    E=F G=F D=F
   time step     :     0.8630678 fs     power     :   0.4218843E-09
   step length   :     0.0205735 a0     speed     :   0.5766058E-03

........................................................................
.............................. CYCLE   61 ..............................
........................................................................

 iter      E             dE          RMSdq      gap      omega  full diag
   1  -5198.6398892 -0.519864E+04  0.509E-04    4.18       0.0  T
   2  -5198.6398892 -0.600176E-08  0.302E-04    4.18       5.3  T
   3  -5198.6398891  0.236678E-07  0.693E-05    4.18      23.2  T
     SCC iter.                  ...       10 min,  0.614 sec
     gradient                   ...        5 min, 41.041 sec
 * total energy  : -5104.0839558 Eh     change    :  -0.3172582E-04 Eh
   gradient norm :     0.0014801 Eh/a0  converged?    E=F G=F D=F
   time step     :     0.9493746 fs     power     :   0.4328158E-09
   step length   :     0.0235667 a0     speed     :   0.6004497E-03

........................................................................
.............................. CYCLE   62 ..............................
........................................................................

 iter      E             dE          RMSdq      gap      omega  full diag
   1  -5198.6401141 -0.519864E+04  0.564E-04    4.18       0.0  T
   2  -5198.6401141 -0.647287E-08  0.334E-04    4.18       4.8  T
   3  -5198.6401141  0.174468E-07  0.624E-05    4.18      25.8  T
     SCC iter.                  ...       10 min,  3.036 sec
     gradient                   ...        5 min, 41.036 sec
 * total energy  : -5104.0839917 Eh     change    :  -0.3591332E-04 Eh
   gradient norm :     0.0015202 Eh/a0  converged?    E=F G=F D=F
   time step     :     1.0443120 fs     power     :   0.4471738E-09
   step length   :     0.0270697 a0     speed     :   0.6270021E-03

........................................................................
.............................. CYCLE   63 ..............................
........................................................................

 iter      E             dE          RMSdq      gap      omega  full diag
   1  -5198.6400245 -0.519864E+04  0.625E-04    4.18       0.0  T
   2  -5198.6400245 -0.651653E-08  0.369E-04    4.18       4.4  T
   3  -5198.6400244  0.269238E-07  0.740E-05    4.18      21.7  T
     SCC iter.                  ...       10 min,  5.614 sec
     gradient                   ...        5 min, 38.986 sec
 * total energy  : -5104.0840332 Eh     change    :  -0.4153034E-04 Eh
   gradient norm :     0.0014640 Eh/a0  converged?    E=F G=F D=F
   time step     :     1.1487432 fs     power     :   0.4735415E-09
   step length   :     0.0310997 a0     speed     :   0.6548600E-03

........................................................................
.............................. CYCLE   64 ..............................
........................................................................

 iter      E             dE          RMSdq      gap      omega  full diag
   1  -5198.6398416 -0.519864E+04  0.727E-04    4.18       0.0  T
   2  -5198.6398416 -0.110758E-07  0.434E-04    4.18       3.7  T
   3  -5198.6398415  0.654591E-07  0.109E-04    4.18      14.7  T
     SCC iter.                  ...        9 min, 59.890 sec
     gradient                   ...        5 min, 41.883 sec
 * total energy  : -5104.0840801 Eh     change    :  -0.4689074E-04 Eh
   gradient norm :     0.0015097 Eh/a0  converged?    E=F G=F D=F
   time step     :     1.2500000 fs     power     :   0.4844903E-09
   step length   :     0.0355524 a0     speed     :   0.6879765E-03

........................................................................
.............................. CYCLE   65 ..............................
........................................................................

 iter      E             dE          RMSdq      gap      omega  full diag
   1  -5198.6403025 -0.519864E+04  0.753E-04    4.18       0.0  T
   2  -5198.6403025 -0.135669E-07  0.444E-04    4.18       3.6  T
   3  -5198.6403025  0.317523E-07  0.949E-05    4.18      17.0  T
     SCC iter.                  ...       10 min,  0.770 sec
     gradient                   ...        5 min, 43.697 sec
 * total energy  : -5104.0841287 Eh     change    :  -0.4853373E-04 Eh
   gradient norm :     0.0016664 Eh/a0  converged?    E=F G=F D=F
   time step     :     1.2500000 fs     power     :   0.4997149E-09
   step length   :     0.0370859 a0     speed     :   0.7176514E-03

........................................................................
.............................. CYCLE   66 ..............................
........................................................................

 iter      E             dE          RMSdq      gap      omega  full diag
   1  -5198.6410203 -0.519864E+04  0.800E-04    4.18       0.0  T
   2  -5198.6410203 -0.249202E-07  0.473E-04    4.18       3.4  T
   3  -5198.6410202  0.570526E-07  0.126E-04    4.18      12.8  T
     SCC iter.                  ...       10 min,  0.700 sec
     gradient                   ...        5 min, 40.595 sec
 * total energy  : -5104.0841784 Eh     change    :  -0.4974592E-04 Eh
   gradient norm :     0.0018421 Eh/a0  converged?    E=F G=F D=F
   time step     :     1.2500000 fs     power     :   0.4992916E-09
   step length   :     0.0383760 a0     speed     :   0.7426159E-03

........................................................................
.............................. CYCLE   67 ..............................
........................................................................

 iter      E             dE          RMSdq      gap      omega  full diag
   1  -5198.6413351 -0.519864E+04  0.824E-04    4.18       0.0  T
   2  -5198.6413352 -0.367463E-07  0.485E-04    4.18       3.3  T
   3  -5198.6413351  0.541131E-07  0.144E-04    4.18      11.2  T
     SCC iter.                  ...       10 min,  4.429 sec
     gradient                   ...        5 min, 39.803 sec
 * total energy  : -5104.0842287 Eh     change    :  -0.5026346E-04 Eh
   gradient norm :     0.0020470 Eh/a0  converged?    E=F G=F D=F
   time step     :     1.2500000 fs     power     :   0.4933731E-09
   step length   :     0.0393551 a0     speed     :   0.7615628E-03
 * RMSD in coord.:     0.0063259 a0     energy gain  -0.5335009E-03 Eh

........................................................................
.............................. CYCLE   68 ..............................
........................................................................

 iter      E             dE          RMSdq      gap      omega  full diag
   1  -5198.6413814 -0.519864E+04  0.152E-04    4.18       0.0  T
   2  -5198.6413814 -0.521140E-09  0.890E-05    4.18      18.1  T
   3  -5198.6413814  0.310138E-08  0.266E-05    4.18      60.5  T
     SCC iter.                  ...       10 min,  0.711 sec
     gradient                   ...        5 min, 36.135 sec
 * total energy  : -5104.0842389 Eh     change    :  -0.1022593E-04 Eh
   gradient norm :     0.0018561 Eh/a0  converged?    E=F G=F D=F
   time step     :     0.2500000 fs     power     :   0.5376281E-09
   step length   :     0.0076432 a0     speed     :   0.7395209E-03

........................................................................
.............................. CYCLE   69 ..............................
........................................................................

 iter      E             dE          RMSdq      gap      omega  full diag
   1  -5198.6414256 -0.519864E+04  0.174E-04    4.18       0.0  T
   2  -5198.6414256 -0.452565E-08  0.104E-04    4.18      15.5  T
   3  -5198.6414256  0.319505E-08  0.443E-05    4.18      36.3  T
     SCC iter.                  ...       10 min,  1.738 sec
     gradient                   ...        5 min, 43.188 sec
 * total energy  : -5104.0842493 Eh     change    :  -0.1040471E-04 Eh
   gradient norm :     0.0013995 Eh/a0  converged?    E=F G=F D=F
   time step     :     0.2500000 fs     power     :   0.5284717E-09
   step length   :     0.0075271 a0     speed     :   0.7282902E-03

........................................................................
.............................. CYCLE   70 ..............................
........................................................................

 iter      E             dE          RMSdq      gap      omega  full diag
   1  -5198.6414711 -0.519864E+04  0.185E-04    4.18       0.0  T
   2  -5198.6414711 -0.530054E-08  0.110E-04    4.18      14.6  T
   3  -5198.6414711  0.276032E-08  0.461E-05    4.18      34.9  T
     SCC iter.                  ...       10 min,  0.044 sec
     gradient                   ...        5 min, 41.288 sec
 * total energy  : -5104.0842589 Eh     change    :  -0.9603551E-05 Eh
   gradient norm :     0.0015144 Eh/a0  converged?    E=F G=F D=F
   time step     :     0.2500000 fs     power     :   0.4829495E-09
   step length   :     0.0075683 a0     speed     :   0.7322723E-03

........................................................................
.............................. CYCLE   71 ..............................
........................................................................

 iter      E             dE          RMSdq      gap      omega  full diag
   1  -5198.6415204 -0.519864E+04  0.162E-04    4.18       0.0  T
   2  -5198.6415204 -0.136424E-08  0.971E-05    4.18      16.6  T
[...]
  3617   6 C     3618   6 C                                       1.3898689
  3618   6 C     3619   6 C                                       1.3842648
  3619   6 C     3620   6 C                                       1.3837291
  3620   6 C     3621   6 C                                       1.3836238
  3617   6 C     3622   6 C                                       1.3903926
  3621   6 C     3622   6 C                                       1.3827937
  3616   6 C     3623   6 C                                       1.5382643
  3623   6 C     3624   6 C                                       1.5399433
  3625   6 C     3626   6 C                                       1.3898015
  3626   6 C     3627   6 C                                       1.3831495
  3627   6 C     3628   6 C                                       1.3837063
  3628   6 C     3629   6 C                                       1.3838695
  3625   6 C     3630   6 C                                       1.3901103
  3629   6 C     3630   6 C                                       1.3845906
  3624   6 C     3631   6 C                                       1.5359172
  3631   6 C     3632   6 C                                       1.5393353
  3633   6 C     3634   6 C                                       1.3885899
  3634   6 C     3635   6 C                                       1.3822760
  3635   6 C     3636   6 C                                       1.3829746
  3636   6 C     3637   6 C                                       1.3837987
  3633   6 C     3638   6 C                                       1.3904761
  3637   6 C     3638   6 C                                       1.3834284
  3632   6 C     3639   6 C                                       1.5388252
  3639   6 C     3640   6 C                                       1.5345403
  3641   6 C     3642   6 C                                       1.3904498
  3642   6 C     3643   6 C                                       1.3825352
  3643   6 C     3644   6 C                                       1.3840748
  3644   6 C     3645   6 C                                       1.3838636
  3641   6 C     3646   6 C                                       1.3883315
  3645   6 C     3646   6 C                                       1.3831279
  3640   6 C     3647   6 C                                       1.5402837
  3647   6 C     3648   6 C                                       1.5346461
  3649   6 C     3650   6 C                                       1.3916035
  3650   6 C     3651   6 C                                       1.3829041
  3651   6 C     3652   6 C                                       1.3841413
  3652   6 C     3653   6 C                                       1.3844045
  3649   6 C     3654   6 C                                       1.3901815
  3653   6 C     3654   6 C                                       1.3848468
  3655   6 C     3656   6 C                                       1.5385017
  3657   6 C     3658   6 C                                       1.3891477
  3658   6 C     3659   6 C                                       1.3832546
  3659   6 C     3660   6 C                                       1.3834965
  3660   6 C     3661   6 C                                       1.3843123
  3657   6 C     3662   6 C                                       1.3907321
  3661   6 C     3662   6 C                                       1.3843192
  3656   6 C     3663   6 C                                       1.5332510
  3663   6 C     3664   6 C                                       1.5376302
  3665   6 C     3666   6 C                                       1.3887668
  3666   6 C     3667   6 C                                       1.3831922
  3667   6 C     3668   6 C                                       1.3828452
  3668   6 C     3669   6 C                                       1.3834503
  3665   6 C     3670   6 C                                       1.3898383
  3669   6 C     3670   6 C                                       1.3818404
  3664   6 C     3671   6 C                                       1.5364457
  3671   6 C     3672   6 C                                       1.5338563
  3673   6 C     3674   6 C                                       1.3901174
  3674   6 C     3675   6 C                                       1.3829933
  3675   6 C     3676   6 C                                       1.3843597
  3676   6 C     3677   6 C                                       1.3837696
  3673   6 C     3678   6 C                                       1.3898064
  3677   6 C     3678   6 C                                       1.3838911
  3672   6 C     3679   6 C                                       1.5372204
  3679   6 C     3680   6 C                                       1.5385739
  3681   6 C     3682   6 C                                       1.3915483
  3682   6 C     3683   6 C                                       1.3830818
  3683   6 C     3684   6 C                                       1.3844471
  3684   6 C     3685   6 C                                       1.3840793
  3681   6 C     3686   6 C                                       1.3895204
  3685   6 C     3686   6 C                                       1.3845559
  3680   6 C     3687   6 C                                       1.5350227
  3687   6 C     3688   6 C                                       1.5376941
  3549   6 C     3689   1 H                                       1.0956580
  3551   6 C     3690   1 H                                       1.0916950
  3551   6 C     3691   1 H                                       1.0905610
  3552   6 C     3692   1 H                                       1.0944745
  3559   6 C     3693   1 H                                       1.0925844
  3559   6 C     3694   1 H                                       1.0930825
  3560   6 C     3695   1 H                                       1.0949056
  3567   6 C     3696   1 H                                       1.0907302
  3567   6 C     3697   1 H                                       1.0911448
  3568   6 C     3698   1 H                                       1.0956546
  3575   6 C     3699   1 H                                       1.0914461
  3576   6 C     3700   1 H                                       1.0949485
  3583   6 C     3701   1 H                                       1.0928652
  3583   6 C     3702   1 H                                       1.0927027
  3584   6 C     3703   1 H                                       1.0958279
  3591   6 C     3704   1 H                                       1.0924132
  3591   6 C     3705   1 H                                       1.0916404
  3592   6 C     3706   1 H                                       1.0953617
  3599   6 C     3707   1 H                                       1.0925556
  3599   6 C     3708   1 H                                       1.0923442
  3600   6 C     3709   1 H                                       1.0933531
  3608   6 C     3710   1 H                                       1.0960366
  3615   6 C     3711   1 H                                       1.0918581
  3615   6 C     3712   1 H                                       1.0921718
  3616   6 C     3713   1 H                                       1.0936385
  3623   6 C     3714   1 H                                       1.0934407
  3623   6 C     3715   1 H                                       1.0923845
  3624   6 C     3716   1 H                                       1.0957132
  3631   6 C     3717   1 H                                       1.0925825
  3631   6 C     3718   1 H                                       1.0922250
  3632   6 C     3719   1 H                                       1.0956086
  3639   6 C     3720   1 H                                       1.0919087
  3639   6 C     3721   1 H                                       1.0919674
  3640   6 C     3722   1 H                                       1.0927228
  3647   6 C     3723   1 H                                       1.0895946
  3647   6 C     3724   1 H                                       1.0942276
  3648   6 C     3725   1 H                                       1.0950034
  3655   6 C     3726   1 H                                       1.0953471
  3655   6 C     3727   1 H                                       1.0916582
  3656   6 C     3728   1 H                                       1.0945953
  3663   6 C     3729   1 H                                       1.0911182
  3663   6 C     3730   1 H                                       1.0879890
  3664   6 C     3731   1 H                                       1.0954864
  3671   6 C     3732   1 H                                       1.0913719
  3671   6 C     3733   1 H                                       1.0916381
  3672   6 C     3734   1 H                                       1.0942397
  3679   6 C     3735   1 H                                       1.0923889
  3679   6 C     3736   1 H                                       1.0928005
  3543   6 C     3737   1 H                                       1.0810175
  3548   6 C     3738   1 H                                       1.0802843
  3547   6 C     3739   1 H                                       1.0803200
  3546   6 C     3740   1 H                                       1.0812830
  3545   6 C     3741   1 H                                       1.0804385
  3554   6 C     3742   1 H                                       1.0800920
  3555   6 C     3743   1 H                                       1.0804009
  3556   6 C     3744   1 H                                       1.0804249
  3557   6 C     3745   1 H                                       1.0807741
  3558   6 C     3746   1 H                                       1.0805297
  3562   6 C     3747   1 H                                       1.0799613
  3563   6 C     3748   1 H                                       1.0808375
  3564   6 C     3749   1 H                                       1.0796467
  3565   6 C     3750   1 H                                       1.0803573
  3566   6 C     3751   1 H                                       1.0814104
  3570   6 C     3752   1 H                                       1.0807780
  3571   6 C     3753   1 H                                       1.0809974
  3572   6 C     3754   1 H                                       1.0800291
  3573   6 C     3755   1 H                                       1.0807396
  3574   6 C     3756   1 H                                       1.0800034
  3575   6 C     3757   1 H                                       1.0926370
  3578   6 C     3758   1 H                                       1.0815100
  3579   6 C     3759   1 H                                       1.0797569
  3580   6 C     3760   1 H                                       1.0798546
  3581   6 C     3761   1 H                                       1.0808310
  3582   6 C     3762   1 H                                       1.0808296
  3586   6 C     3763   1 H                                       1.0813264
  3587   6 C     3764   1 H                                       1.0790647
  3588   6 C     3765   1 H                                       1.0811888
  3589   6 C     3766   1 H                                       1.0806951
  3590   6 C     3767   1 H                                       1.0797057
  3594   6 C     3768   1 H                                       1.0804656
  3595   6 C     3769   1 H                                       1.0806463
  3596   6 C     3770   1 H                                       1.0795293
  3597   6 C     3771   1 H                                       1.0792620
  3598   6 C     3772   1 H                                       1.0816460
  3602   6 C     3773   1 H                                       1.0801919
  3603   6 C     3774   1 H                                       1.0810194
  3604   6 C     3775   1 H                                       1.0788882
  3605   6 C     3776   1 H                                       1.0807033
  3606   6 C     3777   1 H                                       1.0787414
  3607   6 C     3778   1 H                                       1.0903972
  3607   6 C     3779   1 H                                       1.0922442
  3610   6 C     3780   1 H                                       1.0815193
  3611   6 C     3781   1 H                                       1.0814957
  3612   6 C     3782   1 H                                       1.0790237
  3613   6 C     3783   1 H                                       1.0806614
  3614   6 C     3784   1 H                                       1.0795383
  3618   6 C     3785   1 H                                       1.0805485
  3619   6 C     3786   1 H                                       1.0815982
  3620   6 C     3787   1 H                                       1.0801538
  3621   6 C     3788   1 H                                       1.0788888
  3622   6 C     3789   1 H                                       1.0799906
  3626   6 C     3790   1 H                                       1.0802463
  3627   6 C     3791   1 H                                       1.0804169
  3628   6 C     3792   1 H                                       1.0800401
  3629   6 C     3793   1 H                                       1.0802126
  3630   6 C     3794   1 H                                       1.0810211
  3634   6 C     3795   1 H                                       1.0810393
  3635   6 C     3796   1 H                                       1.0793500
  3636   6 C     3797   1 H                                       1.0793014
  3637   6 C     3798   1 H                                       1.0808113
  3638   6 C     3799   1 H                                       1.0810791
  3642   6 C     3800   1 H                                       1.0805565
  3643   6 C     3801   1 H                                       1.0809701
  3644   6 C     3802   1 H                                       1.0807271
  3645   6 C     3803   1 H                                       1.0798738
  3646   6 C     3804   1 H                                       1.0795886
  3650   6 C     3805   1 H                                       1.0809724
  3651   6 C     3806   1 H                                       1.0805838
  3652   6 C     3807   1 H                                       1.0805244
  3653   6 C     3808   1 H                                       1.0810976
  3654   6 C     3809   1 H                                       1.0783162
  3658   6 C     3810   1 H                                       1.0802196
  3659   6 C     3811   1 H                                       1.0803160
  3660   6 C     3812   1 H                                       1.0800886
  3661   6 C     3813   1 H                                       1.0811065
  3662   6 C     3814   1 H                                       1.0808334
  3666   6 C     3815   1 H                                       1.0811841
  3667   6 C     3816   1 H                                       1.0807074
  3668   6 C     3817   1 H                                       1.0792076
  3669   6 C     3818   1 H                                       1.0792863
  3670   6 C     3819   1 H                                       1.0809744
  3674   6 C     3820   1 H                                       1.0804116
  3675   6 C     3821   1 H                                       1.0811027
  3676   6 C     3822   1 H                                       1.0786203
  3677   6 C     3823   1 H                                       1.0801558
  3678   6 C     3824   1 H                                       1.0813891
  3686   6 C     3825   1 H                                       1.0817266
  3685   6 C     3826   1 H                                       1.0813503
  3684   6 C     3827   1 H                                       1.0798174
  3683   6 C     3828   1 H                                       1.0806549
  3682   6 C     3829   1 H                                       1.0806178
  3550   6 C     3830   1 H                                       1.0877829
  3550   6 C     3831   1 H                                       1.0876761
  3550   6 C     3832   1 H                                       1.0879585
  3680   6 C     3833   1 H                                       1.0952087
  3687   6 C     3834   1 H                                       1.0908907
  3687   6 C     3835   1 H                                       1.0921489
  3688   6 C     3836   6 C                                       1.5399506
  3837   6 C     3838   6 C                                       1.3879082
  3838   6 C     3839   6 C                                       1.3828455
  3839   6 C     3840   6 C                                       1.3825007
  3840   6 C     3841   6 C                                       1.3838784
  3837   6 C     3842   6 C                                       1.3900697
  3841   6 C     3842   6 C                                       1.3827335
  3838   6 C     3843   1 H                                       1.0810551
  3839   6 C     3844   1 H                                       1.0794770
  3840   6 C     3845   1 H                                       1.0776769
  3841   6 C     3846   1 H                                       1.0811486
  3842   6 C     3847   1 H                                       1.0807248
  3836   6 C     3848   6 C                                       1.5361011
  3836   6 C     3849   1 H                                       1.0925840
  3836   6 C     3850   1 H                                       1.0921669
  3851   6 C     3852   6 C                                       1.3904302
  3852   6 C     3853   6 C                                       1.3817979
  3853   6 C     3854   6 C                                       1.3847798
  3854   6 C     3855   6 C                                       1.3830555
  3851   6 C     3856   6 C                                       1.3881566
  3855   6 C     3856   6 C                                       1.3844083
  3852   6 C     3857   1 H                                       1.0822016
  3853   6 C     3858   1 H                                       1.0804931
  3854   6 C     3859   1 H                                       1.0801087
  3855   6 C     3860   1 H                                       1.0799005
  3856   6 C     3861   1 H                                       1.0814819
  3688   6 C     3862   1 H                                       1.0933414
  3848   6 C     3863   1 H                                       1.0925266
  3848   6 C     3864   1 H                                       1.0912692

 * 2 distinct bonds (by element types)

   Z      Z             #   av. dist./Å        max./Å        min./Å
   1 H    6 C        1944     1.0851026     1.0977651     1.0761536
   6 C    6 C        1861     1.4196156     1.5406520     1.3808441


optimized geometry written to: xtbopt.xyz


           -------------------------------------------------
          | TOTAL ENERGY            -5104.091122892782 Eh   |
          | GRADIENT NORM               0.000798981322 Eh/α |
          | HOMO-LUMO GAP               4.176884860018 eV   |
           -------------------------------------------------

------------------------------------------------------------------------
 * finished run on 2024/10/09 at 02:55:13.529     
------------------------------------------------------------------------
 total:
 * wall-time:     4 d,  6 h,  7 min, 56.278 sec
 *  cpu-time:    25 d, 21 h, 51 min, 49.324 sec
 * ratio c/w:     6.089 speedup
 SCF:
 * wall-time:     0 d,  0 h, 47 min, 29.505 sec
 *  cpu-time:     0 d,  5 h, 33 min, 45.736 sec
 * ratio c/w:     7.028 speedup
 ANC optimizer:
 * wall-time:     4 d,  5 h, 19 min, 15.314 sec
 *  cpu-time:    25 d, 16 h, 16 min, 31.136 sec
 * ratio c/w:     6.082 speedup

