3864
 energy: -5104.091122892782 gnorm: 0.000798981322 xtb: 6.6.1 (8d0f1dd)
C           70.23111520662466       39.23843439518514       51.90864137407826
C           70.94902236105531       40.28408425781389       52.47839669778291
C           70.40102228443676       40.94817495336330       53.56768827003536
C           69.14902170552341       40.60725125400836       54.05010953554027
C           68.42880116059744       39.58879452289012       53.45208725093632
C           68.98227425891815       38.89333263892206       52.39074979164757
C           72.27466731922432       40.71715672970602       51.90502748795750
C           73.30673490505893       39.59085543307857       51.98551498527220
C           72.09960173475274       41.18366933872928       50.45133520530699
C           71.03422573291932       42.28008964910823       50.32125096169756
C           71.35191352293882       43.46401186753236       51.20469170789500
C           70.43598866583498       43.88907756803251       52.15898527067048
C           70.70570552439983       44.97190268281082       52.97701658407546
C           71.90653393378338       45.64713155500578       52.85530073919999
C           72.83242752546724       45.22746613355098       51.91670588295276
C           72.55466590354077       44.15032957751063       51.09499960604501
C           70.86387707557991       42.76710060965269       48.87298222847967
C           70.42589167593158       41.70002337387889       47.85195598063663
C           70.43843262519741       42.33119077281703       46.47935684164698
C           69.44897414643850       43.21696177244693       46.06934718978485
C           69.49722106287176       43.81495214557597       44.82351285376330
C           70.53853121243449       43.53059375029097       43.95767604752142
C           71.53150274910104       42.65040687219330       44.35075957776278
C           71.48126488159980       42.06088657798348       45.60167743238481
C           69.06464681440460       41.08012226147680       48.18500108483013
C           68.67485980666591       39.96373906144630       47.20274086960411
C           69.65839415832757       38.82722834352702       47.31426691286595
C           69.70047672352200       38.02901247222977       48.45173811117665
C           70.62864601930804       37.01016718013533       48.56776536799056
C           71.53221959430253       36.77215392714785       47.54597573859325
C           71.49459220462539       37.55532532861874       46.40541041783908
C           70.56334460701716       38.57280978471673       46.29176418751569
C           67.23954396618015       39.48917647493579       47.48104555435507
C           66.17054065770681       40.40471946965709       46.84973295571261
C           65.05970143250416       40.68208411247421       47.83231450209625
C           64.28847081479523       39.65071580816327       48.35659200024497
C           63.27440795718134       39.91156812519048       49.26044292316409
C           63.00902201947098       41.21372000124192       49.64911131211522
C           63.77277812241866       42.24926347641599       49.14064357277637
C           64.79140382701868       41.98201365192213       48.24219920126282
C           65.61105549329869       39.78784347955420       45.55949780647593
C           64.62189898278091       40.73034809404313       44.86068244582180
C           65.34150424867917       41.87573047174487       44.19270067273886
C           66.18079388538595       41.66308039671418       43.10512592361949
C           66.79779599707319       42.72458491167954       42.46894310643146
C           66.59396243451566       44.01904398622150       42.91452564183818
C           65.77884421537989       44.24097209279628       44.01028403380590
C           65.15435101316316       43.17779089773263       44.63695525053419
C           63.75135138804206       39.99965737555793       43.82541896906479
C           62.60753918792074       39.15687546256854       44.41683963325909
C           61.98314026581847       38.34867880044991       43.30461880452539
C           61.99654380715925       36.96001370218482       43.34061908698713
C           61.44603660993126       36.21379979417063       42.31284311918559
C           60.87132702946764       36.84730119841618       41.22526597647027
C           60.85387908034179       38.23042059636686       41.17862524654197
C           61.39984659648010       38.97443113418191       42.20803562629534
C           61.55518150176059       40.03487339823700       45.10665008094287
C           60.36020226699490       39.25473498585771       45.68718167679455
C           59.24139928202300       40.23280135352871       45.95149601566941
C           59.37588785166073       41.24206304481254       46.89802270763234
C           58.38044583807335       42.18664938981862       47.06915277830281
C           57.23015854733541       42.13737051761345       46.30094797691797
C           57.07565223512718       41.13031461732579       45.36484978484327
C           58.07759403108798       40.19144655595692       45.19240476228321
C           60.77806085311231       38.48707735246231       46.94650969140854
C           59.66888095137098       37.62437369072009       47.56818421426472
C           60.04594642719436       37.19426702844924       48.96672325695258
C           59.10096090971039       37.20821070026474       49.98544099555262
C           59.42001863199312       36.78289806532373       51.26334905554967
C           60.70534358913868       36.35838785445645       51.55298809312925
C           61.65921744968098       36.34307577765070       50.55090549394975
C           61.32669294981796       36.74349456499069       49.26889334597226
C           59.38833185590126       36.38352959169997       46.70538682654668
C           58.16247789311169       35.57586771199511       47.15565603925868
C           56.90109371111004       36.40337078396134       47.18442064296611
C           56.50610581987730       37.13413936885026       46.06878286386459
C           55.33460721136925       37.86623292290891       46.07422060620516
C           54.51792866501508       37.86530724727934       47.19161162763639
C           54.88796384414284       37.12865889528066       48.30180826259881
C           56.07163751021854       36.40927550344247       48.29898507711785
C           57.95290041904695       34.39174939334517       46.19784583385019
C           57.00047184118664       33.31758908883540       46.74994444157227
C           56.49767670144681       32.50993519522311       45.57992737645891
C           57.34245066667725       31.64750563819522       44.89035045409251
C           56.89465259868862       30.95940300879534       43.77727011334459
C           55.59505677197806       31.12846182969519       43.32979327422618
C           54.74512304644770       31.98360306213987       44.00818827549950
C           55.19557735937502       32.66501998666995       45.12491989128976
C           57.68722298738874       32.44568995262128       47.81861800733738
C           57.11854984544098       32.61927888193561       49.23953393920942
C           58.17053773251693       32.13174060942863       50.20463464474415
C           59.01841731511131       33.05325388287451       50.80914587544044
C           60.06292566944471       32.63807338087285       51.61467948499447
C           60.27385694713664       31.28749567023542       51.83598626146153
C           59.42862312150110       30.36057007085399       51.24996917437681
C           58.39050183185164       30.77951182003577       50.43689398793138
C           55.76775365195395       31.91180500831059       49.37700200493281
C           55.18450227554300       31.98683922843811       50.79666595915826
C           54.93608487153842       33.41609928893505       51.20504214272295
C           53.87735182744523       34.14666170713803       50.67838843815389
C           53.63198559427963       35.44206444834082       51.09805050065120
C           54.46744502965256       36.04551435930790       52.02217775991097
C           55.54499907383075       35.33888702812999       52.52700412191809
C           55.76689958192885       34.03116572940071       52.13354242048452
C           53.90362726676661       31.14353334720827       50.87392443496303
C           53.23987228157864       31.21530063630085       52.25350936047177
C           54.16970442843945       30.74151706211912       53.34443628770631
C           54.44356348315635       31.55903385442221       54.43258210969763
C           55.22103572972081       31.10536508716888       55.48239206992684
C           55.75925592884835       29.83183692704586       55.44976397603330
C           55.51742933402402       29.01785764288002       54.35699613339649
C           54.72237785801055       29.46640661940253       53.31818747094956
C           51.95620001787075       30.37190131233223       52.32433220504846
C           50.77546508652271       30.88582738842038       51.48201919248074
C           49.77620321488238       29.76333282818281       51.34559604194479
C           49.09086417425255       29.27267865797470       52.45018806245804
C           48.20828934003591       28.21477799629311       52.32994148707101
C           48.00760574999464       27.61621711654789       51.09758970761950
C           48.69708575910792       28.08335751634732       49.99225768734713
C           49.56832661607045       29.15155845463324       50.11561540519592
C           50.14708176998857       32.15211822323730       52.07882648509864
C           48.98032113064655       32.67980107075030       51.23140672405857
C           49.42417377320593       32.93737900088259       49.81124570442437
C           50.40298000548157       33.88416910754895       49.53106784735668
C           50.82961639379857       34.10065794052070       48.23353541780827
C           50.27903346123410       33.37790326452154       47.18836356947516
C           49.28490647147630       32.45019079179641       47.45052821029659
C           48.86206124860465       32.23707767483042       48.75141934107001
C           48.39070438920511       33.97160123516539       51.82407930742068
C           47.51051457843032       33.77595229498060       53.07828783721979
C           48.04645950255873       34.52538310989955       54.27389274480877
C           48.31451689054980       35.88795952335173       54.21069724702634
C           48.81808938206373       36.56560438010459       55.30541916642839
C           49.06093540215910       35.89007067913093       56.48921494171622
C           48.77619885481081       34.53923579508425       56.57372108891766
C           48.26876808765622       33.86641468149119       55.47566408493709
C           46.06032754073117       34.21787925354215       52.81101400140466
C           45.28216122985845       33.22039535012526       51.93551796872460
C           44.18652582619566       33.91851344678051       51.16914712110374
C           44.18097298109952       33.92196235856256       49.78064361930403
C           43.13079096229210       34.48892721681681       49.07837626555136
C           42.07239730986149       35.06223145788557       49.76062444242096
C           42.08546213481584       35.09676795677686       51.14618774332374
C           43.13452156497178       34.52924123519380       51.84333494051943
C           44.66287905890518       32.08003952746351       52.77165484428261
C           45.46955370629233       30.76598683820880       52.79838960525795
H           72.64197695800630       41.56371367314659       52.49561616865983
H           73.05776182132242       41.54912526508866       50.07746261781250
H           71.80959092768390       40.32729074297294       49.84036656737693
H           70.08204494717964       41.86342799299749       50.66419171836173
H           70.13290812736226       43.57858198064121       48.87748187164490
H           71.81085909040397       43.19098968831113       48.53014032679976
H           71.17004521223961       40.89727811000392       47.85256847958181
H           69.09986444755791       40.65556305901904       49.19014647519538
H           68.28971404089890       41.84761055034981       48.17784079676157
H           68.72174420127102       40.36089473023297       46.18256187594295
H           67.08553568422982       39.45408574751360       48.56136743247385
H           66.63542416000088       41.35990060313423       46.58256383634301
H           66.43951921711727       39.55677259948316       44.88683788075060
H           65.10660528069243       38.85115846344564       45.80215697165714
H           63.96662953538234       41.15127645217473       45.62875328384688
H           63.32246818640595       40.74382933909132       43.15048554948868
H           64.38401837631314       39.34211014246607       43.22425672073999
H           63.03052881737657       38.46641998847802       45.15230408359081
H           62.02014394724677       40.59817023685288       45.91713524904530
H           61.17824648118144       40.75097522023519       44.37488862305934
H           60.02289879324973       38.54321042306210       44.92626908888253
H           58.75206072846329       38.22293670140209       47.61956811446235
H           59.24823781979318       36.69526080738623       45.67037877306780
H           60.26390331181999       35.72923128620157       46.73832355065615
H           58.35909754712567       35.19036614642691       48.16114733258234
H           57.53918908920375       34.77169972721845       45.26134923773366
H           58.91578026287038       33.92936478255263       45.96914256573042
H           56.14480318646321       33.83215403793967       47.19852373598675
H           57.60304899464334       31.39120666381604       47.54742960113229
H           58.75288729371805       32.68557794971568       47.84894331763970
H           56.96393149397419       33.68646433518618       49.42715949768879
H           55.06441776055227       32.36451397550355       48.67415120894199
H           55.87220462257281       30.86195820439524       49.09553428718262
H           55.91549375472169       31.55951907548793       51.49224514254046
H           53.20049811463866       31.48492602807862       50.11261849888188
H           54.15366090895444       30.10661508108877       50.64149510709861
H           52.98659463493833       32.25913224872218       52.46166536858442
H           52.18938674324302       29.35462575003798       52.00012090631697
H           51.64680497630857       30.31624896053042       53.37075170296538
H           51.13797555047591       31.13175409216257       50.47919331266978
H           49.79233295079472       31.95162239294053       53.09128480049695
H           50.91547726577112       32.92385597108780       52.14929682850218
H           48.20140236870446       31.90911192768100       51.20727716590851
H           49.21625099383116       34.64429299346896       52.06211507196389
H           47.79894254658299       34.45434205307289       51.04212784535049
H           47.48875717241748       32.71659624099520       53.34299608888025
H           45.54526576330627       34.34910033812292       53.76555100818381
H           46.07508736344134       35.19214665129056       52.31474424455325
H           70.64827108771354       38.69594113215406       51.07319809467202
H           68.42838598283163       38.08298884471334       51.93916070336742
H           67.43782073033339       39.33416164706581       53.79892058897340
H           68.73795246601036       41.14424030996346       54.89291686280733
H           70.95376444084722       41.75204897058256       54.03343473176906
H           69.50403478014175       43.35532804127992       52.27148332227547
H           69.98495450736947       45.28282648732505       53.72048088492664
H           72.11710176902211       46.49136279249161       53.49416135271735
H           73.77964825666939       45.73880785347130       51.82651194026941
H           73.28890471443925       43.83957267540323       50.36639897227975
H           68.62144543832008       43.44573136053384       46.72422610819478
H           68.71664204514717       44.49999087640371       44.52686416455109
H           70.57504620183592       43.99303446204969       42.98247782197397
H           72.34909035409103       42.42194735920890       43.68214970491787
H           72.26246906378564       41.37639963714917       45.90262192867802
H           69.00158945474161       38.20638677287796       49.25558050914562
H           70.64834943195403       36.39856452501675       49.45905933417684
H           72.25974073966346       35.97918879435489       47.63770005839736
H           72.19345907067232       37.37359849048919       45.60170587125874
H           70.54020173816075       39.18395908115458       45.40006257224064
H           67.11876024056095       38.47330816735192       47.09778179212442
H           64.48946530040375       38.63039545779477       48.06491040099553
H           62.69498128035050       39.09672470523780       49.67021440800051
H           62.21196169576239       41.42075431268785       50.34559074834470
H           63.56808003643393       43.26694300841604       49.44266892359964
H           65.38927884254417       42.79211669082459       47.84606701842672
H           66.34616140741139       40.65855930074409       42.74311862230017
H           67.44051929714236       42.53921863826037       41.62044387732170
H           67.06114554723808       44.85203741125049       42.41050731749907
H           65.62364061354080       45.24504465155227       44.37466514194595
H           64.50470461314268       43.36527430643580       45.48054962426905
H           62.44561883298536       36.45390586463224       44.18451300170693
H           61.46701199979807       35.13462103934909       42.35925788048979
H           60.43644118025851       36.26687148036000       40.42496671462371
H           60.41638325609436       38.74005242423902       40.33223794677825
H           61.37216400009943       40.05285182107008       42.14786332777339
H           60.26606188358556       41.30281225935355       47.50704342774908
H           58.51004413316960       42.96006580967902       47.81107619845900
H           56.45497452568122       42.88036988527993       46.42227729929501
H           56.17726986304848       41.08554347529865       44.76519200919992
H           57.95977123392656       39.41840443518380       44.44603284888603
H           61.62093927204328       37.84560280241316       46.68743134957997
H           61.12437497432180       39.20179559937551       47.69601855775383
H           58.09925987133634       37.54971462429454       49.77024840877107
H           58.66142409632343       36.77973779319271       52.03320092258909
H           60.96582007550627       36.03507937032735       52.55057346989778
H           62.66665439596705       36.01998503673794       50.76944300402790
H           62.08221772858642       36.70375397421526       48.49895422251844
H           57.11222230238448       37.12493002284625       45.17636224210251
H           55.05567617790543       38.43264364628352       45.19997002047198
H           53.59355841708086       38.42465816744838       47.18984693097620
H           54.25571875351427       37.10348832162303       49.17638046644169
H           56.34152956797178       35.84141105823415       49.17980930728970
H           58.36156477514017       31.51569636357172       45.22471481109701
H           57.56398372050570       30.29267115946590       43.25219241648052
H           55.24828583236378       30.59486421709629       42.45692220336994
H           53.72964436661814       32.12549496945058       43.66755520133012
H           54.52497051127448       33.33061784323873       45.64897002334451
H           58.86680663079321       34.11102217879034       50.64139912952442
H           60.71427618856809       33.37138784792801       52.06734783087109
H           61.09108891058663       30.95975997744548       52.46206507679666
H           59.58278680001444       29.30508117843258       51.42176352149754
H           57.75145374143895       30.04120094980643       49.97654304155014
H           53.22670993231758       33.69856568821218       49.94220986038174
H           52.78124649655870       35.98017561798805       50.70202929252711
H           54.28977234260117       37.06379776720986       52.33976460860832
H           56.20724165254470       35.80819853164493       53.23866383840510
H           56.59514495597383       33.47416845665604       52.54909761738467
H           54.03311880727987       32.55786430491182       54.46539409578803
H           55.40126184764705       31.74642885096103       56.33104289532609
H           56.36541482501414       29.47895351467449       56.27034342473106
H           55.93925936788632       28.02364510922269       54.31908705764665
H           54.52657142668031       28.80953420956252       52.48302167249729
H           49.26152287816205       29.71229447660116       53.42165154253369
H           47.68183720685859       27.85407265315124       53.20245266156481
H           47.32262584780077       26.78695325101014       50.99791089141778
H           48.55913671013501       27.60736213402513       49.03231826587860
H           50.10139479542817       29.51351162265413       49.24687224261087
H           50.83929483072365       34.45559656348134       50.33605173396620
H           51.59923215771429       34.83417585490523       48.03693927044174
H           50.62058817601881       33.54238246242472       46.17604649486947
H           48.83438736000047       31.89326052950221       46.64086489019879
H           48.08863422803202       31.50698653169908       48.94639220552266
H           48.13159991311164       36.42880109407066       53.29451476284829
H           49.03216141016065       37.62191747582722       55.23271372808308
H           49.47432564001748       36.41474242834336       57.33828471834503
H           48.96086912528438       34.00479643201066       57.49438301334320
H           48.04537150594889       32.81170198532601       55.55402803498929
H           43.14102699920454       34.55028206415026       52.92216663606803
H           41.27870177131241       35.57462155709455       51.68382678192980
H           41.24404528264824       35.49352385625719       49.21877548786782
H           43.14317814086949       34.47510578077214       47.99750520790986
H           45.00083906027384       33.47389312231778       49.23570122672291
H           73.42197148193820       39.25740048178489       53.01459675840031
H           73.00133455358234       38.74017686279112       51.38067294017647
H           74.27258016225213       39.93799424678456       51.62477952212299
H           45.97787559394365       32.79982323052194       51.20585763465167
H           44.53736148781690       32.43373074280392       53.79765816083918
H           43.66267105407816       31.86149517777789       52.39062217478148
C           44.99240125435454       29.76205521299385       51.73929255828227
C           45.38164876187616       30.17642831255257       54.18466683456916
C           46.50445565675054       30.11808023750182       54.99904635728497
C           46.42846615626880       29.62637424070254       56.29014301567704
C           45.21735050957200       29.18377761141818       56.79134409360924
C           44.08736047324054       29.24222807204973       55.99278236394984
C           44.16904970464848       29.73711868161131       54.70395993661825
H           47.45368406623853       30.46426550988300       54.61672882332166
H           47.31540929394860       29.59083419818030       56.90672350677925
H           45.15238246549801       28.79993045114943       57.79890971647414
H           43.13635736716553       28.90480747366863       56.37950475041475
H           43.27562393614517       29.78952701064712       54.09969271832180
C           45.13994575835225       30.29874833948735       50.31226606640804
H           45.58421142636141       28.84874087947041       51.83439274802207
H           43.94913121805107       29.50147982687932       51.92193073184035
C           44.81232979915571       29.26282765449461       49.27513046246693
C           45.77183793069344       28.84379371981055       48.36337772496469
C           45.47443560698321       27.88760818239270       47.40837679933364
C           44.20772709728617       27.33478496394323       47.35078332818708
C           43.23926036892369       27.75181882674871       48.24850759988512
C           43.53901684997832       28.71040533734398       49.19873763710275
H           46.76420804914883       29.27025231970130       48.40358065712734
H           46.23346081616567       27.57148983673801       46.70711253035102
H           43.97403557719937       26.58540294806337       46.60887890427016
H           42.24579642207141       27.32875037786993       48.20566943679400
H           42.77305630422357       29.03752237352647       49.88744459766435
H           46.52250128545244       30.97894855829901       52.59052945420296
H           44.47666988775811       31.15668392718007       50.17875705131556
H           46.17012368386297       30.63237367651841       50.16656782914485
C           55.65351731638235       57.55379685586407       49.74444623895164
C           56.43730719546839       56.40634117828780       49.76434275386571
C           57.81593273372756       56.54608800149928       49.66686254123083
C           58.39560654323945       57.79860315126242       49.58183479308938
C           57.60604035915226       58.93486702423622       49.57456922268546
C           56.23031637945506       58.80764136563773       49.64759247713337
C           55.77738666465564       55.05229912685823       49.84036117380569
C           55.76766437897842       54.40745237644965       48.45150488094008
C           56.44173099462055       54.10098138713677       50.84314204434604
C           56.55931590779188       54.66741962095805       52.26945050191078
C           55.24275256182814       55.25163011261676       52.70481151687870
C           54.11713224855252       54.46285054442806       52.90313412764080
C           52.90725910977342       55.03846375699337       53.24806025839234
C           52.79441448859113       56.41143330710457       53.37986927495142
C           53.91135231682797       57.20666508353104       53.18436002025515
C           55.12293173168959       56.62784873205198       52.85587917496458
C           57.07190970180025       53.55798871300508       53.19817687810801
C           57.21297644375805       53.94653730221849       54.68039536684337
C           58.12375839728890       55.13174169688178       54.86456776005981
C           57.59340239059336       56.35951529953550       55.24292830096682
C           58.40934301343512       57.45953489947763       55.43475105885530
C           59.77681392228702       57.34769843011167       55.25047114304616
C           60.31680872319107       56.13142312895497       54.87059755073876
C           59.49693803286845       55.03248924184199       54.67753788118321
C           57.69154526171515       52.70037332113364       55.44815110980978
C           58.20159249563842       52.95974237260705       56.87257641250198
C           57.24640024751558       53.79996916970252       57.67979341018616
C           57.63615034443531       55.04848114888425       58.14667454067836
C           56.77175905214973       55.82426162895351       58.89726948403167
C           55.50417855977975       55.35715426153427       59.19505006799007
C           55.11114055603320       54.10677704600484       58.75128269384483
C           55.97722382296936       53.33600704624025       57.99904874624829
C           58.45772095938387       51.63079249649198       57.60451068103149
C           59.71850821795560       50.89369905201890       57.13121427382035
C           59.67996080885743       49.43354593965863       57.51059782117836
C           60.01662078359021       48.46033980301493       56.57766899843536
C           60.03620016239794       47.11946190500765       56.92069535176100
C           59.69990411208709       46.73191060329303       58.20484940967484
C           59.35416038678156       47.69026443349541       59.14157447907388
C           59.35112656447283       49.03002155623372       58.79974728007931
C           60.98347437849870       51.54039993615058       57.71412688188917
C           62.25849039429598       51.01088600171405       57.05216764521230
C           62.32908525041969       51.38935434832130       55.59362170103629
C           62.31675264165025       52.71829008121705       55.18325133740018
C           62.43276356124467       53.04825212544039       53.84369819106676
C           62.56514605417061       52.05554084579742       52.88839317976627
C           62.56502137234263       50.72954006662657       53.28388038458689
C           62.44900643969779       50.40264032896380       54.62298126379495
C           63.51656192521361       51.50542895123542       57.78151586640640
C           64.76624085072848       50.77747241295509       57.26066886106866
C           64.66268632723947       49.31718268422635       57.62488153582901
C           64.53771102198446       48.90714467623138       58.94679100321697
C           64.32197647981069       47.57664279948607       59.25247273696721
C           64.23876091109591       46.63018308594974       58.24557745172650
C           64.41115926324102       47.01816451794907       56.92818611089834
C           64.62617018394698       48.35114108163332       56.62819556667269
C           66.07885170827888       51.41227370622132       57.76021904061069
C           66.78421896193514       52.24505816462543       56.67336141098866
C           68.16780479198735       52.62101162210504       57.14928829095291
C           68.36669281613023       53.55144520793536       58.16247953115516
C           69.63757936545188       53.82238777323851       58.63615727030187