3536
 energy: -3716.240999964796 gnorm: 0.000979022552 xtb: 6.6.1 (8d0f1dd)
C           58.91159018278761       54.34772358809311       44.96583515677303
C           58.92839322042828       54.78226055683047       43.50386662925245
C           58.64526513347705       56.28078668385405       43.40549229695151
C           57.89932256227005       54.02099188481299       42.66017071734597
C           57.99413740193847       52.49129503944584       42.70310493771365
C           59.38461612635469       52.00825740939052       42.29841587424860
C           56.92665647529217       51.87052140749586       41.78580821308810
C           55.53882626405424       51.76128253982901       42.42910282856941
C           55.49631698225388       50.58975834964755       43.40989247299325
C           54.43240741605740       51.55804730142182       41.38505851930260
C           54.17601310866286       52.72076882749411       40.41989901673990
C           53.97790764362628       54.04222095302138       41.16292805623380
C           52.92757524522566       52.45707621733995       39.56455795292154
C           52.93964348540508       51.22302881749717       38.65370339996392
C           54.06192532637230       51.29488027586922       37.62235408995156
C           51.57422950691798       51.10987453126286       37.95403574678777
C           50.53845882081747       50.31560094321333       38.76644757992535
C           50.67763398879446       48.82692583110732       38.45602456207286
C           49.13030723307752       50.83696123316340       38.45651732746065
C           47.96126742437308       50.08779708931514       39.11295874327321
C           46.65816856640413       50.77755785916695       38.70749078673365
C           48.12707160360789       50.03912943202165       40.63609808996822
C           46.98676345745145       49.38174886721375       41.42949278788674
C           47.36820477343933       49.38432938916141       42.91030113716270
C           46.71311488468915       47.95813551265072       40.93130762634969
C           45.62381336103922       47.17463119372391       41.67966243321253
C           45.61984295966603       45.73566319143161       41.16282523131613
C           44.25220259151216       47.83570723629204       41.50180673005413
C           43.10150872198423       47.24076606059584       42.32680190152551
C           41.77996711452465       47.79419405696035       41.79364102891701
C           43.25316753812936       47.56943806718648       43.81702377630169
C           42.28484624735614       46.79258219847385       44.73170361930758
C           41.43719403357533       47.75875789219056       45.55999466037370
C           43.02643339236101       45.82412638719709       45.66433719214228
C           43.69394861116113       44.64058850531357       44.95336357128642
C           42.64675088895984       43.64383252663060       44.45548014818166
C           44.66891184732095       43.90302243726865       45.88429883566820
C           45.92962384924206       44.67520759919049       46.28984517305214
C           46.73691216598181       45.09691742425240       45.06217408016380
C           46.83789951207206       43.82191344427692       47.18720280379024
C           46.23443403150591       43.29931313110936       48.49691011731441
C           45.58518401603762       44.42247199189202       49.30358883348588
C           47.32175043215834       42.64738878965853       49.36490279498385
C           48.06744327295264       41.46359005859205       48.73775900352405
C           47.12564364049323       40.29756877389363       48.44700629367139
C           49.21118392428237       41.01013986392370       49.65989222874258
C           50.39267388002536       40.39088997430122       48.89903471060020
C           51.31926180095903       39.68351846315434       49.88602999631567
C           51.15197796006190       41.46542734073700       48.09749972204272
C           51.40643417885643       41.10762505675675       46.62771981669617
C           52.48264085344446       40.03120157368324       46.50418569549053
C           51.81654103442085       42.35927076508974       45.83543868576729
C           50.63281097965407       43.24301296286795       45.41415256805976
C           49.95765344315775       42.64923098446781       44.17725169891565
C           51.06448768590197       44.69517700121385       45.13278821882301
C           50.74769133806063       45.68524236778780       46.26434611536374
C           50.93818240846428       47.11473799096748       45.76280225862116
C           51.61202834648728       45.40125868378819       47.49544324659635
C           51.40783307190173       46.30327345313654       48.72284134095905
C           52.35281130594360       45.81142791173933       49.81971033087932
C           49.94678181989765       46.30394262571284       49.18892702634638
C           49.66779277075556       47.17418123639260       50.42813909545187
C           49.61901780270607       46.32018081845277       51.69519540241157
C           48.33934673625319       47.93473173830855       50.29213687573075
C           48.37744936353327       49.14305469437626       49.35015967834060
C           49.12574727472898       50.30718588622911       50.00211205176738
C           46.96057117528844       49.61819374302588       48.99410159735055
C           46.11943777943216       48.68861443403424       48.10997870111662
C           46.77285112139219       48.49602000192873       46.74139786183544
C           44.70701370933615       49.26822235347873       47.92004870447746
C           43.78772632446703       49.18935112264648       49.14564411944765
C           43.32739945557603       47.75238888866171       49.39266994758883
C           42.54557020296222       50.08166995332405       48.99172984317017
C           42.80887295121612       51.58296336736925       48.83388746966982
C           43.68247092715779       52.11612260579532       49.96934309031968
C           41.50194090895733       52.38809285480568       48.80908728903598
C           40.46574272022860       52.01049896474353       47.74188669119941
C           41.07769632953001       52.00273196396876       46.34175579351355
C           39.30367486608111       53.01531470352370       47.77729587416247
C           38.34392198524233       52.85648201637354       48.96629464531026
C           37.21598144785450       51.89051431673017       48.60757838638880
C           37.77167896783540       54.21748489263533       49.39227460239776
C           38.73776101117195       55.01923656521492       50.27624566674663
C           38.62114201746143       54.55189664867306       51.72757641594149
C           38.48084551837508       56.53193310696044       50.22440039502562
C           38.78922643973115       57.22534732461529       48.89189779941486
C           40.25238398866100       57.06876440042004       48.48372151724753
C           38.38520633985103       58.70907593605914       48.93791366761638
C           39.19499025054674       59.57914305367190       49.89799139453515
C           38.69654518075876       61.01950093101929       49.89721039579275
H           57.92965127849328       54.51881383114390       45.39717167583119
H           59.16081935551254       53.29608731879579       45.07280398195550
H           59.63794904413994       54.92195638646621       45.53369184673330
H           38.76540265124769       61.44974444003995       48.90065118791372
H           37.65702541694401       61.06535790139846       50.21493027992130
H           39.28924092680674       61.62886034045613       50.57635252070274
H           38.48504475953885       59.12300736685030       47.93077259665492
H           37.32914017089874       58.77303238235463       49.21261954441980
H           37.43314531111551       56.71533634631619       50.47747152829037
H           39.09363624689633       56.99495233356600       51.00082957426930
H           39.76180770456519       54.82729782099197       49.94524340466688
H           39.35795679512601       55.05031724068556       52.35366854420582
H           37.63108490963803       54.77687798819655       52.11975022018780
H           38.77954981096103       53.47959094826425       51.80442664427085
H           37.51929728605328       54.78104858953620       48.49282831626640
H           36.84267699789131       54.06378006482351       49.94573367620037
H           39.73044646985763       54.01971184414221       47.78266966444317
H           38.72313893784062       52.92278939052757       46.85680280957976
H           38.17166918121394       56.76551482705957       48.11159044399020
H           40.47308980971554       56.03927435386203       48.21221554367836
H           40.46878028049017       57.69735701774864       47.62277305249151
H           40.91717721831963       57.35188387818418       49.29514299285623
H           38.88994728445329       52.43254076517248       49.81350838890669
H           37.62075095714656       50.94536262552548       48.25247249719884
H           36.58946815585588       51.68938174065248       49.47404905439398
H           36.59019452528758       52.31217165015876       47.82321801204572
H           40.07162681366660       51.01230511652707       47.95593683676262
H           40.31478992459382       51.77876700560882       45.59844107281445
H           41.50799931922439       52.97559971891692       46.11453050328075
H           41.85721693392323       51.25090375065155       46.25433512164596
H           41.03865706256489       52.31021960176651       49.79502758283544
H           41.76986297569047       53.43789222752770       48.65921179405004
H           43.33158989222970       51.76022061530517       47.89026255136463
H           44.70514384698212       51.76241489983921       49.87549644431436
H           43.70299614510672       53.20366473145845       49.95706611287343
H           43.28556436679590       51.79874843114055       50.93032334031117
H           41.97657357361467       49.72792073501241       48.13010075356871
H           41.91914897987214       49.93971918581008       49.87663860222850
H           44.33798600283595       49.51953340833422       50.02942479053301
H           42.67058278605973       47.70873218784949       50.25931657116228
H           42.78045918315746       47.37222661258974       48.53233655908200
H           44.17385967463905       47.09654082316808       49.57828385063082
H           44.81681070578139       50.31035922886527       47.61683803189110
H           44.21964700013643       48.74133781338655       47.09568018070284
H           46.03291332667882       47.70887623414362       48.58727103434262
H           46.97164754654330       49.45714920476274       46.27294508909026
H           47.71186064154112       47.95601583735901       46.82452057881288
H           46.12004552862545       47.92566985562959       46.08521556962590
H           46.43127823679811       49.79374242767801       49.93274536077730
H           47.04272654985520       50.58041417808717       48.48064021706070
H           48.90618559445556       48.87044963131703       48.43272121727104
H           49.17518772578774       51.15723526325117       49.32435824248049
H           48.61501689334163       50.62657158181444       50.90859812887378
H           50.14188800643144       50.02556782417087       50.26473876296311
H           47.58170059908879       47.22783744688150       49.95084916879359
H           48.02899179767400       48.28810340277582       51.27810922906667
H           50.47563316619635       47.90336091056164       50.53130202567075
H           48.77974533167176       45.63001172117679       51.64697772598553
H           50.52969489548616       45.74372998457473       51.82190521487657
H           49.49243186474306       46.94467017132155       52.57749410283337
H           49.32987948794178       46.66505160674718       48.36590143048613
H           49.64188087486565       45.27482824702729       49.39513857970356
H           51.68908932753551       47.33047724311292       48.46621652578580
H           52.37660989391532       46.50249446609266       50.65803276580505
H           52.04392353229795       44.83135169955217       50.17825907596405
H           53.36430426109425       45.71749486241351       49.42933307840525
H           51.43056886281340       44.37456441796532       47.81359279512645
H           52.66119633592449       45.47130943161807       47.19438052477653
H           49.69391775492895       45.55085758306524       46.53035106494800
H           50.63837460456129       47.83594199571824       46.51738217665368
H           51.98057388644916       47.29440110967158       45.50996901994483
H           50.33545796433035       47.28740662820245       44.87326373382627
H           52.13456613132939       44.72670623379986       44.91609759208716
H           50.54512416042905       45.04467869879428       44.23779927044161
H           49.89412167041648       43.25688861264738       46.22148855301414
H           49.06519298744457       43.21501468766695       43.92005516175470
H           50.63712728303467       42.67310083756764       43.32735034593715
H           49.66581786942571       41.61590959682786       44.34990218838907
H           52.51345440915394       42.93646295113630       46.44429024988591
H           52.35136866082254       42.05613463810514       44.93213981111265
H           50.47862970051697       40.71120154127555       46.20193181503075
H           52.19180868322172       39.12976045431810       47.03727038434379
H           52.64310769791050       39.76867725666438       45.46039357585571
H           53.42450655782222       40.38848065028764       46.91668637653191
H           50.57807019001112       42.39213179359589       48.12685774030756
H           52.11177269028990       41.66890427291500       48.57805927531737
H           49.99772646331540       39.64254327428485       48.20448717367000
H           52.19081626764356       39.27541817344782       49.38080999688015
H           51.66014589513816       40.38340859288953       50.64638480587707
H           50.79901227603789       38.86658522614835       50.38153859122625
H           49.58547298926612       41.86178185636163       50.23411954705215
H           48.82213708202959       40.28350265088308       50.37705299308531
H           48.50630695377356       41.79026046620036       47.79207066782901
H           47.68705714178511       39.43222416435142       48.10189421433242
H           46.57943832969898       40.01400793929623       49.34491715167029
H           46.40571984728296       40.55949998176769       47.67588593243489
H           48.05241915599212       43.42050076859130       49.62131689407095
H           46.86443682046927       42.31239737818807       50.29940110930531
H           45.46990518670271       42.55102583466477       48.27247486958856
H           46.30462570164628       45.22210412576010       49.47218503875395
H           44.72139629169403       44.83103052283231       48.78659005282014
H           45.25317383906189       44.05143232604406       50.27092860332720
H           47.17986835596758       42.97158571463921       46.59383983174106
H           47.71534625415533       44.42359582088014       47.44128380120947
H           45.64746907103842       45.57639209661406       46.83963828865504
H           46.93372992775774       44.23732121279880       44.42488483719065
H           46.20610699338455       45.83990671626933       44.47532379136239
H           47.68955526425577       45.52868630324809       45.35987768909946
H           44.12013690662574       43.61487516192595       46.78296040378521
H           44.98629639878677       42.98295962792305       45.38577579157023
H           44.24404146762531       45.01093360263557       44.08591408482850
H           42.08073929377219       43.23672216438703       45.29135482659650
H           41.94878209433718       44.11430286567541       43.76776558667636
H           43.12555837872509       42.81777295122791       43.93340832910170
H           43.78099504505104       46.39113202009641       46.21289833423735
H           42.31929757965320       45.42824533360145       46.39863232527919
H           41.60116523024992       46.20810460669472       44.11065323603794
H           40.87682976185588       48.42918703877281       44.91209988989798
H           40.72844867940859       47.21622974783155       46.18300392429678
H           42.07098689546603       48.36076523213821       46.20804186822778
H           44.27751324835162       47.36233450143938       44.12757174257399
H           43.09666090119900       48.64334876831438       43.94362596243327
H           43.09061190525021       46.15425990031793       42.20336516464119
H           41.77798873632212       48.88044221925959       41.85731259636691
H           41.63791333234315       47.51195206883158       40.75248888391456
H           40.93509862841970       47.41647091315983       42.36399374132066
H           44.32761781527928       48.89239817267742       41.76381257792178
H           43.98561923502020       47.77722100231740       40.44315309503526
H           45.88262964251186       47.15213985955881       42.74050555584292
H           45.35139475188579       45.71093338211184       40.10854205151788
H           46.60657035530647       45.29091280317736       41.27542229819704
H           44.91221574051740       45.11858412686252       41.70982612272222
H           46.42811341368928       47.99596396880786       39.87866534241932
H           47.64722464694329       47.39359428200052       40.99954007773722
H           46.08540969162417       49.98815286455904       41.30670137203906
H           46.52134279092097       49.12379119708230       43.53876520872323
H           48.17080905327197       48.67406075755081       43.09846366870086
H           47.71557477980819       50.37197656579102       43.20706007945417
H           49.04617747097653       49.50045905266522       40.87272779380851
H           48.24696072101099       51.06443122819073       40.99814573725065
H           47.94625386125621       49.06805530816119       38.72030381472604
H           46.59575581976379       50.85882017986118       37.62411617174132
H           45.79131258392704       50.22050749010990       39.05256049739967
H           46.61346208994880       51.78131967413182       39.12581620732870
H           49.08175241488818       51.88448282016319       38.76808530432400
H           48.98573451215772       50.80752893739768       37.37292929764880
H           50.74038438230509       50.47212401162081       39.83010922784340
H           51.71288987990417       48.51411433188880       38.57247141386716
H           50.06498984554880       48.22371654679318       39.12059822164483
H           50.37268302265812       48.62577078506346       37.43088432158696
H           51.19798166734904       52.11640060971163       37.75951312346318
H           51.69770479013659       50.62444787001353       36.98425071123686
H           53.09125400667459       50.32503237607781       39.25989185358841
H           55.03345091308183       51.31535600518199       38.10834005931360
H           54.03536399074943       50.42363142170186       36.97146350982058
H           53.95907880511133       52.18571610347057       37.00648410673210
H           52.06589710933854       52.38188318819444       40.23306862448793
H           52.76652319243114       53.33239376265661       38.92923878864683
H           55.03656530921567       52.83371879221506       39.75358253519277
H           53.67499529211162       54.82178377398169       40.46794697943933
H           53.20361051132084       53.94117768578676       41.91992977968776
H           54.89724838916877       54.36669543759943       41.64193238672404
H           54.67853577968172       50.66700047071348       40.80292333269395
H           53.50183015269972       51.35757290057710       41.92164317888369
H           55.32801072835864       52.67571092918511       42.98783810179540
H           54.53873104530651       50.55829841058840       43.92581684585365
H           55.62715708634551       49.65227060475183       42.87483887825190
H           56.28150880540188       50.67138675738445       44.15659214903250
H           56.86363561929048       52.47158263025666       40.87701322052923
H           57.24315220367828       50.86867789168377       41.49047139031315
H           57.80441707880409       52.15808541499168       43.72630852651346
H           60.14541353162256       52.39259242615857       42.97238816795851
H           59.42677405896985       50.92213030867338       42.33517928042534
H           59.61808574025234       52.33171589637076       41.28753175013188
H           56.90182000226832       54.31832499898598       42.99378702464485
H           58.00676941221663       54.34690253434471       41.62156627755137
H           59.92611840458090       54.60169854600353       43.09066721054629
H           58.65666594686807       56.60477396850818       42.36701561577775
H           57.66908753965531       56.51260867455273       43.82727974878930
H           59.39577929724078       56.85065525098723       43.94975838971702
H           39.12183712514248       59.18378370516967       50.91160425756528
H           40.24556421394883       59.56988283307069       49.60466409338651
C           69.21886810039717       62.70062887687675       59.89510007530317
C           68.76208867539175       61.44121007722736       59.15974814321167
C           67.78873779318771       60.65804664896146       60.03674919072674
C           69.98595124645293       60.60147634615856       58.77503872589112
C           69.72140892501372       59.42424688522676       57.82347893709294
C           70.94006738623703       58.50123251602754       57.82308836651960
C           69.40572507595058       59.93290871246391       56.41067368573747
C           69.10675284668321       58.86123179993351       55.35044831983723
C           69.00868559810543       59.53529985891171       53.98149150076526
C           67.81787435291720       58.10339348842079       55.68727867030101
C           67.47720758590668       56.90530725346014       54.78702444976884
C           66.08315271462526       56.40362292823593       55.16017655956760
C           68.53073290668905       55.79977174743763       54.93191378687872
C           68.26685735208403       54.48325991528989       54.18244408704085
C           69.41971291090893       53.52383010026500       54.47857390589919
C           68.11611424470291       54.73257128300271       52.67790538456964
C           67.91761646123534       53.49795456335438       51.78570284587249
C           68.06825263891203       53.93132920210252       50.32748406654537
C           66.54792533956359       52.84779699808379       52.01124702534365
C           66.40962541432509       51.42970495409674       51.43119735155135
C           64.93408112999838       51.10943721238247       51.19965352833304
C           67.05295878242697       50.40835913741312       52.37764533794771
C           67.08864072622222       48.94903096713669       51.89630159850903
C           67.57026242955426       48.07034230548794       53.05082652876333
C           67.98808477039744       48.79831407617561       50.66413523020714
C           68.07687815074453       47.39208664078831       50.05437833178629
C           69.03487099967820       47.42597992222739       48.86293066858750
C           66.71532977837309       46.75813842587218       49.71597217454259
C           65.72109544744237       47.55082989155189       48.85082969232710
C           64.30275770284547       47.08774784493313       49.19181676282519
C           65.96474584269114       47.36673620238281       47.34697310235637
C           65.32858876723569       48.45497508885141       46.46524997969778
C           65.21926484473644       47.94494174859819       45.03034287435358
C           66.14963614203096       49.74882535592873       46.54293104184475
C           65.70386540370112       50.90543775719382       45.63386937879159
C           66.62122749976253       52.10139370060971       45.88890077769845
C           64.23171312274839       51.26335554596720       45.86995994523887
C           63.70275716540260       52.51696821052849       45.15509982100382
C           62.24132866575581       52.71319594552826       45.55698888763950
C           63.82213959178291       52.40891833914517       43.63022661302487
C           63.68220750087743       53.73708604149185       42.86781194550846
C           63.36320899307387       53.43456986279386       41.40434443321596
C           64.97470892101659       54.55224728077803       42.98709577578703
C           64.91710782885558       55.99587748737817       42.47007057095482
C           66.34435066388980       56.50270307596995       42.25909231548592
C           64.17331074536395       56.90854412868253       43.45119346312711
C           63.70163153264088       58.23219727547729       42.82732063167764
C           63.66618930089646       59.32770164079094       43.88864108701434
C           62.32914303727170       58.04443076327962       42.17211751894535
C           61.81233522307022       59.22069165892612       41.33243356000219
C           60.38844305128269       58.90438486984379       40.87373127582351
C           62.69929053765581       59.51179753497167       40.11014835064640
C           63.70272758011009       60.65996613434049       40.28621915211602
C           62.98821592009702       62.00972185471155       40.24216845925889
C           64.77199574519859       60.59708739397773       39.18685050030975
C           65.82680108650945       59.50439545129962       39.41924988538418
C           66.97806407012399       60.05195111819189       40.26194379710186
C           66.35475647447512       58.94560952891212       38.09191284538350
C           65.37494934406045       57.98930853414993       37.39281260234306
C           65.40753778969817       56.61273566393329       38.05503441067467
C           65.72249233150806       57.89171837849248       35.90208890839805
C           64.68449636437560       57.18973757266273       35.01186720980478
C           65.33527835520668       56.87244153816847       33.66546243617678
C           63.44500386137251       58.07411532828185       34.83447176135376
C           62.27653945776137       57.45708009380510       34.05294221263096
C           61.20996994759096       58.53301141384043       33.83685613675328
C           61.65822511098349       56.23918013470773       34.76491632057438
C           62.06624169885372       54.87592486119680       34.19101735707898
C           61.47426713805853       54.67893107952352       32.79450570634204
C           61.57864811816261       53.72482298532062       35.08375109899626
C           62.24234539892801       53.59831188076912       36.45969720735815
C           63.70362255763568       53.17051424383379       36.32713403808932
C           61.49725307257459       52.56931045210563       37.32466777532029
C           60.11462557862548       53.00029043799488       37.82951057433672
C           60.23672594003030       54.08296968098588       38.90193802756802
C           59.34358056657440       51.79640310489616       38.39576078090609
C           58.76313041380383       50.82672653836234       37.35886152265678
C           57.73763471314249       51.52556774543183       36.46451542961036
C           58.09092745750750       49.62685269467448       38.04905589932396
C           59.02267300593292       48.62316448382354       38.74177636649940
C           60.05644285655989       48.05866771395817       37.76611492925010
C           58.21846825752930       47.44736662713899       39.32303862808633
C           57.36187874318415       47.71748115493212       40.57009510686338
C           58.24765665184473       48.10270076798712       41.75105134096886
C           56.56919421399029       46.43891250612886       40.88798655304966
C           55.50586877393312       46.54406375008172       41.99320212708698
C           55.19636361555533       45.14384402109904       42.52357647592560
C           54.23738068353158       47.22974743599224       41.47236233542885
C           53.21017604557153       47.53802122838790       42.56115414695231
C           52.02235757896764       48.31706170367744       42.01028250688574
H           68.36529127120335       63.31536909174116       60.17453457174629
H           69.75528684959656       62.43515222376121       60.80392226874675
H           69.87962571466323       63.29680742890986       59.26997949790392
H           51.31351145623071       48.54538606402694       42.80335628638055
H           52.35009879456091       49.25315519838971       41.56471987147578
H           51.50954354971698       47.73680168102582       41.24677740595098
H           54.51701384657129       48.16759230786294       40.98695525139293
H           53.77535604073599       46.59397091375398       40.71294784735657
H           56.07566694288269       46.09168098490498       39.97675718334270
H           57.29124179581227       45.67015110584452       41.17565124773664
H           56.66421753660153       48.53369099767168       40.35988673760542
H           57.65893878596355       48.32505709760866       42.63699689919963
H           58.92290449191174       47.28319618812602       41.98438455046280
H           58.84214078373689       48.98142149279489       41.51861171832290
H           57.57200444778238       47.05887922546808       38.53178254925281
H           58.92238013128492       46.65120195636347       39.58111767306492
H           57.37794765344148       50.01126980721553       38.78195559660615
H           57.51953855582625       49.07959421110458       37.29466708381325
H           55.90382695898780       47.13527266107703       42.82395240085655
H           54.78138860721569       44.52144105472070       41.73360684104330
H           56.10342648336881       44.66834429354743       42.89110296596092