3795
 energy: -5103.677566799957 gnorm: 0.000880072197 xtb: 6.6.1 (8d0f1dd)
C          105.01586715331902      130.41395060022845      102.45343300922580
C          105.13482537816276      130.22084810203060      103.94358323480547
C          105.94596279344007      129.50844527588200      101.64581511377639
C          107.41374158883522      129.87637410035023      101.85481636414328
H          105.78717881268547      128.47161981972570      101.94689818293688
H          105.69698691263008      129.59441151542143      100.58663602094606
C          108.34558460993514      128.80223823609671      101.29804647898199
H          107.63155376749185      130.82590344027358      101.36037622789050
H          107.60686386697461      130.00183969005883      102.92146834176646
C          108.44931340144187      128.84127080844686       99.78341204570239
H          109.35549572037192      128.97535462445020      101.67769494666254
H          108.01364081573034      127.81599931266996      101.61707040996207
N          108.37782075972345      127.63663761769587       99.19908547219599
O          105.32695524175440      128.95489019167712      104.29739613954342
O          105.00678096742834      131.10338240661076      104.76232367823623
H          105.40493453082188      128.85785159097207      105.26210184309194
H          105.20314880315186      131.46554259356620      102.23381409386083
H          103.97516360769222      130.19670717923421      102.19722530256030
C          108.56721987891899      127.43486467069444       97.77771918688053
H          108.10103272254116      126.84118250042913       99.75820797270383
C          107.51087064247697      126.52119720422476       97.16053156712820
H          108.53534112056160      128.42601642215911       97.31760082672537
H          109.56216388710391      127.00723326993788       97.60805765926879
C          107.69215198058269      125.05905410208454       97.56841721612457
H          106.51973336829407      126.86659883906307       97.45886522755620
H          107.58102686167931      126.60416421032306       96.07469757773298
C          106.65635715960485      124.16507837596849       96.88751755401630
H          108.69427207749366      124.73052449523009       97.28630159705934
H          107.59246231128472      124.97842660272542       98.65103526749597
C          106.79319039722401      122.68051821100300       97.23647704178946
H          105.65738002401984      124.50352580540759       97.17073400577966
H          106.74639274620402      124.27683497650992       95.80535043185198
C          106.68041206741204      122.44384243723934       98.73999964836625
H          105.99398262428942      122.13659424935558       96.72831337154440
H          107.74518742975117      122.29221418068039       96.87031855550093
N          106.33721314139996      121.07023411912776       99.04629774388276
H          107.62703176252190      122.69231499014120       99.22687791143275
H          105.90448709754712      123.10821035931730       99.14175224591561
C          106.20664574809069      120.54042950493871      100.27362558022975
H          106.11771882885989      120.46511118125025       98.26773645484145
O          108.64637513311513      129.88100006238244       99.16110215596969
C          106.61139189641332      121.45571497342240      101.41223102590628
C          106.12775433594969      121.00039783407446      102.78498058421752
H          107.70309827335605      121.50041486442181      101.39856536241970
H          106.23803827411457      122.46088867199441      101.21903551804914
C          104.61748838537926      121.17652251043674      102.94028960127214
H          106.39208711204456      119.95393479309131      102.93475304667402
H          106.62883379814423      121.59980838222376      103.54489581972081
C          104.15786658368516      120.98140130890462      104.38384749319847
H          104.33533459341020      122.17824179152035      102.61175976423409
H          104.10186282050145      120.46129714622113      102.29692001120782
C          104.53375061002649      122.13023868922794      105.30585860370006
H          103.07481241307295      120.85899411135694      104.42908703423912
H          104.60216582375847      120.07164889338573      104.79393505554960
N          103.94774326359800      122.06639476135108      106.50138077977083
C          104.16968839392018      123.03724784138879      107.55357214538438
H          103.26490714145589      121.33625722860960      106.67807767922388
O          105.81837524649981      119.38718938607914      100.42671760567622
C          102.93624494153080      123.16831400923562      108.43664087822042
H          105.01929768993692      122.72282920187756      108.17203114268600
H          104.43326254220501      123.98961489309072      107.08548100633369
C          103.24814003522752      123.91995908293228      109.72795450045984
H          102.13480688159119      123.66826082010648      107.88988811472225
H          102.58989408100962      122.16370854115446      108.68249614777605
C          102.06412148304150      123.90177014232802      110.69174413067030
H          104.11272993200647      123.45579762294867      110.20492914233687
H          103.51629418486981      124.95251643497230      109.49870630457055
C          102.44090580466283      124.45425930074060      112.06387241427953
H          101.24538185668928      124.49207977026637      110.27610881349644
H          101.70922670510005      122.87630089795884      110.80546242903822
C          101.24334793449223      124.46518037937716      113.00699666800007
N          101.57449060649175      125.09018929041466      114.26963951695843
H          100.41929497347795      125.01828230801262      112.54003762979070
H          100.89741730229228      123.45057846896935      113.21432459467478
C          101.15710369114856      124.66466512541422      115.46072450845418
H          102.18995244327425      125.89437065096558      114.23259065255886
O          105.31846280798244      123.03028736600318      105.00240236853142
C          101.55345532033760      125.55804940971947      116.62050624018404
C          102.46896178279231      124.81587254176763      117.59392182926702
H          102.06186389691626      126.44437717001462      116.24353617461955
H          100.64361613942079      125.86475338752577      117.14098177296981
C          102.96275090457935      125.74450750202439      118.69893960937739
H          101.93020666188232      123.97448131734015      118.03241339346103
H          103.32347426524727      124.41878196525839      117.04192700766076
C          103.73534878977635      124.99225692021503      119.78798450292129
H          103.60487445949263      126.51390242395399      118.26420202209052
H          102.10894289164541      126.24401152634169      119.16091832264091
C          104.95611504241194      124.30916953087296      119.19950918128515
H          104.06368283449886      125.70651912611444      120.54489805626906
H          103.08575821689709      124.24900701555296      120.24982476463204
N          104.76972706108167      123.03466376449077      118.86435380173484
C          105.78228306823878      122.18722039376446      118.27668853516852
H          103.87600808058636      122.59214099864199      119.06390729402591
H          103.24030229561295      123.84991258221932      112.49553452555385
H          102.81263106249868      125.47550932662605      111.95867300006347
O          100.50549053893512      123.63245133437897      115.62325321970449
O          106.02326252017879      124.90083027439366      119.02918682930357
C          105.75565355239769      120.80126055798777      118.91648817403617
H          105.59477351185654      122.09062161205618      117.20010269930205
H          106.74948789990563      122.67845576116821      118.40850400537012
C          106.49041172700773      119.76382335200719      118.07357513852409
H          106.19071022309096      120.83675447892314      119.91638562217339
H          104.71229471058210      120.50004870302762      119.03426738821388
C          106.18406456972075      118.34462113616559      118.54540998009132
H          106.19093379667169      119.86552386801576      117.02972148325745
H          107.56222043625789      119.95348632818728      118.13018894345205
C          106.66649210732395      117.27724703196404      117.56439215992185
H          106.62504934697226      118.17888981417771      119.52973814890039
H          105.10377117935380      118.23996248019748      118.65974972584166
C          108.17202416250583      117.35681192335333      117.32448933626726
H          106.41975258244790      116.28865139283680      117.95909522203921
H          106.14957927359120      117.39237088525191      116.60894449099318
N          108.65681471272399      116.26072799735569      116.51909657180880
H          108.41600728568373      118.29249327504827      116.81416233175122
H          108.70222506560791      117.31900318635398      118.27769354157168
C          109.52238131622053      115.34941904112937      116.96737267625207
H          108.23310427710976      116.13666671428039      115.60374305443956
C          109.97075247853134      114.34186281373464      115.93218772077374
C          111.29974358654788      114.77830418435589      115.29990561058794
H          110.12149318246468      113.37823722204219      116.42135834102332
H          109.21056357583578      114.23556145523689      115.16308771660565
C          111.20384341835967      116.05511440273300      114.46785130454130
H          112.02254408401961      114.94466484584045      116.10055591289323
H          111.67132546381085      113.95954514159955      114.68327146387891
C          110.40223204471191      115.89536653648602      113.17492126805966
H          110.73750145518235      116.84355804398599      115.06154510323515
H          112.21741847712039      116.39150210035261      114.23854932204956
C          110.92085347980495      114.84472608085011      112.21304957226596
H          109.36098358510790      115.66301585646244      113.39654206884320
H          110.41105080630277      116.84643824541536      112.63502908024239
N          112.21805941321313      114.94302394370082      111.89414505284775
C          112.86106256171298      114.06860950491422      110.93591578056454
H          112.81326691309727      115.55191665042342      112.43151113161778
O          109.97102574719096      115.36064223549866      118.11407053955024
C          114.02368528498428      114.77180885804219      110.24187950812588
H          113.20382639393300      113.15984941479630      111.44022263210344
H          112.09604995782288      113.78370627925098      110.20843573053759
C          114.31786154666197      114.20223053572454      108.85402304697104
H          113.77172666168003      115.82666846160929      110.11312222931656
H          114.91515096355214      114.71087850063057      110.86588931535722
C          114.60301495947493      112.70075102780581      108.79569215159312
H          113.46595653529032      114.41370616970184      108.20523786455195
H          115.17715667748725      114.73930648130323      108.45321312818412
C          115.78987389614436      112.27041174656790      109.65654408845258
H          113.71308862104132      112.14113100606255      109.08850496626759
H          114.81870207333306      112.43995505011780      107.75686149301544
C          116.37247877288780      110.93031597013744      109.20332063425218
H          116.58259984877758      113.01565170891227      109.56945487518156
H          115.48396937791834      112.20521527546045      110.70086255168430
N          115.45330071346829      109.82064122410286      109.34842187679136
H          116.62919685253550      110.98503471296250      108.14257478367770
H          117.28292065194249      110.70844235776863      109.77136108899545
O          110.18228280286381      114.01958629553040      111.68046110192138
C          115.09976379520771      109.03859895680567      108.31672411752230
H          115.17267149747612      109.54661636506282      110.28319567057866
C          114.21838084383934      107.85454909318291      108.68864306580365
C          113.11602092964843      107.62649404018194      107.65760997048494
H          114.85551601363744      106.96539104261652      108.72295542929589
H          113.79378084194634      108.00635881005185      109.67993825203618
C          112.28235216145802      106.38971495573718      107.97598979046116
H          112.45745905163896      108.49813621810154      107.63346435449829
H          113.56430730030579      107.52220384747449      106.66801583822863
C          111.20876627995240      106.16839602994168      106.90938186631661
H          112.92912787552015      105.51085075830376      108.02807972567257
H          111.79696735279715      106.52136031339506      108.94455061931767
C          110.30070550904308      105.01142208450992      107.27541850711535
H          110.61455329203727      107.07729965713359      106.81566334844757
H          111.68681963076699      105.96308626981526      105.95201241629917
N          109.29519269491658      105.33499421981182      108.08901722189238
O          115.47236078189131      109.23898775748519      107.16928890895910
C          108.26791374864415      104.40448016600456      108.50917861164749
H          109.24153364434594      106.28027536263620      108.47287259692715
C          107.05539246600395      105.14839251326124      109.05995187367209
H          107.98676335676441      103.80459139800428      107.63783611889035
H          108.66101462114815      103.72413496358938      109.27477677640961
C          107.32715638494051      105.65981855364237      110.46999271576031
H          106.82376198707472      105.98822742100185      108.40320652422618
H          106.19482197539702      104.47897424325876      109.06973329311151
C          106.23326195194159      106.57284550017690      111.01511877071115
H          107.46047057821255      104.80819721375056      111.14154597665983
H          108.25581177191788      106.22963896263259      110.46003705003483
C          106.60182536344634      107.02186071725848      112.42542542166204
H          106.14661598630681      107.45331916762183      110.37527820009987
H          105.26949004227478      106.05976226442623      111.01874044961488
C          105.76631497883800      108.19452117640550      112.92882209621894
H          106.50597186492796      106.18277071530861      113.11986634424098
H          107.64992159793445      107.33361325472428      112.43263729403184
N          106.26577378106170      108.61511899421802      114.22091449228940
H          105.82895851710470      109.02860414769675      112.22058315573977
H          104.71855701575024      107.91493816905241      113.05004919628797
C          105.54734546445518      108.61821679024355      115.34406802659936
H          107.27297806469407      108.70694715726475      114.28286445697016
O          110.48161344254460      103.86890106820462      106.85009499089190
C          106.35026524103223      108.89190640734684      116.60142838835247
C          106.62504499568688      107.55487206576210      117.29548578251296
H          107.28727410237506      109.38309653153416      116.34064420661362
H          105.77403535508287      109.53305958910559      117.26671052650639
C          107.52210739044361      107.69882150238989      118.52225865786589
H          105.66910333898019      107.11385416000856      117.58542949940278
H          107.09935953649818      106.87539354200190      116.58171977400528
C          107.72786907738038      106.35491542049984      119.22928837883426
H          108.49608883069487      108.08175518150634      118.21097859512936
H          107.09118929860014      108.40885781498832      119.22928986778781
C          106.41865495125589      105.82140386772107      119.77655692205862
H          108.12135790221781      105.62380402942588      118.52104145822244
H          108.42882507218641      106.48716349775876      120.05391203822387
N          105.99845289002552      106.42949337766397      120.88350787662282
C          104.79765757474283      106.07242423806530      121.60483637968272
H          106.60631884191156      107.12193821777504      121.31357258828049
O          104.33633510489815      108.40354373808667      115.37210095917173
C          105.13052089019004      105.52248116561688      122.99165193322794
H          104.17082791568168      106.96371936656669      121.69479462723697
H          104.26968743213713      105.31564678236221      121.02023300807384
C          103.88650993169175      105.14951448410429      123.79847581906247
H          105.74813768159656      104.63019797280987      122.87315526754709
H          105.72499323023932      106.25904205779757      123.53410905253841
C          102.91753482389259      106.30682873330493      124.06190065645028
H          103.34335297798978      104.36446982637250      123.26862618619765
H          104.21548894831002      104.72957024271824      124.75017882180339
C          103.57311625797051      107.57421728477190      124.60891526261406
H          102.40172209156023      106.56404842769300      123.13552043481315
H          102.16248981984613      105.96393228915692      124.77175737022313
C          104.24088854478458      107.37857282632037      125.96773835468606
H          104.32075714094181      107.94396333243714      123.90690819367087
H          102.81195855042222      108.35158457950801      124.70471013526486
N          105.10131818993345      108.50640539288827      126.27042256863551
H          103.48396562045970      107.27449365495121      126.75361667885588
H          104.86899734031473      106.48445130630255      125.98372545459529
C          106.33700504736859      108.35936067784854      126.76759581257068
H          104.88173967042992      109.36904341305195      125.78528294247667
O          105.79351721150714      104.92031249841499      119.21382301710207
C          107.11794094308044      109.65885377920058      126.90722968443696
C          108.60630460529322      109.46646046696596      126.60595791776291
H          106.68720650585951      110.42481079127603      126.26322272709436
H          106.99758632213242      109.97690011808045      127.94546133336227
C          108.96633746586343      109.73285687638658      125.14184201352494
H          109.18920827125160      110.14422422422713      127.23149549907146
H          108.87477244884596      108.44261056508621      126.87815672264779
C          108.17930163773354      108.84837109910997      124.18291042634733
H          108.75388130062943      110.78388116199827      124.92546130800947
H          110.03843654863104      109.55454106797056      125.02108630695467
C          108.47904730841147      108.99654717696852      122.70513086409122
H          108.32109879610036      107.79554283340562      124.44152840087642
H          107.11164941252052      109.05962938283803      124.28836878540005
N          109.41013462098843      109.88064940579706      122.33717651317747
O          106.78662511320289      107.28084105335360      127.14451498436448
C          109.71055360312593      110.14068584120247      120.94153956381061
H          109.86581721768130      110.45845864476480      123.02280262880724
C          110.96810222558345      110.98636890370553      120.76611491287088
H          109.81322516698947      109.17383345353443      120.44028708574784
H          108.84874454704205      110.65045588160183      120.49337557278790
C          112.26087204802964      110.17179083285505      120.74422565897244
H          110.87795728622871      111.52466158610451      119.82164814328638
H          111.01552071230208      111.73208935906842      121.56090513121941
C          112.60841886289063      109.54062405422184      122.08770720766726
H          112.16134109014830      109.37482472889144      120.00598467989273
H          113.08271345960212      110.81889594001177      120.43160117738157
C          113.80621513490978      108.60254993918956      121.95283841217854
H          112.83284407474427      110.31996708668316      122.81894993385389
H          111.75082565961526      108.96982936485939      122.44307047559957
C          114.12531442208430      107.87511584176833      123.25012849662707
H          113.59161099110118      107.85311837399463      121.18936322253333
H          114.68738398506606      109.16496679939837      121.64281061709001
N          112.95734452366440      107.16693953730835      123.73040098809000
H          114.93419303043595      107.15561232617445      123.07955381148082
H          114.44478257355179      108.57331003011736      124.02989698363088
C          112.83928169781251      106.74333518775434      124.98446045115104
H          112.24563942252620      106.92770368683931      123.04785181889991
O          107.86153912268107      108.33692733897340      121.87140725298018
C          111.53202887372115      106.03270928321544      125.28664912466493
C          111.62522787165983      104.99443492690492      126.40961927690795
H          110.79963789521121      106.79345924867168      125.57196284651394
H          111.17234504443181      105.57333381185155      124.36701116910056
C          112.87857540749674      104.11775631224984      126.34658379626337
H          111.62807848905173      105.50536623899737      127.37454235480617
H          110.73037253122646      104.37075126357335      126.36957808369235
C          113.11806339139937      103.48213690070328      124.97446721185260
H          113.73539945230513      104.73490145557479      126.61618508068523
H          112.79063771456418      103.32709531713181      127.09483373410104
C          114.41270166302976      102.68982521454694      124.96542545698702
H          112.29820840900106      102.80676261575969      124.72555814486056
H          113.19177991307212      104.25348411690445      124.20486236075985
N          115.50502304084044      103.44194782728147      125.17239274324906
C          116.85393577780371      102.92552955201759      125.24350759634946
H          115.39222346659264      104.44214020552900      125.23678879355140
O          113.71697716311687      106.94266330742879      125.82693411140465
C          117.73429153361971      103.50616661040840      124.13894399123589
H          117.27693935020943      103.16445511625777      126.22547754141178
H          116.78117405990459      101.84003854136419      125.14960558266661
C          119.17556298777974      103.01385714462567      124.23538223184316
H          117.31805388066353      103.22643692258340      123.16992235773466
H          117.71598872166807      104.59629843861849      124.21224341931236
C          120.02067256626779      103.54332171612464      123.07794841772532
H          119.60809349666518      103.33626703036639      125.18492365007361
H          119.18456826410440      101.92275448643039      124.22251315488667
C          121.49394711837654      103.16685495010871      123.23544218332150
H          119.61758966412489      103.14616658750727      122.14412474629948
H          119.93804799732588      104.63134335616137      123.03708633844813
C          122.35654561574293      103.70620700657135      122.09890645069272
H          121.86817773200248      103.58177876028562      124.17246406482199
H          121.59887043619895      102.08187289436476      123.28704883715346
N          122.14566897709119      102.95995194094886      120.87548526850817
H          122.12803141343204      104.76494617824511      121.93089028585888
H          123.41949511898150      103.62809128408894      122.34109864166734
C          123.11233589478130      102.76020295292734      119.96863270917771
H          121.22575603703064      102.57681479552646      120.73481122063025
O          114.45626614121700      101.47698686813708      124.79956867098306
C          122.77517254901113      101.90387517936081      118.75866492458927
C          121.32304557015127      101.49353052443539      118.53143868922078
H          123.14000979067364      102.44769829290654      117.88471585982607
H          123.39841433011360      101.01028946783967      118.85210318205567
C          120.42800423232785      102.66037100862725      118.11430967050551
H          121.30800815383398      100.75610760083548      117.72613990394369
H          120.91891094430719      101.00084439837576      119.42013845412757
C          119.00839958687641      102.18569435226826      117.78578222538790
H          120.38014562814544      103.40901390654548      118.90720928919475
H          120.84661992262401      103.13449110980487      117.22506234257392
C          118.38106194591847      101.49874562967534      118.98046646012413
H          118.39485834686114      103.04931407114893      117.52301178920239
H          119.03229961011436      101.50140461382811      116.93900504586935
N          118.14060664798718      100.19608527985692      118.81832997367820
O          124.24144469599392      103.21865775158899      120.10463271963879
C          117.55090355108763       99.35556390929861      119.83734678144219
H          118.46072133707614       99.73701647468206      117.97262280057930
C          118.43233332540902       98.14411963631522      120.13568103227712
H          117.42678735348331       99.96861718459147      120.73398846146604
H          116.56411423418653       99.02916493794019      119.49462234414098
C          117.96424844532788       97.35726552868185      121.36120778440394
H          118.46269452433636       97.49872709305401      119.25708326534446
H          119.44972900307194       98.49371770014369      120.32383867275945
C          116.54056540282622       96.80423217097480      121.27336508369775
H          118.65523804177879       96.52691494464193      121.52191787795216
H          118.02192106632457       98.00842470452322      122.23635096922136
C          116.34566869064575       95.78634871618968      120.15278229433595
H          116.30486267964038       96.32339075382232      122.22575795941066
H          115.83265523714083       97.62451491938904      121.14558220648796
C          114.91400337152091       95.23351244820125      120.14733166266089
H          116.54479468291468       96.25498310499626      119.18700811628084
H          117.05201875871926       94.96167072437828      120.28128355290048
N          114.62820260438018       94.24516651751779      119.12043165983762
H          114.69776332340693       94.77270054292363      121.11538317100774
H          114.21413633513176       96.06268815301249      120.00791987120242
H          114.80768629023135       94.63615373652527      118.20109958926258
H          115.23980194350581       93.44419218045638      119.23255067041976
O          118.11999738569148      102.10168587914956      120.02281601228718
C          110.61127265819853      109.53083065889781      116.14891489277463
C          110.15545375619422      108.41479937786177      115.23562342633784
C          111.75947448516550      109.18967543806042      117.09418297749492
C          113.11635095520852      109.11764554744512      116.39455343927500
H          111.80234768120303      109.96932793900143      117.85492781657162
H          111.54688003548787      108.23929940736916      117.58638105007157
C          114.23278131610600      108.77052227659323      117.38597448906467
H          113.08246961892414      108.36396195382373      115.60658388469689
H          113.32940557436437      110.08266072764518      115.93022341647652
C          115.59686027041293      108.87093834745636      116.72608281509207
H          114.20545962440946      109.48376997942707      118.21203276324148
H          114.08428342587624      107.76528706207871      117.78024757824701
N          116.10331729773435      107.72953395782756      116.26477130129643
O          110.83988233283699      107.29803214438962      115.34241746094280
O          109.21736426265882      108.54868619179460      114.47261486916884
H          110.51087826112648      106.57267241048213      114.74720604001645
H          109.73132317218230      109.83471895237084      116.72255195163554
H          110.88443198966200      110.38306980650155      115.52124133336726
C          117.41064003329073      107.63349852800896      115.65213873902213
H          115.58866519155825      106.85479868225895      116.30927286667273
C          118.12616678208367      106.34503320151104      116.04926839580062
H          117.29868226223847      107.64775150336305      114.56142605533392
H          117.98266053458808      108.51437978742808      115.95534148185544
C          118.58594446870573      106.29094509968007      117.50769962961951
H          117.45999602356254      105.50642853380033      115.84464721563589
H          119.00069903786677      106.23678107522873      115.40578787319097
C          117.47235040476896      105.99180486539819      118.51223291480277
H          119.34444087326388      105.50959539458900      117.59008650917764
H          119.05724048206744      107.23992449728853      117.77277796717468
C          118.04619357962727      105.70618506847728      119.89903910789312
H          116.79445329536158      106.84427088720824      118.57391260796761
H          116.89491694683966      105.13094088625276      118.17088486116748
C          116.97906779511125      105.49852659723452      120.96838278097640
H          118.66914187627337      104.81156066898829      119.86105182926778
H          118.67859125986378      106.54080640571340      120.20153795727364
N          116.36692890930827      104.18978610760877      120.86142818483644
H          117.43709134108681      105.60037877391298      121.95990517073825
H          116.18095974673304      106.24212794687489      120.88773222842558