3864
 energy: -5104.248359335512 gnorm: 0.000740883540 xtb: 6.6.1 (8d0f1dd)
C           61.08703567684700       60.14758894494024       38.74324394379606
C           62.41559042483654       60.07024143686509       39.14460122338981
C           62.93113520522368       58.82904459871175       39.49749547639138
C           62.14365814666549       57.69159632488900       39.45403777258272
C           60.82194171507928       57.78094740723981       39.05533398763328
C           60.29821729093698       59.01203808622883       38.70163963663211
C           63.28983853134588       61.29808393008916       39.19735685072604
C           63.50325951123676       61.86868228988687       37.79256637105341
C           62.70834513295208       62.37482939905304       40.12593514224362
C           62.34090911707629       61.83222747005687       41.51241899438386
C           63.45621586483009       61.03551805516736       42.14020440803792
C           64.76007645365695       61.51203797089527       42.20580463974613
C           65.76066054718942       60.75286566194577       42.78605611944589
C           65.47360581655187       59.51239245077507       43.32984095464990
C           64.17193855284438       59.04320045462213       43.29892637075727
C           63.17824781993811       59.79713696860635       42.70281316342979
C           61.93582039652651       62.96034884342770       42.47751760022106
C           60.53464354159288       63.53745006324650       42.21651962048958
C           60.39151645525246       64.86292457157683       42.92174402797081
C           60.49653874390974       64.95306513892650       44.30505529328631
C           60.36181881777483       66.16856607256955       44.94954292249647
C           60.12009457276130       67.32061306444822       44.22043366342946
C           60.02089083971967       67.24595842552348       42.84218830333303
C           60.15863455105506       66.02700272520799       42.20098181009193
C           59.43410545710193       62.56853022815024       42.66625770808394
C           58.03329840574198       63.06447874615316       42.28045724402941
C           57.89497422527983       63.16320370398695       40.78285867527882
C           58.03620059982331       62.04600264748936       39.96806761152131
C           57.94133499106929       62.15593439958097       38.59341395820266
C           57.70821494312997       63.38482483886717       38.00258428059971
C           57.55638979498858       64.50282467710024       38.80373276666596
C           57.64682091963996       64.39020035676205       40.18001049247340
C           56.96616163970867       62.14797429304649       42.89160418003293
C           55.53179421029536       62.64723558455898       42.66253126897973
C           55.37166009535293       64.08374866455094       43.08419828632152
C           54.92861026383635       65.03539922667545       42.17459674816168
C           54.77388882663196       66.35848880618266       42.54905524033243
C           55.06226549559149       66.75179946467993       43.84448062158732
C           55.50446902308078       65.81206210777609       44.76023236223920
C           55.65625192478008       64.49054664804267       44.38294146530107
C           54.55615836979971       61.74344345590340       43.42821987660778
C           53.08209161245420       62.13731032372297       43.26516131031872
C           52.61158190987786       62.03289288506184       41.83720280217832
C           52.67936432991029       60.83468545731148       41.13497793886697
C           52.16972986287001       60.73348122791823       39.85367987687049
C           51.57104036725442       61.82812533036977       39.25449980536200
C           51.51103940781411       63.03152142553323       39.93560013141301
C           52.03555410119608       63.13256024220797       41.21237182077194
C           52.22928926630538       61.23743427838779       44.17402931217008
C           50.71778691083426       61.41698895509894       43.98581089597354
C           50.27444988669211       62.80923023650891       44.35509364140535
C           50.45630903122328       63.31562132211380       45.63710742733435
C           50.05066054110628       64.59915267750365       45.95626957170991
C           49.45688274391303       65.40307709697535       44.99780139286585
C           49.25089417990969       64.90258799648412       43.72350487830679
C           49.65057402099103       63.61571855835052       43.41059038396162
C           49.94263376258166       60.37574835602981       44.80952283514555
C           50.04689163178075       58.96733159988234       44.21271584253310
C           49.48665460825320       58.92694186136250       42.81104027876025
C           50.24698718212564       58.41604870537822       41.76831324884657
C           49.73558160585279       58.33970060629866       40.48482888257127
C           48.45459265247154       58.78749350644741       40.22184939605929
C           47.68448931589111       59.30031962429218       41.25180844524254
C           48.19314829347064       59.36057652854418       42.53600031723346
C           49.31129963802753       57.91724003084177       45.05629619888793
C           49.85290459950637       57.72216349710627       46.48381877297297
C           51.26751245677504       57.20701501993215       46.40944556391742
C           51.53517427429002       55.87079268727650       46.13297498868267
C           52.83805346575678       55.42282005263244       46.00935681389269
C           53.89441542099546       56.30748909153245       46.13956065889035
C           53.64217152987217       57.63648597216156       46.42993017570633
C           52.33876538473747       58.07786683180660       46.56962660384851
C           48.92262626844488       56.77684859727345       47.26257778129096
C           47.86785510919149       57.49888992859414       48.12315100880693
C           47.15242057121432       58.57538115094655       47.35074303100623
C           47.44310874561760       59.90960537266813       47.61392330985841
C           46.83541498410764       60.92865784807236       46.90309114585978
C           45.91132617703609       60.62636877812699       45.91824435213721
C           45.60777839950602       59.30304548521510       45.64633003475640
C           46.22731664138099       58.28727984485865       46.35355428915353
C           46.92660618701891       56.43915703422353       48.71951696066110
C           45.61491542899047       56.96964404270330       49.31154916686010
C           44.87021033479592       55.81859699560598       49.94299797401485
C           43.77107123290529       55.25962917221470       49.30300793126290
C           43.09428395125975       54.18721551665747       49.85542662700959
C           43.50177304504749       53.66367721499650       51.06814952758184
C           44.59112176848027       54.21361038216826       51.72154155065871
C           45.27396426970771       55.27663668518422       51.15818555656919
C           45.84132637432161       58.11611865452159       50.29827571411238
C           44.52716450248636       58.56993469663394       50.94601899311533
C           43.47290313908485       58.83388192938136       49.90022135477093
C           42.28235466465132       58.11842794884323       49.90726223763326
C           41.31139746684065       58.33299322290035       48.94463025213068
C           41.51738450538787       59.27714791442012       47.95451757955600
C           42.70554732596818       59.98781712393539       47.92599389413336
C           43.67248750860489       59.76862834431532       48.88961222340696
C           44.77984582031230       59.81100648610268       51.80869126554461
C           43.64900957929093       60.07370228105427       52.81248226558948
C           43.53605580106036       58.91143262238392       53.77027233028161
C           44.58344806219005       58.59540326309845       54.62979491582335
C           44.48861569848621       57.52840627737810       55.50414552207146
C           43.35029101707639       56.74210045718581       55.52753583921228
C           42.31154085369125       57.03137576408947       54.66196131452138
C           42.40653079955696       58.10407749372254       53.79281538405498
C           43.90474888935411       61.40122613953644       53.54824885015584
C           42.64211633049772       62.22133342883195       53.86796074575959
C           43.09243934472816       63.45252967945171       54.61303017043072
C           43.49174031152080       63.38680715947605       55.94337514737990
C           43.97961876858407       64.50644739392114       56.59186237590184
C           44.07280114304127       65.71546032745715       55.92342445623060
C           43.67194331271590       65.79486004713337       54.60049658152721
C           43.19123482824196       64.67070860521925       53.95180578543880
C           41.60529632964680       61.39360311401217       54.63448063358669
C           40.43373144592042       62.22019392989229       55.18651098719628
C           39.92238596533731       63.22169465675373       54.18210938082469
C           39.94688352694335       64.58035845332219       54.46828428084850
C           39.43400324247286       65.50622919725235       53.57628624587137
C           38.87852988562757       65.08489385309703       52.38076577447067
C           38.85585770421991       63.73373474642381       52.07983223275098
C           39.37683933578940       62.81228967451151       52.96968978215823
C           39.26527354679890       61.30933698756003       55.59823068356261
C           39.55788732201147       60.42268373436173       56.82087456548062
C           38.79398076461985       59.12618741346639       56.71745103258720
C           39.47008033150627       57.91182426167520       56.70228501125835
C           38.78487170725142       56.71803013890850       56.55745426266304
C           37.40905792930251       56.71766964483336       56.41028917283987
C           36.72375930673382       57.92106332737211       56.43792108007650
C           37.40859394697006       59.11312400569616       56.59781602934803
C           39.22059319194751       61.18317611275433       58.10783157877675
C           39.64997833856742       60.42869557771827       59.36935403103532
C           41.14154008541927       60.20473796332328       59.40345675582371
C           41.64941936612277       58.91830182791768       59.54142685030046
C           43.01367739654290       58.68819658195094       59.58095135551299
C           43.89512746013408       59.75002575812114       59.48506136454078
C           43.40181646503057       61.03677382030759       59.35604375595801
C           42.03784053287868       61.26509843875678       59.32110963005296
C           39.21708869395686       61.19063424038931       60.63101501264681
C           37.71878964885656       61.06347153033873       60.95126945338392
C           37.31028013501980       62.17427298463686       61.88359150349550
C           37.80123759999469       62.25043396243201       63.18125499418457
C           37.42207469864476       63.27975673171194       64.02312900071323
C           36.55047914696516       64.25991732031537       63.57989893768218
C           36.06536758528792       64.20249558127126       62.28482116562288
C           36.44336099090719       63.16797236115459       61.44722345701407
C           37.41375872524672       59.68103153917345       61.54130551430374
C           35.96721028449923       59.53353434400388       62.02379760852095
H           64.26710772997940       60.99798705804223       39.59278476381994
H           63.43739615792537       63.18275929914632       40.22128940130374
H           61.81343328324082       62.79877846443076       39.66662774722722
H           61.48974901605787       61.15637819618259       41.38567968155697
H           61.97480425517254       62.57630933429622       43.49887872385809
H           62.67077921599009       63.76645007865240       42.40673904181448
H           60.42001743896226       63.71152891698365       41.14178704708191
H           59.60850748031115       61.59303623337657       42.21105921919585
H           59.47771387141722       62.44520193997623       43.74972009341464
H           57.90397658942084       64.06703637108181       42.70435942154246
H           57.15618385590285       62.06738394574752       43.96415337259380
H           55.30713918467518       62.58039808223548       41.59161812001879
H           54.69503700709387       60.71594444363038       43.08709434277153
H           54.80881567829913       61.77601336457897       44.49016654843712
H           52.96016837731993       63.17795423132298       43.58942128097783
H           52.48537957647512       60.19863426148756       43.96358212104975
H           52.49286436145357       61.44278517353220       45.21343984809364
H           50.48149806161643       61.25633036431590       42.92817228259983
H           50.33011603954497       60.37723948654420       45.82779876766345
H           48.89304397528439       60.67169846827110       44.86379185613351
H           51.10112218761313       58.67688786466235       44.16704075343907
H           49.86470108527319       58.68858840498264       46.99441215884216
H           48.41714813692796       56.11734707749405       46.55629094721824
H           49.51554569916121       56.14559441799999       47.92825719561770
H           48.39216528367552       57.98793493361041       48.95045482310044
H           46.66814693155241       55.70760605974893       47.95037218367150
H           47.47488229702081       55.91077700187242       49.50185107722154
H           45.00583534110078       57.36012482727279       48.48954732097800
H           46.54256034085283       57.81870556202635       51.08038362785263
H           46.28568490492091       58.95696591324781       49.76566460481033
H           44.17020077881840       57.76369999815066       51.59618266471480
H           45.72109291339256       59.68401786370715       52.34742916735910
H           44.87937901607911       60.68170449102743       51.15940698041049
H           42.71833102298787       60.16325662257811       52.24119239834234
H           44.44096306158985       61.20796611393028       54.47795902739209
H           44.54875806493903       62.03256784270697       52.92993276941461
H           42.19228572045154       62.54350707475827       52.92108814494706
H           41.20764508393505       60.63489541486729       53.96162349831372
H           42.09573005443435       60.87245731568626       55.45799382298537
H           40.77842142628666       62.77443702929758       56.06613869322119
H           38.39975389532767       61.93853229083595       55.81941502759258
H           39.00092548537216       60.67887615883085       54.74759787393624
H           40.62390609082735       60.17858417336637       56.84124493411978
H           39.71157164019912       62.15819073970626       58.08275048956705
H           38.14445965847939       61.36644075411402       58.14409217566457
H           39.16110010806150       59.44891043531745       59.36049017815510
H           39.78357405443710       60.82060051573377       61.48679333464832
H           39.46918235020463       62.24526817146569       60.50476483880701
H           60.66209803461494       61.10201717522498       38.46646228211927
H           59.26259018850185       59.08267549408293       38.40081935666198
H           60.20409801729510       56.89653743818860       39.02405425652722
H           62.55828053991403       56.73239588454570       39.72900335524468
H           63.96335418429971       58.75567627276431       39.81405069499364
H           65.00189302917082       62.48075375710305       41.79292605843050
H           66.77454154069042       61.12738584019339       42.81367326026499
H           66.26602373439344       58.92475287549691       43.76990071565497
H           63.92406244133225       58.08351422049767       43.73026135623879
H           62.16832041275517       59.41500732359547       42.66322142431288
H           60.68881507520401       64.06387767190998       44.88550878623166
H           60.44608264765155       66.22091602335510       46.02581080307795
H           60.01277633033786       68.27127655321199       44.72274679620799
H           59.83611677509695       68.14075049486320       42.26438510652429
H           60.08108534416027       65.97825790823251       41.12338268038568
H           58.23105407940385       61.07735763423026       40.40433049691439
H           58.05449325310918       61.27680654055840       37.97609203685813
H           57.63468936423621       63.46973212430958       36.92805136277442
H           57.36723235815084       65.46765744873157       38.35371736862789
H           57.52648446505650       65.26847949842275       40.80038048847411
H           57.05460093731805       61.14760427684926       42.46479663588296
H           54.70636428702186       64.73531217354571       41.15931920418394
H           54.42942104013080       67.08686038618181       41.82750865058285
H           54.94489777603710       67.78550751953296       44.13773589731497
H           55.73462661924059       66.11497353919226       45.77210039968631
H           56.01037537158190       63.77114089024126       45.10640923288523
H           53.12552923649145       59.96347491814026       41.59042924163225
H           52.23748646635453       59.79743131203522       39.31960354954940
H           51.16640641311029       61.74910690364041       38.25635917139186
H           51.05323621405915       63.89560246310440       39.47257095763449
H           51.98721729773629       64.07679982000582       41.73903063870657
H           50.92554772012929       62.71168293771250       46.39990800322139
H           50.20644386055001       64.97524840982976       46.95831460849888
H           49.15973715191451       66.41531331048424       45.23581430001132
H           48.77994530528989       65.51790246029468       42.96939978184976
H           49.48631916329101       63.23653686701687       42.41163883309959
H           51.25216867019021       58.06756844256638       41.95805317843853
H           50.34630850772821       57.92864493461958       39.69512356263735
H           48.05047478073560       58.74051759432736       39.22055974223726
H           46.68521002540103       59.65907862808967       41.04572079230172
H           47.57424722920681       59.74908798949745       43.33292482930580
H           48.25803964703715       58.18948304022489       45.11008197024482
H           49.38753574395880       56.95919998969887       44.53345863726725
H           50.72079165857968       55.17006459906744       46.01944706739078
H           53.03602410444604       54.38011241691037       45.80679327256079
H           54.90875239802660       55.95664979047568       46.01889757930610
H           54.46104941640413       58.33356669070528       46.54615743408927
H           52.15169584214318       59.11712133081873       46.80276071314238
H           48.15748904908706       60.15741746974224       48.38706825469486
H           47.08744937440437       61.95843975332345       47.11437203201663
H           45.43847800713609       61.42109141976663       45.36008720067753
H           44.89103406223756       59.05725224614220       44.87530092699256
H           45.99210632268693       57.26123068584698       46.11372294195659
H           43.43315858617875       55.67487550039051       48.36456533270552
H           42.24267942000087       53.75903902552025       49.34668723004044
H           42.97408954825467       52.82447240057353       51.49514810352899
H           44.91356334186964       53.80803221961857       52.67022150566208
H           46.12859632560560       55.68694446069590       51.67657077784565
H           42.11405405681208       57.37610522564256       50.67360460331182
H           40.39288234118123       57.76386069546642       48.97258439611262
H           40.75637690895820       59.45440150792324       47.20674909482939
H           42.88416455881308       60.71036604632805       47.14164544896747
H           44.59928301446907       60.32177267900813       48.83965287652578
H           45.48908925832270       59.18505055676457       54.61433085517550
H           45.31009159975013       57.29602193886035       56.16561020414695
H           43.27891499824118       55.90889954438234       56.21131725221870
H           41.42172783085572       56.41962761151923       54.65885684819016
H           41.58965152657841       58.30804859601992       53.11650733108206
H           43.42125993303473       62.45474944092703       56.48486264041990
H           44.29443085960828       64.43944104263508       57.62315967783967
H           44.45857584793306       66.58933597980395       56.43164544997265
H           43.74003354656767       66.73443340140724       54.06912568157497
H           42.88438072400240       64.74293527939841       52.91636650246723
H           40.37120070825994       64.92157010309070       55.40294131728993
H           39.46021749105434       66.55983806939803       53.81986710891866
H           38.46204552310842       65.80636810189132       51.69168182024664
H           38.41961750342919       63.39342463864522       51.15131155496304
H           39.34806057855203       61.76307967443894       52.71531322222680
H           40.54723122185904       57.90563707519748       56.79690939531491
H           39.31930416144672       55.77909084438578       56.55798662510234
H           36.87789914827543       55.78499324776884       56.27413641740017
H           35.64686880853170       57.92756763505299       56.33208081460752
H           36.86115799742285       60.04473037482474       56.62454422053695
H           40.96076439932700       58.08791044271344       59.61976489796512
H           43.39039965556722       57.68073387680197       59.68120997379180
H           44.96194775310196       59.58191663469918       59.50697500168011
H           44.08715520468455       61.86853010333742       59.28174229610887
H           41.67292675477675       62.27909265411831       59.23321200364220
H           36.06002432889937       63.12985984792612       60.43730956210701
H           35.38775474419643       64.96599376637202       61.92790895298360
H           36.25318129706187       65.06468770345718       64.23731017850311
H           37.80948421941677       63.31837420323153       65.03157356600553
H           38.49301388095283       61.50487444479781       63.54051968988342
H           63.95689034552237       61.12057705397507       37.14503522094838
H           62.55838685923492       62.17799479002025       37.35123248251616
H           64.16292360302603       62.73328467661124       37.83113978539851
H           37.14254611580681       61.17948388335854       60.02762644923681
H           37.61508182394162       58.92091057871583       60.78497784236593
H           38.08614627308771       59.49969789649492       62.38012020935367
C           35.67209906995596       58.09060649775930       62.46232478850062
C           34.97140356505004       59.92189643375659       60.96073365211201
C           33.98349207976514       60.85743259058341       61.24116450721662
C           33.03126609538891       61.19459275885365       60.29503682179585
C           33.05269747094805       60.59684443490981       59.04656214849342
C           34.03581510479983       59.66670399917976       58.75501978512941
C           34.98592495416702       59.33129213249624       59.70201608920129
H           33.96071606092145       61.32921614921995       62.21461599824914
H           32.27007989140091       61.92506089077859       60.53291469757602
H           32.30873820282171       60.85817545073556       58.30721864594822
H           34.05711305929391       59.19485501990329       57.78327305787380
H           35.74074054223932       58.59961963005313       59.45534975975465
C           36.45331180582568       57.64062469278466       63.70223203542476
H           34.60231351494097       58.00559805268161       62.67195497272090
H           35.89913744213132       57.41081414922122       61.64006509776208
C           36.10057009444647       58.45949799820689       64.90901241664760
C           34.90473419203681       58.23673682083801       65.58292286355716
C           34.56460540121622       58.98869891902879       66.69290920415928
C           35.41839850830122       59.98026697399064       67.14846398600761
C           36.60962089822898       60.21374933773411       66.48416988833553
C           36.94579709306328       59.45958507440323       65.37380975460063
H           34.23632792525121       57.46096345411121       65.23508870123574
H           33.63304264523855       58.79991032931116       67.20795904117725
H           35.15458629736097       60.56519487999653       68.01787501268608
H           37.28369725610641       60.98285595393133       66.83216583977514
H           37.88170087690003       59.64873823804533       64.86887496948016
H           35.81928329934226       60.19418040165365       62.88599753380834
H           36.20837155828578       56.59221640922497       63.88665326139125
H           37.52430348905765       57.70299597839134       63.51048309437272
C           67.74291122438430       46.52106471065473       43.01299712042979
C           67.63040906994176       45.18346233412949       43.37358251212407
C           66.36810137210746       44.60416540035924       43.36317740876916
C           65.24814871555083       45.34272093728435       43.02142025110979
C           65.37029277555392       46.67906414637296       42.68466218610252
C           66.62556370392286       47.26181251493676       42.67564564885196
C           68.84566707290317       44.37252856427911       43.75059598944727
C           69.75690707631988       44.19132752790409       42.53328899068163
C           69.61403855644171       45.02287608126052       44.90808385178519
C           68.77783709941541       45.09791499895468       46.19411287715987
C           68.55218707868775       43.71558920093866       46.75398139236104
C           69.60245485910146       42.96027944257546       47.26374146073110
C           69.38364179436400       41.69457392046309       47.77757338713708
C           68.10910646780265       41.15477491353881       47.78210116101031
C           67.05695284273634       41.89170659006781       47.26719568875983
C           67.27856218728267       43.16119563440957       46.76219442953111
C           69.45687844968344       46.01625560261020       47.21932912343014
C           68.68069700067647       46.08288120262620       48.53976380901612
C           67.32364480916399       46.71606586231641       48.35830981292069
C           67.19305386883741       48.03815293732923       47.94810311290366
C           65.94375313317047       48.62055600793292       47.83153095145804
C           64.80057768012645       47.89106513082437       48.10997950168971
C           64.91733488561256       46.57247463365401       48.51156827822982
C           66.16911334117387       45.99472651101441       48.63447668822769
C           69.48148306451650       46.83480671081740       49.61185753450301
C           68.86102218956314       46.63406174665208       50.99728702448557
C           68.96640529468182       45.20040788784916       51.45707621966204
C           70.18817704831892       44.54042508186496       51.51847008527030
C           70.26613187922743       43.23636095705372       51.97353334191610
C           69.12348714000765       42.57087156789063       52.38404286788850
C           67.90275153120167       43.22073846234777       52.34007976352812
C           67.83025500593733       44.52324487563615       51.88125759080162
C           69.48871136844106       47.55636220133799       52.05489783056381
C           68.88696013859676       48.96840140093654       52.06072544604683
C           69.44595126611436       49.86711138616378       50.98803849437166
C           68.59723278207450       50.46093052848289       50.06017480186202
C           69.08658228844280       51.32652464725779       49.09809236567557
C           70.43974393840230       51.61277038841483       49.04675248823700
C           71.29561910814917       51.03082821921242       49.96671707773684
C           70.80167219446102       50.17053014952561       50.93142812328627
C           69.08542657234564       49.62312534909561       53.44053270786570
C           68.02163252610723       49.19595841728515       54.47126360782660
C           68.56234043028833       49.50327888565820       55.84564554530902
C           68.56087463686346       50.79065066204185       56.36989030607870
C           69.11672588841719       51.05222484982502       57.60838158118260
C           69.71274152844765       50.03693425280882       58.33590974552133
C           69.74257385599761       48.75418939767726       57.81570573711848
C           69.15950553359967       48.49198331644585       56.58865524899869
C           66.69269418946915       49.89633636609009       54.17251305455414
C           65.59729995187759       49.58991969792808       55.19758910624930
C           65.20061041050131       48.13335162553410       55.17661085876467
C           64.81990055189979       47.50191155420089       53.99794819995883
C           64.42937808226654       46.17531493940039       53.99597145192033
C           64.39929380592832       45.45523554232281       55.17691092906051
C           64.76218654373581       46.07713884047907       56.35917117938060
C           65.16210766216291       47.40196713101720       56.35660767155958
C           64.32265748542788       50.43396614992015       54.99529413502611
C           64.56186991380203       51.95458707659822       54.85370877207129
C           63.53107793759693       52.72695276360098       55.63776571160505
C           62.17650022183192       52.61403035469372       55.34861032716445
C           61.23126797798903       53.30150426485422       56.08718626941245