3258
 energy: -3427.614378397106 gnorm: 0.000708869402 xtb: 6.6.1 (8d0f1dd)
C          111.52536448359406       97.36926159912774      127.37530996339613
C          110.73087739422832       98.62764312543180      127.04923797710421
C          111.08126577300671       99.78476260365090      127.98081852458478
C          110.31006850263148      101.05471641719751      127.63097845319427
C          110.76098086201921      102.25428872551358      128.46011806654829
C          109.99122299396480      103.52012907162916      128.09398490126350
C          110.53780245084330      104.76304102738051      128.79090806131259
C          109.74364964185439      106.00943198513936      128.41159702873196
C          110.35266130801521      107.29563097986822      128.96340893374037
C          109.49594184969234      108.50595093178595      128.60529002644364
C          110.13555052116125      109.83232873777564      129.00564597043277
C          109.25579358596029      111.02972485213280      128.64366789865713
C          108.06657881154052      111.20407021567917      129.58585420721312
C          107.11801795888672      112.29678277143528      129.10350973331541
C          105.86717514990862      112.41117159031621      129.96939144639006
C          104.89723602696934      113.45568445093019      129.42355574058033
C          103.61252210434780      113.52963525695262      130.24457207990415
C          102.58032034149427      114.49877906519970      129.66662575683554
C          103.01483057669201      115.95970662361832      129.76330716351492
C          101.91492311171636      116.94597179889746      129.36863751538851
C          101.61890152650503      116.95791293297903      127.87013461392370
C          100.60764367636359      118.04542792102730      127.51027063446345
C          100.43667477939053      118.23844770075389      126.00334110962733
C           99.63102517518578      117.13694814594828      125.31836017043453
C           99.59754102246519      117.35127836698378      123.80720441977311
C           98.72990579380203      116.33246866758944      123.07396169683692
C           98.80284225427084      116.52991383967429      121.56184895708128
C           97.94349145914552      115.53303832213645      120.79000706624549
C           98.06609392999044      115.73307758419027      119.28159695612649
C           97.24998871212824      114.71721745080775      118.48756308670342
C           97.39789000006887      114.91882168356865      116.98158739403698
C           96.64675454634657      113.86108572363514      116.17792760697847
C           96.79863144499996      114.06389979493316      114.67245758333944
C           96.11508036953636      112.95974393238907      113.87044573146959
C           96.25244353813468      113.16275652999059      112.36381201046029
C           95.63097267566675      112.01435805892108      111.57321123308407
C           95.74786107782630      112.21220995318278      110.06421967377163
C           95.18073792730785      111.02614615710431      109.28855631481326
C           95.26476771315838      111.21964989024644      107.77679314830203
C           94.75298352693790      109.99730232961110      107.01914524287938
C           94.78904967930754      110.18630667867215      105.50500058691959
C           94.33968662749082      108.92799092293855      104.76653372029726
C           94.32379757683584      109.11213032417002      103.25169507842760
C           93.95218949849675      107.82232860992031      102.52376406026934
C           93.91198475159592      108.00718981591390      101.00974580387458
C           93.64320104215444      106.69906906263058      100.26887662559186
C           93.66017968869666      106.89975331937183       98.75625809565179
C           93.53951586620585      105.59309164097812       97.97596276280986
C           93.75115929024254      105.82185515623617       96.48130054066375
C           93.76378092965982      104.51852242980328       95.68652509300448
C           94.15410157718267      104.71485880797640       94.21945655055967
C           95.63382615360028      105.04928263355633       94.04654393596046
C           96.02760402620306      105.28906451339736       92.59140437490616
C           97.50317922720517      105.66529194311602       92.48319011152313
C           97.90914929064071      106.13065372677698       91.08778654405978
C           99.34473152640949      106.64935040178358       91.08168657901494
C           99.75882484028786      107.22837036890643       89.73106344156824
C          101.19057407928472      107.76884662051732       89.72917133187255
C          101.34901312564234      109.02945626092809       90.57523180068196
C          102.79764859919435      109.49270387137740       90.71195511217468
C          103.39380720016202      110.08009302815245       89.43381547632097
C          104.71231846055973      110.80788777344354       89.71164687515328
C          104.49783993690815      112.18550896422937       90.33908043810065
C          105.77733977636542      112.76401722546922       90.93811622614268
C          105.51657158091155      114.07930795003043       91.67013503316005
C          106.71251495251146      114.53111053024141       92.50435246550580
C          106.36885683936363      115.71319642409046       93.40781572463828
C          107.51819676852382      116.06765298784757       94.34779919811970
C          107.11330579251040      117.08766155599157       95.40864304681568
C          108.25484386204921      117.37722885373866       96.38056884322771
C          107.81096935684828      118.23281171438403       97.56371137652252
C          108.97209706933991      118.56215811365243       98.49823032081586
C          108.51842759621005      119.34780799335712       99.72581320120021
C          109.69911828825850      119.81190845221553      100.57459590914604
C          109.27819704932709      120.62961055205201      101.79612850927813
C          108.65227710906504      119.78491914828564      102.90320818485924
C          108.38356294775623      120.60456272791647      104.16312551108159
C          107.79261128736242      119.74500498828539      105.27708248905371
C          107.53706123762643      120.50844443678521      106.57646248441839
C          108.79379274207631      120.98506576673724      107.30459474460450
C          109.67830971142112      119.85394011084929      107.82247219141419
C          110.88405841751973      120.39981605240204      108.58182767757688
C          111.83151327292687      119.32554330944993      109.11490016562250
C          112.53151939168325      118.54293183491427      108.00858133053028
C          113.58208282242909      117.57527191533779      108.54759473429682
C          114.14256861264502      116.68202952658029      107.44451037374365
C          115.15818106245754      115.67315258948929      107.96921083358457
C          115.76659097084658      114.80893509521762      106.86503460231427
C          114.81738490040992      113.74253956793757      106.32182646990127
C          115.49453782895681      112.89264685195690      105.24977764783067
C          114.56489263013034      111.84565693570917      104.63912757619772
C          115.25786492564929      111.07878089536463      103.51441751525651
C          114.33888842206055      110.12751431629152      102.74682747312400
C          114.01027134102841      108.84396522888426      103.50460843822462
C          113.09057220735406      107.93431368629986      102.69368428568642
C          112.68782114548621      106.67257869517121      103.45287955734341
C          111.70070303909020      105.81939203536349      102.65905060769690
C          111.27970925989993      104.56310614650431      103.41632879480896
C          110.23849237139534      103.74412447386911      102.65880643902452
C          109.87131504104602      102.45002754913227      103.38137585992848
C          108.74815495489536      101.69393467014814      102.67441185153508
C          108.33838352327089      100.42005186562649      103.41087898990430
C          107.11643187772444       99.76063991751651      102.77466445827245
C          106.70701049585374       98.44595437558048      103.44144535486923
C          106.12207772574195       98.62444047312248      104.84034767876682
C          105.63310724220716       97.30584775639552      105.43957354683876
C          104.95742709650992       97.52466820486816      106.79142503252625
C          104.42279923532988       96.24921933573324      107.44538220986995
C          105.52276568995558       95.37955563987397      108.05018694188317
C          104.99665548170624       94.09703122552727      108.69936510824343
C          104.14922782762859       94.29474814936138      109.95969815936540
C          104.92455972662273       94.91095112068383      111.12219750613330
C          104.14515956600660       94.87683139094929      112.43641559303451
C          104.93699158332988       95.54835865181283      113.55497560693210
C          104.22594956324915       95.55180317463146      114.90488954484012
C          105.08227591338658       96.22369017000634      115.97511200546839
C          104.46713523485261       96.15715636246740      117.36848995710039
C          105.38636776164586       96.77799116471824      118.41787319057724
C          104.77200182522314       96.76349940873756      119.81440879623847
C          105.73155618078782       97.31010247936720      120.86294194863780
H          103.85490303068542       97.35897811860166      119.81467363861212
H          104.49808759983544       95.74033262944735      120.07717378673723
H          106.33206384908088       96.22944381787669      118.43722854429417
H          105.61601561868949       97.80882566040582      118.13505384908807
H          103.50452702718920       96.67384468697298      117.36808473242316
H          104.27668982954461       95.11325502124062      117.62924975151338
H          106.06039264995989       95.73803556987102      115.99898963152333
H          105.24544557685505       97.26846050388053      115.70380879524247
H          103.26884061258855       96.07399958063122      114.81828023016918
H          104.01352288386899       94.52375525408659      115.20640458086062
H          105.89399527875418       95.03362044103410      113.66209956616646
H          105.15251076913630       96.57951705348104      113.26701558641832
H          103.18642447970463       95.38380655874535      112.30755360035880
H          103.93247544633726       93.83864586727806      112.70712057423815
H          105.86504028368226       94.36883717506566      111.25323746461127
H          105.16936501425997       95.94867524636079      110.88999028062435
H          103.27951120533707       94.91373272602426      109.73033543701411
H          103.77375670425776       93.31495082389600      110.26902269898119
H          104.39979705953151       93.55365257722093      107.96135900029182
H          105.85064975931486       93.46411880681624      108.95698029069489
H          106.22493607716379       95.09334300115412      107.26346556232059
H          106.07984046475391       95.96193553582174      108.78667569568030
H          103.72407668756844       96.53711387508035      108.23359164762290
H          103.86430739265620       95.66758027265450      106.70707124841967
H          105.66541460663376       98.00343340829626      107.47038816260418
H          104.12073778658778       98.21352047498648      106.64930364836130
H          104.92400918358815       96.83269651546134      104.75383016355261
H          106.47976641978769       96.62509088576523      105.55139181987211
H          106.87454691045262       99.05235084501635      105.50455477919503
H          105.28630247377305       99.32718608902091      104.78812776380131
H          105.95985062591676       97.95419990088367      102.81168781781382
H          107.57378032422771       97.78406998193135      103.49270548828343
H          106.27445267492222      100.45744621501439      102.80773312352746
H          107.33743371779460       99.56020080200771      101.72213318121865
H          109.17290023331977       99.71522613534464      103.40493426445369
H          108.11723584871201      100.66512388889802      104.45130057770938
H          107.87836570447911      102.34885499775245      102.58340887463166
H          109.06753674683360      101.43548796488869      101.66235050787991
H          110.75494019878539      101.81044285574863      103.44718644853788
H          109.55954479373870      102.68715179842523      104.40143535276225
H          109.33870255048821      104.34930374095092      102.52807832658813
H          110.61934497782539      103.50555573929111      101.66417146137634
H          112.16078080413666      103.94428803019170      103.60224497009354
H          110.86570037801978      104.85610534247297      104.38492472062821
H          110.81482086674167      106.41766048853833      102.43260574116283
H          112.15398079713728      105.53181020056371      101.70666021140508
H          113.57992431157155      106.08317538681293      103.67944779468596
H          112.23211481186355      106.95639799788462      104.40508656499863
H          112.19036819162935      108.49150989534574      102.42351105121287
H          113.59050116769622      107.65287138933941      101.76198896078637
H          114.93622898733378      108.31066921709612      103.73633806898449
H          113.52835458346698      109.09169307854063      104.45137914791773
H          113.40842688338564      110.64647111759217      102.50194541870327
H          114.82145610812341      109.85807990924283      101.80281958076466
H          115.67018603136702      111.80517063259897      102.80763984476776
H          116.09905323161200      110.51657853452497      103.92608017519105
H          114.23930334403674      111.15434593534947      105.41695546337925
H          113.67565337994073      112.34112570004318      104.24193811595420
H          115.85808377782507      113.55355396852562      104.45741775682957
H          116.36841079198690      112.39498494540639      105.67913198954521
H          114.48600731314940      113.09967197139461      107.13978892148222
H          113.93452553184189      114.21866258532104      105.89240745928468
H          116.09031186328586      115.45526514411077      106.04537648756641
H          116.66010793072276      114.31305786181211      107.25457054761746
H          115.96088378331942      116.22001439066904      108.47294845187331
H          114.68110227198390      115.03057837214941      108.71155915854703
H          113.31798638315431      116.15357246003083      106.96104395980075
H          114.62390211172278      117.30701108037512      106.68859849809051
H          114.39502863901217      118.13892244135243      109.01244539707875
H          113.13497867387515      116.94755494002635      109.32333976120307
H          111.79297710033947      117.97786102865052      107.43698065618791
H          113.00811762868530      119.24589609459774      107.32207380471344
H          112.58935026955774      119.80776919035146      109.73829287394385
H          111.27567082040316      118.63580088361334      109.75213125383691
H          111.44081434504507      121.06996733701452      107.92234262382846
H          110.52133780028446      120.99497247717036      109.42372352357619
H          109.09109502011822      119.21364533155742      108.48612640509580
H          110.02077611913944      119.24733027560352      106.98406953833197
H          109.37845980424584      121.62786628214313      106.64334407091472
H          108.48167581749027      121.59929904221434      108.15277482916852
H          106.91774393377968      121.37928639215457      106.35097934637665
H          106.96584938669324      119.86559785750384      107.25162072716812
H          106.84277011285768      119.32780070717658      104.93022059550124
H          108.46504752312823      118.90749176883391      105.47127865399915
H          109.32205130873949      121.04987301789956      104.49676681395663
H          107.69469908969775      121.42047595367941      103.92841173351131
H          107.71501721982382      119.34868409516250      102.55138352770642
H          109.33081301862354      118.96444008314124      103.15054807405171
H          110.15957180577870      121.13350394841294      102.20142558213654
H          108.57481700037893      121.40699689447020      101.48654244479505
H          110.27580411348902      118.94322437728786      100.90154592394676
H          110.35625521426147      120.42308625666807       99.94962499547027
H          107.94601158521083      120.22169713954605       99.40294721952962
H          107.85527374482926      118.72166556653089      100.32518134316160
H          109.45340131239826      117.63563375215712       98.81968025807157
H          109.71695988848533      119.14607016067501       97.95073665137491
H          107.36719983065213      119.16190588788541       97.19617653977112
H          107.03823930397537      117.69931446328295       98.12277941211018
H          108.65221571620789      116.43202796214123       96.75716184116273
H          109.06274741373632      117.88537824740574       95.84748064586496
H          106.79374659709457      118.01594353355408       94.92836251598099
H          106.25720493786842      116.69796032752026       95.96586485183019
H          107.85399234619702      115.15839190478357       94.85132744266856
H          108.35981745936994      116.45565648693304       93.76828586857732
H          106.10369390965802      116.58187087201330       92.80011487662932
H          105.49074687581297      115.45285683460479       94.00520426268150
H          107.03647574058941      113.69791169528114       93.13227674745890
H          107.54574923417400      114.79578691886717       91.84864481050579
H          105.24949811756524      114.85771993072402       90.95123600303637
H          104.66143773726650      113.94452260073921       92.33644414139577
H          106.18583561024120      112.04234528734388       91.64906083367515
H          106.52315248432754      112.91483429366285       90.15361499977507
H          104.10046833916324      112.87031006368484       89.58574341143387
H          103.75294149836007      112.11006281507524       91.13337791527674
H          105.31377460223011      110.19284982865709       90.38490380450598
H          105.27318244996734      110.92316464825808       88.78078338834644
H          103.56850262995935      109.27870116125111       88.71289894446508
H          102.68428150478748      110.77969183838123       88.98510881785089
H          102.83388568079916      110.25355680554003       91.49396310819702
H          103.41509123066615      108.65279083041396       91.03988439844211
H          100.75039250672711      109.83478096252760       90.14285322307880
H          100.96416836501274      108.83517644011476       91.57753677495424
H          101.86249586376584      106.99699991912648       90.11128459560500
H          101.48521872771134      107.98581691462442       88.70002093929536
H           99.67204822957737      106.44767684530585       88.97030636886396
H           99.07086292025028      108.03175331451514       89.45434712808107
H           99.43030377693788      107.41917207572332       91.85023046558756
H          100.02438579781396      105.83736092278953       91.34976457193777
H           97.80533914936697      105.30906168952767       90.37453459968972
H           97.23731382060984      106.93107875156156       90.76614987883049
H           97.70753005053869      106.47211949670087       93.19067795300764
H           98.11973520504924      104.81127515687247       92.77280455188597
H           95.82488633656907      104.39523465699267       91.99588778971011
H           95.41774689064324      106.09960272439646       92.18370797089619
H           95.87298071202538      105.94930711504256       94.61533121711196
H           96.23576232405914      104.23166979682505       94.45102628646083
H           93.93126423983804      103.79896444648647       93.66549578011595
H           93.54674749656226      105.51452679791717       93.78794342092360
H           94.47026350951319      103.82729700874312       96.15214764205068
H           92.77267248215470      104.06000263064654       95.73709165620255
H           92.96546684771518      106.47635092814890       96.09555839156843
H           94.70344731850186      106.33649978481709       96.34755096711045
H           94.29416010983401      104.88934714510324       98.33594245933206
H           92.55892669029515      105.14323049539783       98.15088415853857
H           92.84698201615393      107.57084423460137       98.46775638692549
H           94.59863071809455      107.38579055864813       98.47948579320979
H           94.41017038919044      105.96947016021548      100.54059906183697
H           92.67691496749779      106.29174067501802      100.57768266836457
H           93.13806479195385      108.73549848749151      100.75269681722681
H           94.86883306880405      108.41478035519594      100.67523735090893
H           94.68339342905929      107.04846939598181      102.76991774837028
H           92.97624199753926      107.47462685604629      102.87382132194787
H           93.60917607952391      109.89666763961277      102.98854330508786
H           95.31013364639811      109.44180097169789      102.91787901129915
H           95.01256536378821      108.10502223113595      105.01936530778283
H           93.33839876940462      108.64738109906219      105.10586583978217
H           94.14106834446109      111.02200946314062      105.22751357898971
H           95.80482902907468      110.44206454634812      105.19651092488773
H           95.36242101467714      109.13032024462889      107.28542291492960
H           93.72647571464246      109.78272044342623      107.33056310316253
H           94.67966988743913      112.09725800089251      107.48944945485918
H           96.30220844908882      111.40977306696193      107.49468482077707
H           95.73073522531996      110.12293609153896      109.56389978168002
H           94.13612879797300      110.87261929380021      109.57498499941705
H           95.21819871373994      113.12350171182621      109.77449974448110
H           96.79874765174154      112.34482367745935      109.79979356032553
H           96.12760956468357      111.08102422147861      111.84960164737821
H           94.57573272788244      111.91641142416952      111.84460320118005
H           95.77412093845537      114.10308089388776      112.07782236328629
H           97.31101607309725      113.24163111547935      112.10854294786128
H           96.55679607525066      111.99766426216823      114.14124142631313
H           95.05462216394946      112.92035544699199      114.13611022000326
H           96.37712500329810      115.03254520670133      114.39192030592787
H           97.86091977243512      114.08272686795758      114.42056482117061
H           97.02858135944710      112.87313933383143      116.44688209353474
H           95.58593757625746      113.88612003045863      116.44343757929289
H           97.02996459699769      115.91166546910166      116.71062966063300
H           98.45745009268413      114.87898319368946      116.71986784849824
H           97.58092229680121      113.70927916259608      118.75013262166392
H           96.19513799855821      114.79859463339879      118.76491406525466
H           97.73863472608086      116.74320707557911      119.02290628841456
H           99.11698090855248      115.64641112811664      118.99608194487318
H           98.25351124766954      114.51694683618381      121.04610084280290
H           96.89746471194229      115.64286905730911      121.08962341573887
H           98.48412251438900      117.54613551392946      121.31604898363514
H           99.84209919358078      116.42707153765365      121.24024305074968
H           99.06248525907421      115.32305704525623      123.32697164305603
H           97.69319329052971      116.42827113990306      123.40727863442027
H           99.22368002015907      118.35649138083851      123.59526921861161
H          100.61792073044296      117.29512703353141      123.41999031243670
H          100.07137814329502      116.16179927841694      125.53424024185034
H           98.61142501765232      117.13337455137068      125.71216416043221
H           99.93383496479086      119.19300823266187      125.82454091437877
H          101.42416306726206      118.29837148312176      125.54008839253248
H           99.64031923979357      117.81150636789410      127.96172219468484
H          100.94762741640088      118.99041096158200      127.94427884883288
H          102.54897470857510      117.14041288653235      127.32592646860289
H          101.23690888551204      115.98410238233495      127.56297365045135
H          101.00074730154347      116.71058018214303      129.91973948730453
H          102.22505337854568      117.95111822265380      129.66934653618776
H          103.31419261287259      116.16515259299975      130.79487047324540
H          103.88425742573564      116.12926348516358      129.12535215025017
H          102.39145737357809      114.23466601037696      128.62466256832397
H          101.64170896484623      114.37699207294536      130.21386325610109
H          103.16885698908777      112.53133609331785      130.28637049897918
H          103.85159670297649      113.82515920199403      131.26964460989640
H          105.39194226129601      114.42850572619511      129.41724704602598
H          104.64565709013998      113.20274835009398      128.39127605483301
H          105.36630028168408      111.43994440320193      130.00638151053391
H          106.15045680399902      112.67320394759223      130.99227219526654
H          107.64112288096561      113.25523650682392      129.08688670750132
H          106.81345225359783      112.07261382782481      128.07874694701297
H          107.51213255312592      110.26596187711176      129.65754746241757
H          108.42764193454070      111.44564406943776      130.58927882068264
H          109.85509654848208      111.94247543997874      128.66094286994866
H          108.88781154836997      110.89992461069406      127.62272744536048
H          110.33331804803741      109.83632588664328      130.08095792294384
H          111.09667686672856      109.92628159016114      128.49399064054072
H          109.32231179745504      108.51173197122921      127.52647005710755
H          108.52631893034855      108.40231836853971      129.09368975862520
H          110.44721716178181      107.22209763241892      130.05017719332528
H          111.35718342049790      107.42598516588629      128.55406019183374
H          109.69861567204970      106.08076422029670      127.32214494642429
H          108.72001150157310      105.90914562054152      128.77948375387018
H          110.50575647255613      104.62225092322392      129.87452350062611
H          111.58375578909624      104.90020263308817      128.50665862037596
H          110.04940514508675      103.67080622719716      127.01350669012866
H          108.93754644555649      103.39194522583249      128.35553233477046
H          110.62744877087245      102.03770129889753      129.52319636023654
H          111.82720743484886      102.42141567007336      128.28952806870069
H          110.45956544632483      101.28177481637611      126.57297239385174
H          109.24131330896886      100.88489057221580      127.78572073919922
H          110.86701777887897       99.49976741884601      129.01409386547456
H          112.15338262132336       99.98409240333839      127.91173404409477
H          110.93521079698225       98.92611226924639      126.01903282494422
H          109.66246655639513       98.41172583631965      127.12725127362314
H          111.25960131038778       96.56162418124190      126.69689447279586
H          112.59293482817050       97.55907696938417      127.28386250806186
H          111.32446811316197       97.04158961164988      128.39321789520571
H          106.04002305214428       98.32112153272423      120.60861092222621
H          105.26128018458621       97.32983863428508      121.84412823225109
H          106.62299318941905       96.68860472758263      120.92414379992094
C           98.46787270528843      112.45777266242372      124.51209025488093
C           97.44466238378044      112.35002340111782      123.38823285013314
C           97.95614484586865      111.48913195746512      122.23612651980639
C           96.95552267089022      111.39728876910090      121.08666556977634
C           97.51617274871127      110.60671756872155      119.90761713956518
C           96.53109280836442      110.50699302469502      118.74545060005782
C           97.13086588707972      109.75793183809418      117.55811198586639
C           96.16614159229654      109.65003479420724      116.37993023431058
C           96.77297629967219      108.85349271579948      115.22727034140425
C           95.79942260509011      108.65835105998744      114.06792973317484
C           96.45496021122948      107.93511975461551      112.89450723382880
C           95.47644210216068      107.65718237469252      111.75610322576469
C           96.17350492656908      107.01286747464100      110.56059257427869
C           95.20750943754703      106.65004046344890      109.43539581043187
C           95.94595093479639      106.07139026078984      108.23107307666841
C           95.00614742773327      105.60977278456581      107.12011643085329
C           95.78474092236173      105.07941813504782      105.91873581433293
C           94.88320252416301      104.52559555550532      104.81846417348747
C           95.70003246971136      104.03201931225186      103.62655776164146
C           94.83898909362431      103.40580897032515      102.53295653406926
C           95.68453298129762      102.93577568808645      101.35114018906374