3864
 energy: -5104.211287005684 gnorm: 0.000832530928 xtb: 6.6.1 (8d0f1dd)
C           45.04304761624329       39.45775450090844       69.92459871900668
C           43.67144041960962       39.62327956977118       69.77423134182055
C           42.85135903143756       38.51092248456833       69.91880515551033
C           43.38286595519143       37.26583595379822       70.20469677885109
C           44.74911275762249       37.11602591743147       70.36684560946144
C           45.57634317206288       38.21739372983063       70.22739405278539
C           43.06977991601151       40.98001623467532       69.51109788716445
C           43.42142314782886       41.93429324707394       70.65643849394185
C           43.52067118624303       41.57471814210231       68.17057776207736
C           43.25317124849931       40.65574048294089       66.97074165073872
C           41.84455852470860       40.11703140026953       66.95445362664033
C           40.74467789060854       40.96728747575428       66.96375873718917
C           39.45811210824424       40.46274041319799       66.91280671050116
C           39.24740318268542       39.09624258109979       66.83944512182130
C           40.33489644758088       38.23962691548930       66.81820683469994
C           41.62091214393039       38.74811337439039       66.87514342887691
C           43.49120393640733       41.39299636041412       65.64128906521897
C           44.96913628572434       41.58891768854980       65.26993015824371
C           45.03874473663883       42.55744842094130       64.11402507118515
C           44.56215121053048       42.20058609833377       62.85711481728062
C           44.60096876562613       43.09998361867472       61.80748041077790
C           45.10642830397468       44.37489721898827       61.99923220693979
C           45.56961040784655       44.74645175808612       63.24849816230577
C           45.54030490195579       43.83936075691435       64.29298700880997
C           45.63425341083541       40.24183592733410       64.93184082403778
C           46.78473610185660       39.86444802450794       65.87943974669598
C           46.99430563474075       38.37131583387317       65.84331853199801
C           47.33201085010115       37.70991958906477       64.66868035797968
C           47.45287391725343       36.33302075477057       64.63510787108331
C           47.25154609901927       35.58862595592772       65.78483207328163
C           46.92314493175063       36.23469618187981       66.96409601105400
C           46.79044638620640       37.61171007354141       66.98800297615728
C           48.05416503535449       40.63900021943832       65.50907549344549
C           49.19731906831501       40.42272559732783       66.50927812411689
C           48.80130123595335       40.83671117222062       67.90362837183632
C           48.33895449385539       42.11983390861816       68.17578013274775
C           47.98838770874381       42.49301045998640       69.46100435816818
C           48.11093903657564       41.59034289407572       70.50370096627752
C           48.57603508798504       40.31133457184502       70.24800438965551
C           48.90748054851800       39.93731449793344       68.95741934832131
C           50.44427963368637       41.19597204118635       66.05205783448179
C           51.67469538502183       40.91655432845365       66.92241049981104
C           51.97583198163621       39.43830506338156       66.98309239194255
C           52.16866099514200       38.69024893193993       65.82729585099891
C           52.44005136579192       37.33646001998161       65.89750810692324
C           52.53101221959789       36.70458554510974       67.12564240881214
C           52.35634675893856       37.44102779731623       68.28463243340175
C           52.08297004599014       38.79561346288151       68.21029759356652
C           52.93180352405029       41.64215074244608       66.40938627893377
C           52.82470020195841       43.17273609656857       66.30238198410932
C           54.12715846649056       43.74067457500490       65.79203632269054
C           54.16502168352952       44.45726233980504       64.60207674801984
C           55.35170359739109       44.98248562168899       64.12210043150108
C           56.52682143484153       44.79820656465944       64.82704957140093
C           56.50184961497641       44.09540096404344       66.02084441642074
C           55.31305091391123       43.57431706979359       66.49861741606669
C           52.42877130814058       43.81428233694976       67.63925123183941
C           52.45949865526905       45.35347233161610       67.62907190794330
C           52.07417411467856       45.84860724877367       69.00126893793605
C           52.98949900176925       46.52828160387145       69.79357496905099
C           52.64723510678004       46.97018096136015       71.05952597197923
C           51.37679521200837       46.73925687850527       71.55546536908730
C           50.45614653735079       46.05501279507302       70.77986011258264
C           50.80424442991544       45.61238342285263       69.51749199214080
C           51.53777195814268       45.93251117772333       66.54716598593971
C           51.42544068357609       47.46915389090636       66.56141922392682
C           50.22964673108846       47.83149997165762       65.70734416674692
C           48.96149219283623       47.69483826499786       66.26493325870774
C           47.81706047159378       47.93607705209320       65.52852411795655
C           47.91964171950208       48.34409833204428       64.20895675865539
C           49.17262036033971       48.48809257972228       63.64150502734281
C           50.31517561839076       48.21810821161655       64.37692957410817
C           52.73666998040420       48.13633406362766       66.13108999108621
C           52.66969909144072       49.66372768972052       66.25592486316957
C           52.41202827975059       50.07447994984539       67.68651994984499
C           53.32808780064650       49.79641625223167       68.69474187277251
C           53.10582024811909       50.21722834851927       69.99286799699910
C           51.95949197163422       50.92469854416004       70.31028432482796
C           51.03663312946217       51.20330703171618       69.31814585210101
C           51.26317925350280       50.77899662722996       68.02109353164659
C           53.95341167637257       50.37004650186515       65.78589799363228
C           54.31605588367607       50.20827625953708       64.30186788096569
C           53.14238230027856       50.39917962566921       63.37257598943417
C           52.92859141553413       49.51297148160384       62.32355500916562
C           51.89716097162113       49.71007116922910       61.42069010264051
C           51.06186917572281       50.80558182889833       61.55207255888013
C           51.26054650831197       51.69220793042275       62.59664073157503
C           52.29212259017191       51.49252682200548       63.49591773089077
C           55.37666229372170       51.24866971170058       63.89375824674178
C           56.76496956435537       51.06957436567853       64.54046487646200
C           57.35372655011005       52.41522753418320       64.87930956694649
C           57.41588943348398       53.42404308171542       63.92522799379746
C           57.95493973080298       54.65927017782176       64.23245767167178
C           58.44037071735607       54.91147911503946       65.50419213374620
C           58.37324883009077       53.91886955111067       66.46667610915620
C           57.83149017509663       52.68349322230532       66.15554005056154
C           57.70277578968947       50.28502417905199       63.60932155407840
C           59.09837273172414       50.04495356035655       64.20610263172334
C           59.03238498666781       49.32990314161577       65.53047253298070
C           59.69058150290690       49.84661723108703       66.63974145587264
C           59.64333432026525       49.19911060616479       67.86186927719939
C           58.92680553935239       48.02219288754637       67.99692905062956
C           58.26788935926252       47.49587550322528       66.89888500013377
C           58.32678865847333       48.14092779632200       65.67689432464348
C           59.95569532941154       49.24861575439211       63.20984278250140
C           61.44196667735444       49.16754480455982       63.59150463287965
C           62.05994921840199       50.53727374137239       63.70253391511149
C           62.66438532586090       50.94425843391065       64.88561419874765
C           63.24025705838648       52.19801067028746       64.99609741714937
C           63.22795667231712       53.06739920779960       63.91880812987268
C           62.63765210928165       52.66771139144998       62.73182035065598
C           62.05898003828754       51.41630836243758       62.62573538698179
C           62.18418067040795       48.31699541801947       62.54571698148770
C           63.70509944126724       48.29508316462416       62.73785728174101
C           64.10319447847041       47.81893195262253       64.11168725192610
C           63.60163356254384       46.63716667984725       64.64533101450573
C           64.00320150854961       46.19747113885963       65.89371512429739
C           64.91999971127709       46.92894865096440       66.62987362125371
C           65.43456168631356       48.10197823650672       66.10431988173183
C           65.02916597510348       48.53949744403403       64.85576923743267
C           64.39784034642646       47.39271020726272       61.70148350270899
C           64.22861665664939       47.86069775911471       60.24067539527100
C           63.38401324558647       46.87524076222008       59.47219077955007
C           63.83543876659235       45.58677922369836       59.20637852591264
C           63.02538717290859       44.67665383914688       58.54878920081124
C           61.75026697058864       45.04050013121115       58.14891405603544
C           61.29889918817695       46.32540431541140       58.38990538217038
C           62.11318535927652       47.23215806452947       59.04260674923592
C           65.57367615536833       48.07281017624098       59.53130844191958
C           66.37935031137016       49.27870648289989       60.04491499886705
C           67.71485270882091       49.28903677624527       59.34506130816094
C           67.80427384295695       49.48912443858929       57.97192273423634
C           69.03117218157406       49.49128267509508       57.33495748113298
C           70.19372362553817       49.28525684251962       58.05845017949821
C           70.11808354992455       49.08007637288564       59.42503394794834
C           68.88776644435539       49.08445258805821       60.05953082797384
C           65.62188797274688       50.59798010644774       59.83455012454289
C           66.48429323012503       51.84726620974839       60.06534878081254
C           67.13709717743514       51.83706872486589       61.42330619725524
C           68.51938577231860       51.90774480756472       61.54229454080664
C           69.12847357289189       51.92703604922107       62.78492164640927
C           68.36024031268198       51.88015250757515       63.93558280109871
C           66.98145759693226       51.80930521864415       63.83073419332846
C           66.37749867228106       51.78402217453680       62.58699790236312
C           65.61736876280062       53.10400730656777       59.90336526313568
C           66.44454660372197       54.39235741225364       59.78927014503886
H           41.98001026853723       40.86532470463922       69.48206891508285
H           42.99485327041204       42.52034766456310       68.02928696806990
H           44.58925885232851       41.79390753148117       68.21937256452415
H           43.93569496031366       39.80178260097426       67.03456813634639
H           43.01178111959884       40.82555892488769       64.83847370021434
H           43.00149942703692       42.36905495696953       65.69110838457928
H           45.48074802237446       42.03913186409351       66.12638000192392
H           44.88136340496768       39.45230817595531       64.96476893249876
H           46.01840673093304       40.27572525198526       63.91156811486582
H           46.50031697981054       40.13382862798342       66.90306068035157
H           47.81101145859422       41.70067532733366       65.44339556858360
H           49.43714867795984       39.35286761053164       66.52543095959079
H           50.67021835166937       40.92223496305331       65.02108075197515
H           50.21775902595884       42.26231834760416       66.07834613055826
H           51.46156989628257       41.25491669382101       67.94180395158298
H           53.75606613861596       41.38489130565537       67.07918481155072
H           53.18533576143453       41.24678311181709       65.42239320845890
H           52.04935016399672       43.40584159966796       65.56914873463505
H           51.42390360640334       43.48476393783453       67.90663076162114
H           53.10579584225499       43.46561359331078       68.42380366304491
H           53.48721712401475       45.66769514156306       67.42193070389501
H           51.21056853228335       47.78441692303933       67.59113955630175
H           53.54315672359800       47.76446094604319       66.76445286570436
H           52.97369324661967       47.85802068434170       65.10425721089399
H           51.83543674826751       50.02155439232249       65.64376780128964
H           53.84001286294775       51.43509970645903       66.00779957095621
H           54.79049851680418       50.00806291684948       66.38520746990599
H           54.72947751476874       49.20609702961853       64.14678645570278
H           55.48547810611439       51.22073750331640       62.80679451431158
H           54.98746458421961       52.23610903460204       64.15291914433207
H           56.66444560327106       50.50470697025494       65.47158595707592
H           57.23722658935600       49.32728366698740       63.37129781660319
H           57.82473402153152       50.83718274754727       62.67525743972792
H           59.57315756319385       51.02027179202312       64.36499577839655
H           59.56399248964586       48.23199604254188       63.14232661814835
H           59.86229739705325       49.71455780076604       62.22622468081821
H           61.52640079563559       48.67459209830102       64.56680685881584
H           61.79814762348898       47.29787195223236       62.58092337024033
H           61.96400219639884       48.71599884935126       61.55573430749936
H           64.08676229991627       49.31458031263951       62.61243681670796
H           65.46005011554840       47.34712877982913       61.94800280254454
H           64.00523517627651       46.38038595610780       61.81186535667732
H           63.70431590088124       48.81855936337204       60.23264800897616
H           66.19193117019540       47.17792055581287       59.64036306525226
H           65.38290445001628       48.21383522381180       58.46373373244719
H           66.56122205664569       49.15466654050775       61.11809270258394
H           65.23334815843818       50.63265633494275       58.81502866435171
H           64.77345689866365       50.63342288603475       60.51908917225248
H           45.70807016962002       40.30223710397302       69.81285349414551
H           46.64387437278543       38.11131128084179       70.35971787943625
H           45.16623279281764       36.14746097207554       70.60281525181750
H           42.72798774428908       36.41232792554763       70.30935015069748
H           41.78156197966537       38.62140471580242       69.80467364194132
H           40.88512499391015       42.03579183562028       67.01576642709234
H           38.61726493137520       41.14186097738875       66.93287907903181
H           38.24228256158061       38.70110594928554       66.79882576253542
H           40.18104100046522       37.17086097109104       66.75909089657404
H           42.46470430805605       38.07054010115575       66.86435894150655
H           44.15160734842633       41.21389907729895       62.69704309843858
H           44.22233582331223       42.80653025779680       60.83860884508169
H           45.12921123282333       45.07224693099485       61.17614908431372
H           45.95152632960395       45.74216443484506       63.42421291665048
H           45.91091682882103       44.13599703666912       65.26392028942205
H           47.49835086131510       38.26752111460880       63.76055303075816
H           47.70006065240451       35.83938037042294       63.70606550454444
H           47.34513732398784       34.51198701361817       65.76111895762746
H           46.75910105058457       35.66496910399778       67.86826488490691
H           46.51485102630997       38.10330185229155       67.90985852475409
H           48.39010367150201       40.32322839001492       64.51985255664756
H           48.24287436532820       42.84019175365695       67.37660777665582
H           47.61623686161865       43.49000325437262       69.65103566404339
H           47.84294602493949       41.87991893707041       71.50995141706073
H           48.67739360886618       39.60326351861390       71.05912405367673
H           49.25793230101411       38.93279258123050       68.76165253414850
H           52.11308800884336       39.15857341386546       64.85629397371467
H           52.58179014001818       36.77477109845031       64.98574051903007
H           52.73995436041319       35.64547785055491       67.18163437170493
H           52.43140543576393       36.95817717135618       69.24919393731135
H           51.94550616275159       39.36232119378079       69.12155931972950
H           53.25633371701947       44.60753821228464       64.03744015050667
H           55.36509210338942       45.53244070175860       63.19257411431041
H           57.45576841516337       45.19265208050786       64.44352974645523
H           57.41404260524567       43.94524331167052       66.58340641316241
H           55.31254890793053       43.03378040975541       67.43470072827620
H           53.98727933166361       46.71016109687479       69.41892259758862
H           53.37508308464081       47.49315205951047       71.66343199948912
H           51.10725417338540       47.08306528438609       72.54435825468923
H           49.46476139018775       45.86220019889240       71.16509191814291
H           50.07738028307247       45.06785470343245       68.93248881428578
H           51.89893775880316       45.63415148146701       65.56393109281167
H           50.53857632023956       45.51138678424197       66.67931853475518
H           48.87374800871902       47.38973012591650       67.29815569649730
H           46.84504675160687       47.81683557765148       65.98515009803560
H           47.02521157877597       48.55399611430747       63.63914298293695
H           49.27093147092250       48.81048510002614       62.61520771396357
H           51.27346902836161       48.32082500829063       63.89506802061128
H           54.23290660687650       49.25089111722362       68.46955466293100
H           53.83504996977811       50.00001492867724       70.76088764824752
H           51.78715875207214       51.25915548329278       71.32369035185017
H           50.13934952055562       51.75525455317507       69.56166191472377
H           50.53722202487692       50.99779311243105       67.25170824069940
H           53.57813293953664       48.65389712958130       62.21521902351091
H           51.74350202483402       49.00206780985638       60.61850037041690
H           50.25909571721896       50.97143349780452       60.84768717641742
H           50.61235093741928       52.54828329142418       62.71353705303913
H           52.43041434144229       52.19872228068795       64.30253370241594
H           57.02523721256237       53.24691798559053       62.93532626841854
H           57.99404080510016       55.42964897907112       63.47687882871300
H           58.86136763357879       55.87710069401508       65.74666154410124
H           58.74105071974006       54.10867199738857       67.46591035056079
H           57.77880623325446       51.91658261381481       66.91656822390183
H           60.24408039100076       50.77092128430981       66.54373432916333
H           60.16282518285228       49.61683642245831       68.71369225444413
H           58.88314040289890       47.51998638823973       68.95332477351734
H           57.70064872089153       46.58081458590904       66.99660977911026
H           57.80742730824518       47.71258404009687       64.83266095705051
H           62.68850565481519       50.26773940962262       65.72947694271723
H           63.70156082701944       52.49852991203910       65.92707017292938
H           63.67868828674932       54.04618579201505       64.00620249696213
H           62.62950620118001       53.33509231288156       61.88122850740503
H           61.59977992647872       51.12375536676315       61.69411320811096
H           62.88819010464228       46.04739378459443       64.08995358460801
H           63.59781834998746       45.27745670212101       66.29173786501975
H           65.23381473155378       46.58663681866128       67.60592713297258
H           66.15462801658258       48.67738675950554       66.66967939319025
H           65.43828230747215       49.45533448792317       64.45182346007401
H           64.82728097205043       45.29076289452060       59.52179309453106
H           63.39061227987928       43.67755599721490       58.35461012347338
H           61.10278048243682       44.33126051266522       57.65425984321622
H           60.30720569565283       46.61447776533809       58.07706326637616
H           61.75491516798112       48.23297345018789       59.23201448665436
H           66.90881990197580       49.64973688342631       57.39076492337161
H           69.08087251034812       49.65266975152792       56.26736495497310
H           71.15373424567439       49.28548172562864       57.56138024740453
H           71.01999491952417       48.91839931956246       59.99960362070725
H           68.84126509443364       48.93523707602868       61.12967193648162
H           65.29988610805994       51.72801073418908       62.53178842001590
H           66.37143167110540       51.77893821624562       64.72301194131411
H           68.83370515993752       51.90005920041122       64.90677070996203
H           70.20595412647164       51.98137975730865       62.85560135755421
H           69.12722257228464       51.94100381969871       60.64822378271098
H           44.48929415245328       42.14082465713482       70.67267166402532
H           42.89584817692200       42.87858424797177       70.54054659198106
H           43.13810837818596       41.49899747197220       71.61279934005502
H           67.27024281403443       51.86890335663789       59.30221343338190
H           65.01030022262692       52.99856692091146       59.00438978735097
H           64.94364927683604       53.18015236762130       60.75722722767718
C           65.54732615114229       55.62916343627334       59.96404246479147
C           67.16405437434848       54.42133784334871       58.46432190426000
C           66.46897122037575       54.62242123302983       57.27700266555015
C           67.12617685101533       54.62865567354957       56.06018193095993
C           68.49363482662672       54.41657065336241       56.00757053365391
C           69.19860810894032       54.21910303980939       57.18191039686951
C           68.53797568138462       54.22863173123569       58.39844740945595
H           65.40137527916966       54.77921298833260       57.30428254690711
H           66.57335924685077       54.80101901113032       55.14730163084059
H           69.00700656635854       54.40653806964409       55.05638162679858
H           70.26715555555415       54.05782104125380       57.15129534521817
H           69.09892787678803       54.08334509793879       59.31156855533963
C           65.25871728186671       55.92269870479075       61.44067000338220
H           66.03751931179548       56.50065808735463       59.52221652490788
H           64.60146628272341       55.47983263711029       59.43909014494209
C           64.28330495606424       57.05503940716764       61.58354735914444
C           62.92162059397979       56.81024444282482       61.70609193059713
C           62.02593984541816       57.85487090977761       61.84619672831559
C           62.47749025497593       59.16312744451572       61.85587995491464
C           63.83054838497430       59.41952426196119       61.71109393209654
C           64.72483850270569       58.37266507680651       61.57705387133056
H           62.55962973754756       55.79239765903664       61.70621639297842
H           60.97218456143595       57.64479826791067       61.96286514948444
H           61.78440603325581       59.98225729504775       61.98342801346918
H           64.19009975350684       60.43905435017109       61.71313599864901
H           65.78204576009676       58.57851675313483       61.47819928315005
H           67.19462006231475       54.39515059364354       60.58896273647311
H           64.85380910902103       55.02846479997220       61.91681178856455
H           66.19595851017742       56.17513460396233       61.94284172612813
C           62.94415709055139       44.96064048641188       32.45026515933277
C           63.67327732981844       43.85603475644904       32.02519710973719
C           63.29278455092569       43.23214830543576       30.84339348503936
C           62.22114869561327       43.69948275004063       30.10277787164825
C           61.50762935091165       44.80271450457121       30.53592460518830
C           61.87022646909367       45.42910886143612       31.71573577613475
C           64.85465610163642       43.34350135983293       32.81538163594685
C           65.99793583543521       44.35982677804216       32.77428989786424
C           64.45589797166781       43.02804539407051       34.26215896588325
C           63.34799758336974       41.96018564022088       34.31355291221492
C           63.92571271490927       40.57827714598190       34.47571532004999
C           63.82868609215719       39.64648030504804       33.45042750177191
C           64.34924629076717       38.37210234645522       33.59677767389435
C           64.97122205434371       38.00671077489082       34.77831741425387
C           65.07670541312390       38.92709711390927       35.80762666221705
C           64.56360690025775       40.20117328997014       35.65235070171827
C           62.32902079429993       42.26538763719485       35.41605604165490
C           61.13691749267019       41.29812024947041       35.36509336861244
C           60.48248563634785       41.34080791853069       34.00858856349151
C           60.33555478415339       40.17863267037698       33.26203969687614
C           59.75170504125138       40.20930512583794       32.00690439770093
C           59.30650689989645       41.40747481840337       31.47597137805181
C           59.45329939059750       42.57287210771366       32.20877218962169
C           60.03416290387968       42.53879926535148       33.46146642281271
C           60.15513730753444       41.62691114991575       36.49656457361218
C           59.01853813636325       40.59808220636970       36.67279772630098
C           58.75746555457515       40.42186530671564       38.14907263716670
C           58.26716670009668       41.46392285365771       38.92884442076347
C           58.15261049125029       41.32607554268390       40.30039503692398
C           58.51985465515160       40.14435040865676       40.92090496599977
C           58.99011766663082       39.09315189254824       40.15283800614226
C           59.10702869320995       39.23464245553721       38.78090615585833
C           57.77533415213220       41.02873167806805       35.88829367689639
C           56.61720110281409       40.02054350940626       35.94600924433832
C           57.07260425295995       38.63936273756711       35.55727219513845
C           57.53974902043665       38.36600283377127       34.27690930883356
C           57.95392233247748       37.09267847019381       33.93153922271004
C           57.90951133244803       36.06811293372618       34.86191520692305
C           57.44903037493195       36.32910678113272       36.14110471026775
C           57.03459927161985       37.60420905697983       36.48310955733889
C           55.48642748979160       40.51173993080573       35.03093881565670
C           54.28413287057809       39.56159070786526       34.94165558070812
C           53.72103315009170       39.25691748656099       36.30507289622174
C           53.70659997730691       37.94937732030722       36.77485638420305
C           53.18566552356315       37.64662227128207       38.02016380475958
C           52.67924432108909       38.65274283778913       38.82371660436996
C           52.70115228435066       39.96171012681027       38.37402571332673
C           53.21105281143578       40.25878405735662       37.12256041191912
C           53.22855762167364       40.18871192351943       34.01915231450204
C           51.96342105188496       39.33612517612327       33.85296915762557
C           52.28177042818037       38.01146059923241       33.21066329166534
C           52.12980725290582       36.83088676215817       33.92728703145539
C           52.43979547903561       35.60817555594603       33.35860929802817
C           52.90288506448400       35.54543402534843       32.05565949318421
C           53.04026000143631       36.71318643238579       31.32462800368099
C           52.72978911869057       37.93305953628224       31.89752798148463
C           50.90654266696689       40.11190314172816       33.04718336364853
C           50.11364524739854       41.09647256432199       33.92514059007230
C           49.14722155621003       40.31857331513495       34.77912808611545
C           49.47064207107558       40.01781777597240       36.09696696165994
C           48.63041219809703       39.24132724131534       36.87450787965995