      -----------------------------------------------------------      
     |                   =====================                   |     
     |                           x T B                           |     
     |                   =====================                   |     
     |                         S. Grimme                         |     
     |          Mulliken Center for Theoretical Chemistry        |     
     |                    University of Bonn                     |     
      -----------------------------------------------------------      

   * xtb version 6.6.1 (8d0f1dd) compiled by 'stahn@M-Bot' on 2023-08-01

   xtb is free software: you can redistribute it and/or modify it under
   the terms of the GNU Lesser General Public License as published by
   the Free Software Foundation, either version 3 of the License, or
   (at your option) any later version.
   
   xtb is distributed in the hope that it will be useful,
   but WITHOUT ANY WARRANTY; without even the implied warranty of
   MERCHANTABILITY or FITNESS FOR A PARTICULAR PURPOSE.  See the
   GNU Lesser General Public License for more details.
   
   Cite this work as:
   * C. Bannwarth, E. Caldeweyher, S. Ehlert, A. Hansen, P. Pracht,
     J. Seibert, S. Spicher, S. Grimme, WIREs Comput. Mol. Sci., 2020, 11,
     e01493. DOI: 10.1002/wcms.1493
   
   for GFN2-xTB:
   * C. Bannwarth, S. Ehlert and S. Grimme., J. Chem. Theory Comput., 2019,
     15, 1652-1671. DOI: 10.1021/acs.jctc.8b01176
   for GFN1-xTB:
   * S. Grimme, C. Bannwarth, P. Shushkov, J. Chem. Theory Comput., 2017,
     13, 1989-2009. DOI: 10.1021/acs.jctc.7b00118
   for GFN0-xTB:
   * P. Pracht, E. Caldeweyher, S. Ehlert, S. Grimme, ChemRxiv, 2019, preprint.
     DOI: 10.26434/chemrxiv.8326202.v1
   for GFN-FF:
   * S. Spicher and S. Grimme, Angew. Chem. Int. Ed., 2020, 59, 15665-15673.
     DOI: 10.1002/anie.202004239
   
   for ALPB and GBSA implicit solvation:
   * S. Ehlert, M. Stahn, S. Spicher, S. Grimme, J. Chem. Theory Comput.,
     2021, 17, 4250-4261. DOI: 10.1021/acs.jctc.1c00471
   
   for DFT-D4:
   * E. Caldeweyher, C. Bannwarth and S. Grimme, J. Chem. Phys., 2017,
     147, 034112. DOI: 10.1063/1.4993215
   * E. Caldeweyher, S. Ehlert, A. Hansen, H. Neugebauer, S. Spicher,
     C. Bannwarth and S. Grimme, J. Chem. Phys., 2019, 150, 154122.
     DOI: 10.1063/1.5090222
   * E. Caldeweyher, J.-M. Mewes, S. Ehlert and S. Grimme, Phys. Chem. Chem. Phys.
     2020, 22, 8499-8512. DOI: 10.1039/D0CP00502A
   
   for sTDA-xTB:
   * S. Grimme and C. Bannwarth, J. Chem. Phys., 2016, 145, 054103.
     DOI: 10.1063/1.4959605
   
   in the mass-spec context:
   * V. Asgeirsson, C. Bauer and S. Grimme, Chem. Sci., 2017, 8, 4879.
     DOI: 10.1039/c7sc00601b
   * J. Koopman and S. Grimme, ACS Omega 2019, 4, 12, 15120-15133.
     DOI: 10.1021/acsomega.9b02011
   
   for metadynamics refer to:
   * S. Grimme, J. Chem. Theory Comput., 2019, 155, 2847-2862
     DOI: 10.1021/acs.jctc.9b00143
   
   for SPH calculations refer to:
   * S. Spicher and S. Grimme, J. Chem. Theory Comput., 2021, 17, 1701-1714
     DOI: 10.1021/acs.jctc.0c01306
   
   with help from (in alphabetical order)
   P. Atkinson, C. Bannwarth, F. Bohle, G. Brandenburg, E. Caldeweyher
   M. Checinski, S. Dohm, S. Ehlert, S. Ehrlich, I. Gerasimov, C. Hölzer
   A. Katbashev, J. Koopman, C. Lavigne, S. Lehtola, F. März, M. Müller,
   F. Musil, H. Neugebauer, J. Pisarek, C. Plett, P. Pracht, F. Pultar,
   J. Seibert, P. Shushkov, S. Spicher, M. Stahn, M. Steiner, T. Strunk,
   J. Stückrath, T. Rose, and J. Unsleber
   
 * started run on 2024/10/04 at 03:35:44.192     

           -------------------------------------------------
          |                Calculation Setup                |
           -------------------------------------------------

          program call               : /home/abt-grimme/AK-bin/xtb input.xyz --input input.inp --opt
          hostname                   : boar037.thch.uni-bonn.de
          coordinate file            : input.xyz
          omp threads                :                     8

   ID    Z sym.   atoms
    1    6 C      1-120, 363-482, 725-844, 1087-1206, 1449-1568, 1811-1930,
                  2173-2292, 2535-2654, 2897-3016
    2    1 H      121-362, 483-724, 845-1086, 1207-1448, 1569-1810,
                  1931-2172, 2293-2534, 2655-2896, 3017-3258

molecular fragmentation (1/2 indicates fragments):
111111111111111111111111111111111111111111111111111111111111111111111111
111111111111111111111111111111111111111111111111111111111111111111111111
111111111111111111111111111111111111111111111111111111111111111111111111
111111111111111111111111111111111111111111111111111111111111111111111111
111111111111111111111111111111111111111111111111111111111111111111111111
112222222222222222222222222222222222222222222222222222222222222222222222
222222222222222222222222222222222222222222222222222222222222222222222222
222222222222222222222222222222222222222222222222222222222222222222222222
222222222222222222222222222222222222222222222222222222222222222222222222
222222222222222222222222222222222222222222222222222222222222222222222222
222222222222222222222222222222222222222222222222222222222222222222222222
222222222222222222222222222222222222222222222222222222222222222222222222
222222222222222222222222222222222222222222222222222222222222222222222222
222222222222222222222222222222222222222222222222222222222222222222222222
222222222222222222222222222222222222222222222222222222222222222222222222
222222222222222222222222222222222222222222222222222222222222222222222222
222222222222222222222222222222222222222222222222222222222222222222222222
222222222222222222222222222222222222222222222222222222222222222222222222
222222222222222222222222222222222222222222222222222222222222222222222222
222222222222222222222222222222222222222222222222222222222222222222222222
222222222222222222222222222222222222222222222222222222222222222222222222
222222222222222222222222222222222222222222222222222222222222222222222222
222222222222222222222222222222222222222222222222222222222222222222222222
222222222222222222222222222222222222222222222222222222222222222222222222
222222222222222222222222222222222222222222222222222222222222222222222222
222222222222222222222222222222222222222222222222222222222222222222222222
222222222222222222222222222222222222222222222222222222222222222222222222
222222222222222222222222222222222222222222222222222222222222222222222222
222222222222222222222222222222222222222222222222222222222222222222222222
222222222222222222222222222222222222222222222222222222222222222222222222
222222222222222222222222222222222222222222222222222222222222222222222222
222222222222222222222222222222222222222222222222222222222222222222222222
222222222222222222222222222222222222222222222222222222222222222222222222
222222222222222222222222222222222222222222222222222222222222222222222222
222222222222222222222222222222222222222222222222222222222222222222222222
222222222222222222222222222222222222222222222222222222222222222222222222
222222222222222222222222222222222222222222222222222222222222222222222222
222222222222222222222222222222222222222222222222222222222222222222222222
222222222222222222222222222222222222222222222222222222222222222222222222
222222222222222222222222222222222222222222222222222222222222222222222222
222222222222222222222222222222222222222222222222222222222222222222222222
222222222222222222222222222222222222222222222222222222222222222222222222
222222222222222222222222222222222222222222222222222222222222222222222222
222222222222222222222222222222222222222222222222222222222222222222222222
222222222222222222222222222222222222222222222222222222222222222222222222
222222222222222222
# atoms in fragment 1/2:   362  2896
 fragment masses (1/2) :     1685.21    13481.68
CMA distance (Bohr)    :  11.017
constraining FC (au)   :  0.0500

           -------------------------------------------------
          |                 G F N 2 - x T B                 |
           -------------------------------------------------

        Reference                      10.1021/acs.jctc.8b01176
      * Hamiltonian:
        H0-scaling (s, p, d)           1.850000    2.230000    2.230000
        zeta-weighting                 0.500000
      * Dispersion:
        s8                             2.700000
        a1                             0.520000
        a2                             5.000000
        s9                             5.000000
      * Repulsion:
        kExp                           1.500000    1.000000
        rExp                           1.000000
      * Coulomb:
        alpha                          2.000000
        third order                    shell-resolved
        anisotropic                    true
        a3                             3.000000
        a5                             4.000000
        cn-shift                       1.200000
        cn-exp                         4.000000
        max-rad                        5.000000


          ...................................................
          :                      SETUP                      :
          :.................................................:
          :  # basis functions                6498          :
          :  # atomic orbitals                6498          :
          :  # shells                         4338          :
          :  # electrons                      6498          :
          :  max. iterations                   250          :
          :  Hamiltonian                  GFN2-xTB          :
          :  restarted?                      false          :
          :  GBSA solvation                  false          :
          :  PC potential                    false          :
          :  electronic temp.          300.0000000     K    :
          :  accuracy                    1.0000000          :
          :  -> integral cutoff          0.2500000E+02      :
          :  -> integral neglect         0.1000000E-07      :
          :  -> SCF convergence          0.1000000E-05 Eh   :
          :  -> wf. convergence          0.1000000E-03 e    :
          :  Broyden damping             0.4000000          :
          ...................................................

 iter      E             dE          RMSdq      gap      omega  full diag
   1  -3473.4710139 -0.347347E+04  0.243E+00   11.42       0.0  T
   2  -3478.5660950 -0.509508E+01  0.134E+00   11.54       1.0  T
   3  -3478.7699722 -0.203877E+00  0.594E-01   11.48       1.0  T
   4  -3478.7904288 -0.204566E-01  0.751E-02   11.53       1.0  T
   5  -3478.7912946 -0.865808E-03  0.384E-02   11.53       1.0  T
   6  -3478.7914929 -0.198325E-03  0.664E-03   11.53       1.0  T
   7  -3478.7915104 -0.174418E-04  0.125E-03   11.53       1.4  T
   8  -3478.7915114 -0.106692E-05  0.386E-04   11.53       4.5  T
   9  -3478.7915115 -0.632472E-07  0.144E-04   11.53      12.2  T
  10  -3478.7915115 -0.393675E-08  0.423E-05   11.53      41.4  T

   *** convergence criteria satisfied after 10 iterations ***

         #    Occupation            Energy/Eh            Energy/eV
      -------------------------------------------------------------
         1        2.0000           -0.6250549             -17.0086
       ...           ...                  ...                  ...
      3243        2.0000           -0.4024876             -10.9522
      3244        2.0000           -0.4023540             -10.9486
      3245        2.0000           -0.4021705             -10.9436
      3246        2.0000           -0.4019499             -10.9376
      3247        2.0000           -0.4017596             -10.9324
      3248        2.0000           -0.4017570             -10.9324
      3249        2.0000           -0.4010131             -10.9121 (HOMO)
      3250                          0.0226358               0.6160 (LUMO)
      3251                          0.0228368               0.6214
      3252                          0.0234680               0.6386
      3253                          0.0239695               0.6522
      3254                          0.0251646               0.6848
       ...                                ...                  ...
      6498                          0.3811360              10.3712
      -------------------------------------------------------------
                  HL-Gap            0.4236489 Eh           11.5281 eV
             Fermi-level           -0.1891887 Eh           -5.1481 eV

 SCC (total)                   0 d,  0 h, 14 min, 33.630 sec
 SCC setup                      ...        0 min,  0.432 sec (  0.049%)
 Dispersion                     ...        0 min,  3.677 sec (  0.421%)
 classical contributions        ...        0 min,  0.149 sec (  0.017%)
 integral evaluation            ...        0 min,  6.566 sec (  0.752%)
 iterations                     ...        9 min, 53.002 sec ( 67.878%)
 molecular gradient             ...        4 min, 20.892 sec ( 29.863%)
 printout                       ...        0 min,  8.912 sec (  1.020%)

         :::::::::::::::::::::::::::::::::::::::::::::::::::::
         ::                     SUMMARY                     ::
         :::::::::::::::::::::::::::::::::::::::::::::::::::::
         :: total energy           -3427.531639998597 Eh    ::
         :: gradient norm              0.018543408025 Eh/a0 ::
         :: HOMO-LUMO gap             11.528072774191 eV    ::
         ::.................................................::
         :: SCC energy             -3478.791511508842 Eh    ::
         :: -> isotropic ES            0.418573451143 Eh    ::
         :: -> anisotropic ES          1.116890561537 Eh    ::
         :: -> anisotropic XC          1.946296019173 Eh    ::
         :: -> dispersion             -4.045224713068 Eh    ::
         :: repulsion energy          50.611793576122 Eh    ::
         :: add. restraining           0.000000000000 Eh    ::
         :: total charge              -0.000000000014 e     ::
         :::::::::::::::::::::::::::::::::::::::::::::::::::::

      ----------------------------------------------------------- 
     |              Fast Inertial Relaxation Engine              |
      ----------------------------------------------------------- 

          ...................................................
          :                      SETUP                      :
          :.................................................:
          :   energy convergence        0.5000000E-05 Eh    :
          :   grad. convergence         0.1000000E-02 Eh/a0 :
          :   optimization log               true           :
          :   writing optlog all                1     steps :
          :   Hessian reset                    20     steps :
          :   time step scaling                 5     steps :
          :   maximium step len.        1.0000000     a0    :
          :   initial time step         0.2500000     fs    :
          :   maximum time step         1.2500000     fs    :
          :   power reset thr           0.0000000     au    :
          :   alpha parameter           0.1000000           :
          :   BFGS update                   false           :
          :   preconditioning               false           :
          ...................................................

........................................................................
.............................. CYCLE    1 ..............................
........................................................................

 iter      E             dE          RMSdq      gap      omega  full diag
   1  -3478.7951433 -0.347880E+04  0.266E-04   11.53       0.0  T
   2  -3478.7951433 -0.293799E-07  0.152E-04   11.53      11.5  T
   3  -3478.7951433 -0.625732E-09  0.498E-05   11.53      35.2  T
     SCC iter.                  ...        2 min, 52.062 sec
     gradient                   ...        4 min, 19.951 sec
 * total energy  : -3427.5316787 Eh     change    :  -0.3865333E-04 Eh
   gradient norm :     0.0170383 Eh/a0  converged?    E=F G=F D=F
   time step     :     0.2500000 fs     power     :   0.1964930E-08
   step length   :     0.0021732 a0     speed     :   0.2102734E-03

........................................................................
.............................. CYCLE    2 ..............................
........................................................................

 iter      E             dE          RMSdq      gap      omega  full diag
   1  -3478.8004296 -0.347880E+04  0.385E-04   11.53       0.0  T
   2  -3478.8004297 -0.615055E-07  0.220E-04   11.53       8.0  T
   3  -3478.8004297 -0.135196E-08  0.720E-05   11.53      24.3  T
     SCC iter.                  ...        2 min, 51.240 sec
     gradient                   ...        4 min, 19.675 sec
 * total energy  : -3427.5317292 Eh     change    :  -0.5058962E-04 Eh
   gradient norm :     0.0148740 Eh/a0  converged?    E=F G=F D=F
   time step     :     0.2500000 fs     power     :   0.2500399E-08
   step length   :     0.0031715 a0     speed     :   0.3068593E-03

........................................................................
.............................. CYCLE    3 ..............................
........................................................................

 iter      E             dE          RMSdq      gap      omega  full diag
   1  -3478.8071398 -0.347881E+04  0.489E-04   11.53       0.0  T
   2  -3478.8071399 -0.989471E-07  0.280E-04   11.53       6.3  T
   3  -3478.8071399 -0.213367E-08  0.913E-05   11.53      19.2  T
     SCC iter.                  ...        2 min, 52.128 sec
     gradient                   ...        4 min, 19.433 sec
 * total energy  : -3427.5317838 Eh     change    :  -0.5454112E-04 Eh
   gradient norm :     0.0121712 Eh/a0  converged?    E=F G=F D=F
   time step     :     0.2500000 fs     power     :   0.2596911E-08
   step length   :     0.0040419 a0     speed     :   0.3910796E-03

........................................................................
.............................. CYCLE    4 ..............................
........................................................................

 iter      E             dE          RMSdq      gap      omega  full diag
   1  -3478.8149767 -0.347881E+04  0.573E-04   11.53       0.0  T
   2  -3478.8149768 -0.134302E-06  0.328E-04   11.53       5.3  T
   3  -3478.8149768 -0.290675E-08  0.106E-04   11.53      16.5  T
     SCC iter.                  ...        3 min,  0.126 sec
     gradient                   ...        4 min, 19.358 sec
 * total energy  : -3427.5318338 Eh     change    :  -0.5005664E-04 Eh
   gradient norm :     0.0091240 Eh/a0  converged?    E=F G=F D=F
   time step     :     0.2500000 fs     power     :   0.2252168E-08
   step length   :     0.0047505 a0     speed     :   0.4596349E-03

........................................................................
.............................. CYCLE    5 ..............................
........................................................................

 iter      E             dE          RMSdq      gap      omega  full diag
   1  -3478.8235750 -0.347882E+04  0.632E-04   11.53       0.0  T
   2  -3478.8235751 -0.160270E-06  0.362E-04   11.53       4.8  T
   3  -3478.8235751 -0.353157E-08  0.115E-04   11.53      15.2  T
     SCC iter.                  ...        2 min, 54.795 sec
     gradient                   ...        4 min, 20.779 sec
 * total energy  : -3427.5318721 Eh     change    :  -0.3829321E-04 Eh
   gradient norm :     0.0060949 Eh/a0  converged?    E=F G=F D=F
   time step     :     0.2500000 fs     power     :   0.1545876E-08
   step length   :     0.0052679 a0     speed     :   0.5096999E-03

........................................................................
.............................. CYCLE    6 ..............................
........................................................................

 iter      E             dE          RMSdq      gap      omega  full diag
   1  -3478.8333929 -0.347883E+04  0.731E-04   11.53       0.0  T
   2  -3478.8333931 -0.205847E-06  0.419E-04   11.53       4.2  T
   3  -3478.8333931 -0.468572E-08  0.130E-04   11.53      13.5  T
     SCC iter.                  ...        3 min,  4.677 sec
     gradient                   ...        4 min, 21.418 sec
 * total energy  : -3427.5318953 Eh     change    :  -0.2315609E-04 Eh
   gradient norm :     0.0039790 Eh/a0  converged?    E=F G=F D=F
   time step     :     0.2750000 fs     power     :   0.5408122E-09
   step length   :     0.0061477 a0     speed     :   0.5407442E-03

........................................................................
.............................. CYCLE    7 ..............................
........................................................................

 iter      E             dE          RMSdq      gap      omega  full diag
   1  -3478.8433844 -0.347884E+04  0.773E-04   11.53       0.0  T
   2  -3478.8433846 -0.205967E-06  0.444E-04   11.53       3.9  T
   3  -3478.8433846 -0.490991E-08  0.127E-04   11.53      13.8  T
     SCC iter.                  ...        2 min, 52.506 sec
     gradient                   ...        4 min, 20.724 sec
 * total energy  : -3427.5318981 Eh     change    :  -0.2796697E-05 Eh
   gradient norm :     0.0051366 Eh/a0  converged?    E=T G=F D=F
   time step     :     0.3025000 fs     power     :  -0.4209153E-09
   step length   :     0.0066174 a0     speed     :   0.5291466E-03

........................................................................
.............................. CYCLE    8 ..............................
........................................................................
 * reset velocities

 iter      E             dE          RMSdq      gap      omega  full diag
   1  -3478.8432634 -0.347884E+04  0.137E-05   11.53       0.0  T
   2  -3478.8432634 -0.140517E-09  0.731E-06   11.53     239.8  T
   3  -3478.8432634 -0.318323E-10  0.335E-06   11.53     523.3  T
     SCC iter.                  ...        2 min, 59.454 sec
     gradient                   ...        4 min, 20.000 sec
 * total energy  : -3427.5318986 Eh     change    :  -0.5637344E-06 Eh
   gradient norm :     0.0050731 Eh/a0  converged?    E=T G=F D=T
   time step     :     0.1512500 fs     power     :   0.4903432E-10
   step length   :     0.0001102 a0     speed     :   0.1761959E-04

........................................................................
.............................. CYCLE    9 ..............................
........................................................................

 iter      E             dE          RMSdq      gap      omega  full diag
   1  -3478.8430232 -0.347884E+04  0.274E-05   11.53       0.0  T
   2  -3478.8430232 -0.226009E-09  0.160E-05   11.53     109.4  T
   3  -3478.8430232  0.818545E-11  0.394E-06   11.53     445.0  T
     SCC iter.                  ...        2 min, 56.800 sec
     gradient                   ...        4 min, 22.099 sec
 * total energy  : -3427.5318997 Eh     change    :  -0.1097876E-05 Eh
   gradient norm :     0.0049553 Eh/a0  converged?    E=T G=F D=T
   time step     :     0.1512500 fs     power     :   0.9518674E-10
   step length   :     0.0002190 a0     speed     :   0.3502126E-04

........................................................................
.............................. CYCLE   10 ..............................
........................................................................

 iter      E             dE          RMSdq      gap      omega  full diag
   1  -3478.8426694 -0.347884E+04  0.403E-05   11.53       0.0  T
   2  -3478.8426694 -0.365617E-09  0.235E-05   11.53      74.6  T
   3  -3478.8426694 -0.641194E-10  0.583E-06   11.53     300.4  T
     SCC iter.                  ...        2 min, 53.414 sec
     gradient                   ...        4 min, 22.444 sec
 * total energy  : -3427.5319013 Eh     change    :  -0.1574896E-05 Eh
   gradient norm :     0.0047836 Eh/a0  converged?    E=T G=F D=T
   time step     :     0.1512500 fs     power     :   0.1364307E-09
   step length   :     0.0003253 a0     speed     :   0.5201712E-04

........................................................................
.............................. CYCLE   11 ..............................
........................................................................

 iter      E             dE          RMSdq      gap      omega  full diag
   1  -3478.8422099 -0.347884E+04  0.528E-05   11.53       0.0  T
   2  -3478.8422099 -0.705313E-09  0.308E-05   11.53      56.9  T
   3  -3478.8422099 -0.186446E-10  0.761E-06   11.53     230.3  T
     SCC iter.                  ...        2 min, 57.782 sec
     gradient                   ...        4 min, 20.569 sec
 * total energy  : -3427.5319033 Eh     change    :  -0.1997984E-05 Eh
   gradient norm :     0.0045631 Eh/a0  converged?    E=T G=F D=T
   time step     :     0.1512500 fs     power     :   0.1710210E-09
   step length   :     0.0004278 a0     speed     :   0.6841807E-04

........................................................................
.............................. CYCLE   12 ..............................
........................................................................

 iter      E             dE          RMSdq      gap      omega  full diag
   1  -3478.8416555 -0.347884E+04  0.646E-05   11.53       0.0  T
   2  -3478.8416555 -0.988166E-09  0.377E-05   11.53      46.4  T
   3  -3478.8416555  0.318323E-11  0.921E-06   11.53     190.3  T
     SCC iter.                  ...        2 min, 54.435 sec
     gradient                   ...        4 min, 21.361 sec
 * total energy  : -3427.5319056 Eh     change    :  -0.2325041E-05 Eh
   gradient norm :     0.0043012 Eh/a0  converged?    E=T G=F D=T
   time step     :     0.1512500 fs     power     :   0.1976609E-09
   step length   :     0.0005255 a0     speed     :   0.8404688E-04

........................................................................
.............................. CYCLE   13 ..............................
........................................................................

 iter      E             dE          RMSdq      gap      omega  full diag
   1  -3478.8410200 -0.347884E+04  0.756E-05   11.53       0.0  T
   2  -3478.8410200 -0.135788E-08  0.441E-05   11.53      39.7  T
   3  -3478.8410200 -0.850378E-10  0.106E-05   11.53     165.1  T
     SCC iter.                  ...        2 min, 53.877 sec
     gradient                   ...        4 min, 22.294 sec
 * total energy  : -3427.5319082 Eh     change    :  -0.2554922E-05 Eh
   gradient norm :     0.0040077 Eh/a0  converged?    E=T G=F D=T
   time step     :     0.1512500 fs     power     :   0.2156078E-09
   step length   :     0.0006174 a0     speed     :   0.9874258E-04

........................................................................
.............................. CYCLE   14 ..............................
........................................................................

 iter      E             dE          RMSdq      gap      omega  full diag
   1  -3478.8402426 -0.347884E+04  0.951E-05   11.53       0.0  T
   2  -3478.8402427 -0.217415E-08  0.556E-05   11.53      31.5  T
   3  -3478.8402427 -0.113687E-10  0.131E-05   11.53     133.6  T
     SCC iter.                  ...        2 min, 57.406 sec
     gradient                   ...        4 min, 21.456 sec
 * total energy  : -3427.5319112 Eh     change    :  -0.2983474E-05 Eh
   gradient norm :     0.0036611 Eh/a0  converged?    E=T G=F D=T
   time step     :     0.1663750 fs     power     :   0.2251046E-09
   step length   :     0.0007823 a0     speed     :   0.1137313E-03

........................................................................
.............................. CYCLE   15 ..............................
........................................................................

 iter      E             dE          RMSdq      gap      omega  full diag
   1  -3478.8393234 -0.347884E+04  0.117E-04   11.53       0.0  T
   2  -3478.8393234 -0.306591E-08  0.685E-05   11.53      25.6  T
   3  -3478.8393234 -0.723048E-10  0.157E-05   11.53     111.7  T
     SCC iter.                  ...        2 min, 55.039 sec
     gradient                   ...        4 min, 21.080 sec
 * total energy  : -3427.5319145 Eh     change    :  -0.3311182E-05 Eh
   gradient norm :     0.0032766 Eh/a0  converged?    E=T G=F D=T
   time step     :     0.1830125 fs     power     :   0.2239098E-09
   step length   :     0.0009731 a0     speed     :   0.1286215E-03

........................................................................
.............................. CYCLE   16 ..............................
........................................................................

 iter      E             dE          RMSdq      gap      omega  full diag
   1  -3478.8382828 -0.347884E+04  0.141E-04   11.53       0.0  T
   2  -3478.8382828 -0.429509E-08  0.827E-05   11.53      21.2  T
   3  -3478.8382828 -0.209184E-10  0.181E-05   11.53      96.8  T
     SCC iter.                  ...        2 min, 54.036 sec
     gradient                   ...        4 min, 21.321 sec
 * total energy  : -3427.5319180 Eh     change    :  -0.3510675E-05 Eh
   gradient norm :     0.0028912 Eh/a0  converged?    E=T G=F D=F
   time step     :     0.2013138 fs     power     :   0.2109831E-09
   step length   :     0.0011891 a0     speed     :   0.1428777E-03

........................................................................
.............................. CYCLE   17 ..............................
........................................................................

 iter      E             dE          RMSdq      gap      omega  full diag
   1  -3478.8371760 -0.347884E+04  0.166E-04   11.53       0.0  T
   2  -3478.8371760 -0.526916E-08  0.973E-05   11.53      18.0  T
   3  -3478.8371760 -0.202817E-09  0.199E-05   11.53      88.2  T
     SCC iter.                  ...        2 min, 55.356 sec
     gradient                   ...        4 min, 22.903 sec
 * total energy  : -3427.5319215 Eh     change    :  -0.3526494E-05 Eh
   gradient norm :     0.0025739 Eh/a0  converged?    E=T G=F D=F
   time step     :     0.2214451 fs     power     :   0.1878658E-09
   step length   :     0.0014262 a0     speed     :   0.1557850E-03

........................................................................
.............................. CYCLE   18 ..............................
........................................................................

 iter      E             dE          RMSdq      gap      omega  full diag
   1  -3478.8361113 -0.347884E+04  0.189E-04   11.53       0.0  T
   2  -3478.8361113 -0.583123E-08  0.111E-04   11.53      15.8  T
   3  -3478.8361113 -0.144155E-09  0.203E-05   11.53      86.3  T
     SCC iter.                  ...        2 min, 53.570 sec
     gradient                   ...        4 min, 21.093 sec
 * total energy  : -3427.5319249 Eh     change    :  -0.3383853E-05 Eh
   gradient norm :     0.0024112 Eh/a0  converged?    E=T G=F D=F
   time step     :     0.2435896 fs     power     :   0.1601264E-09
   step length   :     0.0016761 a0     speed     :   0.1664390E-03

........................................................................
.............................. CYCLE   19 ..............................
........................................................................

 iter      E             dE          RMSdq      gap      omega  full diag
   1  -3478.8352573 -0.347884E+04  0.208E-04   11.53       0.0  T
   2  -3478.8352573 -0.539376E-08  0.123E-04   11.53      14.3  T
   3  -3478.8352573 -0.167802E-09  0.188E-05   11.53      93.4  T
     SCC iter.                  ...        3 min,  1.255 sec
     gradient                   ...        4 min, 20.277 sec
 * total energy  : -3427.5319282 Eh     change    :  -0.3254451E-05 Eh
   gradient norm :     0.0024348 Eh/a0  converged?    E=T G=F D=F
   time step     :     0.2679486 fs     power     :   0.1371200E-09
   step length   :     0.0019279 a0     speed     :   0.1740421E-03

........................................................................
.............................. CYCLE   20 ..............................
........................................................................

 iter      E             dE          RMSdq      gap      omega  full diag
   1  -3478.8348194 -0.347883E+04  0.223E-04   11.53       0.0  T
   2  -3478.8348194 -0.393356E-08  0.132E-04   11.53      13.3  T
   3  -3478.8348194 -0.156888E-09  0.157E-05   11.53     111.4  T
     SCC iter.                  ...        2 min, 58.376 sec
     gradient                   ...        4 min, 21.171 sec
 * total energy  : -3427.5319315 Eh     change    :  -0.3284665E-05 Eh
   gradient norm :     0.0025564 Eh/a0  converged?    E=T G=F D=F
   time step     :     0.2947435 fs     power     :   0.1276326E-09
   step length   :     0.0021796 a0     speed     :   0.1788767E-03
 * RMSD in coord.:     0.0005528 a0     energy gain  -0.2914560E-03 Eh

........................................................................
.............................. CYCLE   21 ..............................
........................................................................

 iter      E             dE          RMSdq      gap      omega  full diag
   1  -3478.8349202 -0.347883E+04  0.180E-04   11.53       0.0  T
   2  -3478.8349202 -0.155524E-08  0.107E-04   11.53      16.4  T
   3  -3478.8349202 -0.281943E-10  0.101E-05   11.53     173.3  T
     SCC iter.                  ...        2 min, 57.038 sec
     gradient                   ...        4 min, 22.053 sec
 * total energy  : -3427.5319342 Eh     change    :  -0.2793174E-05 Eh
   gradient norm :     0.0026089 Eh/a0  converged?    E=T G=F D=F
   time step     :     0.2500000 fs     power     :   0.1358273E-09
   step length   :     0.0018567 a0     speed     :   0.1796409E-03

........................................................................
.............................. CYCLE   22 ..............................
........................................................................

 iter      E             dE          RMSdq      gap      omega  full diag
   1  -3478.8354823 -0.347884E+04  0.175E-04   11.53       0.0  T
   2  -3478.8354823 -0.118825E-08  0.103E-04   11.53      17.1  T
   3  -3478.8354823 -0.791260E-10  0.980E-06   11.53     178.7  T
     SCC iter.                  ...        2 min, 49.836 sec
     gradient                   ...        4 min, 22.362 sec
 * total energy  : -3427.5319372 Eh     change    :  -0.2976743E-05 Eh
   gradient norm :     0.0025421 Eh/a0  converged?    E=T G=F D=F
   time step     :     0.2500000 fs     power     :   0.1491789E-09
   step length   :     0.0018720 a0     speed     :   0.1811299E-03

........................................................................
.............................. CYCLE   23 ..............................
........................................................................

 iter      E             dE          RMSdq      gap      omega  full diag
   1  -3478.8364614 -0.347884E+04  0.174E-04   11.53       0.0  T
   2  -3478.8364614 -0.168302E-08  0.101E-04   11.53      17.3  T
   3  -3478.8364614  0.363798E-11  0.110E-05   11.53     158.8  T
     SCC iter.                  ...        2 min, 54.625 sec
     gradient                   ...        4 min, 21.945 sec
 * total energy  : -3427.5319404 Eh     change    :  -0.3187793E-05 Eh
   gradient norm :     0.0023430 Eh/a0  converged?    E=T G=F D=F
   time step     :     0.2500000 fs     power     :   0.1588933E-09
   step length   :     0.0019028 a0     speed     :   0.1841070E-03

........................................................................
.............................. CYCLE   24 ..............................
........................................................................

 iter      E             dE          RMSdq      gap      omega  full diag
   1  -3478.8377884 -0.347884E+04  0.176E-04   11.53       0.0  T
   2  -3478.8377884 -0.252339E-08  0.102E-04   11.53      17.2  T
   3  -3478.8377884 -0.166892E-09  0.132E-05   11.53     132.6  T
     SCC iter.                  ...        2 min, 58.817 sec
     gradient                   ...        4 min, 21.902 sec
 * total energy  : -3427.5319436 Eh     change    :  -0.3222395E-05 Eh
   gradient norm :     0.0020339 Eh/a0  converged?    E=T G=F D=F
   time step     :     0.2500000 fs     power     :   0.1582883E-09
   step length   :     0.0019477 a0     speed     :   0.1884477E-03

........................................................................
.............................. CYCLE   25 ..............................
........................................................................

 iter      E             dE          RMSdq      gap      omega  full diag
   1  -3478.8393702 -0.347884E+04  0.180E-04   11.53       0.0  T
   2  -3478.8393702 -0.374894E-08  0.104E-04   11.53      16.9  T
   3  -3478.8393702 -0.950422E-10  0.157E-05   11.53     111.7  T
     SCC iter.                  ...        2 min, 54.452 sec
     gradient                   ...        4 min, 21.626 sec
 * total energy  : -3427.5319467 Eh     change    :  -0.3019555E-05 Eh
   gradient norm :     0.0016747 Eh/a0  converged?    E=T G=F D=F
   time step     :     0.2500000 fs     power     :   0.1449274E-09
   step length   :     0.0020000 a0     speed     :   0.1935065E-03

........................................................................
.............................. CYCLE   26 ..............................
........................................................................

 iter      E             dE          RMSdq      gap      omega  full diag
   1  -3478.8412613 -0.347884E+04  0.200E-04   11.53       0.0  T
   2  -3478.8412613 -0.552791E-08  0.115E-04   11.53      15.3  T
   3  -3478.8412613 -0.236014E-09  0.194E-05   11.53      90.3  T
     SCC iter.                  ...        3 min,  0.068 sec
     gradient                   ...        4 min, 21.256 sec
 * total energy  : -3427.5319495 Eh     change    :  -0.2849619E-05 Eh
   gradient norm :     0.0013553 Eh/a0  converged?    E=T G=F D=F
   time step     :     0.2750000 fs     power     :   0.1178169E-09
   step length   :     0.0022646 a0     speed     :   0.1991946E-03

........................................................................
.............................. CYCLE   27 ..............................
........................................................................

 iter      E             dE          RMSdq      gap      omega  full diag
   1  -3478.8432609 -0.347884E+04  0.214E-04   11.53       0.0  T
   2  -3478.8432610 -0.648788E-08  0.122E-04   11.53      14.3  T
   3  -3478.8432610 -0.290129E-09  0.208E-05   11.53      84.2  T
     SCC iter.                  ...        2 min, 57.749 sec
     gradient                   ...        4 min, 21.036 sec
 * total energy  : -3427.5319519 Eh     change    :  -0.2418788E-05 Eh
   gradient norm :     0.0016933 Eh/a0  converged?    E=T G=F D=F
   time step     :     0.3025000 fs     power     :   0.8601108E-10
   step length   :     0.0025427 a0     speed     :   0.2033204E-03

........................................................................
.............................. CYCLE   28 ..............................
........................................................................

 iter      E             dE          RMSdq      gap      omega  full diag
   1  -3478.8450336 -0.347885E+04  0.214E-04   11.53       0.0  T
   2  -3478.8450336 -0.537329E-08  0.123E-04   11.53      14.3  T
   3  -3478.8450336 -0.213731E-09  0.185E-05   11.53      94.5  T
     SCC iter.                  ...        3 min,  1.641 sec
     gradient                   ...        4 min, 21.865 sec
 * total energy  : -3427.5319538 Eh     change    :  -0.1921307E-05 Eh
   gradient norm :     0.0015439 Eh/a0  converged?    E=T G=F D=F
   time step     :     0.3327500 fs     power     :   0.5858412E-10
   step length   :     0.0027570 a0     speed     :   0.2004137E-03

........................................................................
.............................. CYCLE   29 ..............................
........................................................................

 iter      E             dE          RMSdq      gap      omega  full diag
   1  -3478.8462158 -0.347885E+04  0.201E-04   11.53       0.0  T
   2  -3478.8462158 -0.265982E-08  0.116E-04   11.53      15.1  T
   3  -3478.8462158 -0.228283E-09  0.124E-05   11.53     141.4  T
     SCC iter.                  ...        2 min, 57.160 sec
     gradient                   ...        4 min, 21.067 sec
 * total energy  : -3427.5319557 Eh     change    :  -0.1889168E-05 Eh
   gradient norm :     0.0017851 Eh/a0  converged?    E=T G=F D=F
   time step     :     0.3660250 fs     power     :   0.5771605E-10
   step length   :     0.0029428 a0     speed     :   0.1944742E-03

........................................................................
.............................. CYCLE   30 ..............................
........................................................................

 iter      E             dE          RMSdq      gap      omega  full diag
   1  -3478.8465885 -0.347885E+04  0.188E-04   11.53       0.0  T
   2  -3478.8465885 -0.994987E-09  0.110E-04   11.53      16.0  T
   3  -3478.8465885 -0.216460E-09  0.846E-06   11.53     207.1  T
     SCC iter.                  ...        2 min, 52.888 sec
     gradient                   ...        4 min, 20.072 sec
 * total energy  : -3427.5319581 Eh     change    :  -0.2391797E-05 Eh
   gradient norm :     0.0018150 Eh/a0  converged?    E=T G=F D=F
   time step     :     0.4026275 fs     power     :   0.7181006E-10
   step length   :     0.0031518 a0     speed     :   0.1893522E-03

........................................................................
.............................. CYCLE   31 ..............................
........................................................................

 iter      E             dE          RMSdq      gap      omega  full diag
   1  -3478.8460498 -0.347885E+04  0.189E-04   11.53       0.0  T
   2  -3478.8460498 -0.229420E-08  0.111E-04   11.53      15.7  T
   3  -3478.8460498 -0.129148E-09  0.108E-05   11.53     162.1  T
     SCC iter.                  ...        2 min, 50.006 sec
     gradient                   ...        4 min, 21.107 sec
 * total energy  : -3427.5319612 Eh     change    :  -0.3102193E-05 Eh
   gradient norm :     0.0015852 Eh/a0  converged?    E=T G=F D=F
   time step     :     0.4428903 fs     power     :   0.8358903E-10
   step length   :     0.0034451 a0     speed     :   0.1881549E-03

........................................................................
.............................. CYCLE   32 ..............................
........................................................................

 iter      E             dE          RMSdq      gap      omega  full diag
   1  -3478.8446917 -0.347884E+04  0.203E-04   11.53       0.0  T
   2  -3478.8446917 -0.596447E-08  0.120E-04   11.53      14.6  T
   3  -3478.8446917 -0.197360E-09  0.188E-05   11.53      93.2  T
     SCC iter.                  ...        2 min, 49.807 sec
     gradient                   ...        4 min, 19.655 sec
 * total energy  : -3427.5319646 Eh     change    :  -0.3399170E-05 Eh
   gradient norm :     0.0012711 Eh/a0  converged?    E=T G=F D=F
   time step     :     0.4871793 fs     power     :   0.7823982E-10
   step length   :     0.0038440 a0     speed     :   0.1908558E-03

........................................................................
.............................. CYCLE   33 ..............................
........................................................................

 iter      E             dE          RMSdq      gap      omega  full diag
   1  -3478.8430022 -0.347884E+04  0.207E-04   11.53       0.0  T
   2  -3478.8430022 -0.828868E-08  0.123E-04   11.53      14.3  T
   3  -3478.8430022 -0.211912E-09  0.232E-05   11.53      75.4  T
     SCC iter.                  ...        2 min, 52.943 sec
     gradient                   ...        4 min, 20.363 sec
 * total energy  : -3427.5319678 Eh     change    :  -0.3151155E-05 Eh
   gradient norm :     0.0013079 Eh/a0  converged?    E=T G=F D=F
   time step     :     0.5358972 fs     power     :   0.6151467E-10
   step length   :     0.0043085 a0     speed     :   0.1944749E-03

........................................................................
.............................. CYCLE   34 ..............................
........................................................................

 iter      E             dE          RMSdq      gap      omega  full diag
   1  -3478.8419088 -0.347884E+04  0.188E-04   11.53       0.0  T
   2  -3478.8419088 -0.415548E-08  0.112E-04   11.53      15.7  T
   3  -3478.8419088 -0.114142E-09  0.144E-05   11.53     121.5  T
     SCC iter.                  ...        2 min, 54.630 sec
     gradient                   ...        4 min, 21.255 sec
 * total energy  : -3427.5319710 Eh     change    :  -0.3177763E-05 Eh
   gradient norm :     0.0015676 Eh/a0  converged?    E=T G=F D=F
   time step     :     0.5894869 fs     power     :   0.6055000E-10
   step length   :     0.0047464 a0     speed     :   0.1947635E-03

........................................................................
.............................. CYCLE   35 ..............................
........................................................................

 iter      E             dE          RMSdq      gap      omega  full diag
   1  -3478.8421400 -0.347884E+04  0.194E-04   11.53       0.0  T
   2  -3478.8421400 -0.793079E-09  0.114E-04   11.53      15.4  T
   3  -3478.8421400 -0.121872E-09  0.671E-06   11.53     261.2  T
     SCC iter.                  ...        2 min, 52.691 sec
     gradient                   ...        4 min, 21.009 sec
 * total energy  : -3427.5319751 Eh     change    :  -0.4102070E-05 Eh
   gradient norm :     0.0015214 Eh/a0  converged?    E=T G=F D=F
   time step     :     0.6484356 fs     power     :   0.7767320E-10
   step length   :     0.0052404 a0     speed     :   0.1954831E-03

........................................................................
.............................. CYCLE   36 ..............................
........................................................................

 iter      E             dE          RMSdq      gap      omega  full diag
   1  -3478.8439123 -0.347884E+04  0.252E-04   11.53       0.0  T
   2  -3478.8439123 -0.648060E-08  0.146E-04   11.53      12.0  T
   3  -3478.8439123 -0.178716E-09  0.201E-05   11.53      87.2  T
     SCC iter.                  ...        2 min, 57.693 sec
     gradient                   ...        4 min, 20.879 sec
 * total energy  : -3427.5319801 Eh     change    :  -0.5075487E-05 Eh
   gradient norm :     0.0011485 Eh/a0  converged?    E=F G=F D=F
   time step     :     0.7132792 fs     power     :   0.8238683E-10
   step length   :     0.0059389 a0     speed     :   0.2014008E-03

........................................................................
.............................. CYCLE   37 ..............................
........................................................................

 iter      E             dE          RMSdq      gap      omega  full diag
   1  -3478.8464546 -0.347885E+04  0.292E-04   11.53       0.0  T
   2  -3478.8464546 -0.132591E-07  0.169E-04   11.53      10.4  T
   3  -3478.8464546 -0.406089E-09  0.306E-05   11.53      57.3  T
     SCC iter.                  ...        2 min, 59.481 sec
     gradient                   ...        4 min, 20.820 sec
 * total energy  : -3427.5319850 Eh     change    :  -0.4891528E-05 Eh
   gradient norm :     0.0012032 Eh/a0  converged?    E=T G=F D=F
   time step     :     0.7846071 fs     power     :   0.6552158E-10
   step length   :     0.0068243 a0     speed     :   0.2103895E-03

........................................................................
.............................. CYCLE   38 ..............................
........................................................................

 iter      E             dE          RMSdq      gap      omega  full diag
   1  -3478.8478026 -0.347885E+04  0.253E-04   11.53       0.0  T
   2  -3478.8478026 -0.646332E-08  0.149E-04   11.53      11.8  T
   3  -3478.8478026 -0.330601E-09  0.216E-05   11.53      81.0  T
     SCC iter.                  ...        2 min, 57.327 sec
     gradient                   ...        4 min, 20.880 sec
 * total energy  : -3427.5319901 Eh     change    :  -0.5123733E-05 Eh
   gradient norm :     0.0013854 Eh/a0  converged?    E=F G=F D=F
   time step     :     0.8630678 fs     power     :   0.6955676E-10
   step length   :     0.0076676 a0     speed     :   0.2148974E-03

........................................................................
.............................. CYCLE   39 ..............................
........................................................................

 iter      E             dE          RMSdq      gap      omega  full diag
   1  -3478.8469888 -0.347885E+04  0.269E-04   11.53       0.0  T
   2  -3478.8469888 -0.801128E-08  0.157E-04   11.53      11.1  T
   3  -3478.8469888 -0.394721E-09  0.258E-05   11.53      67.9  T
     SCC iter.                  ...        2 min, 54.539 sec
     gradient                   ...        4 min, 21.823 sec
 * total energy  : -3427.5319965 Eh     change    :  -0.6385892E-05 Eh
   gradient norm :     0.0010806 Eh/a0  converged?    E=F G=F D=F
   time step     :     0.9493746 fs     power     :   0.7822675E-10
   step length   :     0.0086820 a0     speed     :   0.2212051E-03

........................................................................
.............................. CYCLE   40 ..............................
........................................................................

 iter      E             dE          RMSdq      gap      omega  full diag
   1  -3478.8453461 -0.347885E+04  0.309E-04   11.53       0.0  T
   2  -3478.8453461 -0.119662E-07  0.180E-04   11.53       9.7  T
   3  -3478.8453461 -0.335149E-09  0.284E-05   11.53      61.6  T
     SCC iter.                  ...        2 min, 55.282 sec
     gradient                   ...        4 min, 22.224 sec
 * total energy  : -3427.5320030 Eh     change    :  -0.6482583E-05 Eh
   gradient norm :     0.0012591 Eh/a0  converged?    E=F G=F D=F
   time step     :     1.0443120 fs     power     :   0.6671919E-10
   step length   :     0.0099959 a0     speed     :   0.2315298E-03

........................................................................
.............................. CYCLE   41 ..............................
........................................................................

 iter      E             dE          RMSdq      gap      omega  full diag
   1  -3478.8460981 -0.347885E+04  0.308E-04   11.53       0.0  T
   2  -3478.8460981 -0.398586E-08  0.180E-04   11.53       9.8  T
   3  -3478.8460981 -0.373802E-09  0.124E-05   11.53     140.9  T
     SCC iter.                  ...        2 min, 54.461 sec
     gradient                   ...        4 min, 21.917 sec
 * total energy  : -3427.5320108 Eh     change    :  -0.7776073E-05 Eh
   gradient norm :     0.0011857 Eh/a0  converged?    E=F G=F D=F
   time step     :     1.1487432 fs     power     :   0.8181520E-10
   step length   :     0.0113252 a0     speed     :   0.2384717E-03

........................................................................
.............................. CYCLE   42 ..............................
........................................................................

 iter      E             dE          RMSdq      gap      omega  full diag
   1  -3478.8487176 -0.347885E+04  0.392E-04   11.53       0.0  T
   2  -3478.8487176 -0.203181E-07  0.228E-04   11.53       7.7  T
   3  -3478.8487176 -0.706677E-09  0.348E-05   11.53      50.4  T
     SCC iter.                  ...        2 min, 59.362 sec
     gradient                   ...        4 min, 19.857 sec
 * total energy  : -3427.5320195 Eh     change    :  -0.8728734E-05 Eh
   gradient norm :     0.0011668 Eh/a0  converged?    E=F G=F D=F
   time step     :     1.2500000 fs     power     :   0.7581631E-10
   step length   :     0.0129618 a0     speed     :   0.2508244E-03
 * RMSD in coord.:     0.0016548 a0     energy gain  -0.8806672E-04 Eh

........................................................................
.............................. CYCLE   43 ..............................
........................................................................

 iter      E             dE          RMSdq      gap      omega  full diag
   1  -3478.8488180 -0.347885E+04  0.604E-05   11.53       0.0  T
   2  -3478.8488180 -0.107320E-09  0.356E-05   11.53      49.2  T
   3  -3478.8488180 -0.427463E-10  0.237E-06   11.53     739.0  T
     SCC iter.                  ...        2 min, 58.043 sec
     gradient                   ...        4 min, 21.172 sec
 * total energy  : -3427.5320212 Eh     change    :  -0.1640903E-05 Eh
   gradient norm :     0.0011938 Eh/a0  converged?    E=T G=F D=F
   time step     :     0.2500000 fs     power     :   0.8567432E-10
   step length   :     0.0025045 a0     speed     :   0.2423269E-03

........................................................................
.............................. CYCLE   44 ..............................
........................................................................

 iter      E             dE          RMSdq      gap      omega  full diag
   1  -3478.8485267 -0.347885E+04  0.583E-05   11.53       0.0  T
   2  -3478.8485267 -0.219643E-09  0.341E-05   11.53      51.4  T
   3  -3478.8485267 -0.168257E-10  0.404E-06   11.53     433.8  T
     SCC iter.                  ...        2 min, 57.240 sec
     gradient                   ...        4 min, 21.669 sec
 * total energy  : -3427.5320230 Eh     change    :  -0.1813190E-05 Eh
   gradient norm :     0.0011184 Eh/a0  converged?    E=T G=F D=F
   time step     :     0.2500000 fs     power     :   0.9420857E-10
   step length   :     0.0024420 a0     speed     :   0.2362758E-03

........................................................................
.............................. CYCLE   45 ..............................
........................................................................

 iter      E             dE          RMSdq      gap      omega  full diag
   1  -3478.8479231 -0.347885E+04  0.674E-05   11.53       0.0  T
   2  -3478.8479231 -0.738055E-09  0.392E-05   11.53      44.7  T
   3  -3478.8479231 -0.432010E-10  0.735E-06   11.53     238.5  T
     SCC iter.                  ...        2 min, 50.820 sec
     gradient                   ...        4 min, 21.532 sec
 * total energy  : -3427.5320249 Eh     change    :  -0.1882446E-05 Eh
   gradient norm :     0.0009874 Eh/a0  converged?    E=T G=T D=F
   time step     :     0.2500000 fs     power     :   0.9705882E-10
   step length   :     0.0024106 a0     speed     :   0.2332391E-03

   *** GEOMETRY OPTIMIZATION CONVERGED AFTER 45 CYCLES ***

------------------------------------------------------------------------
 total energy gain   :        -0.0003849 Eh       -0.2415 kcal/mol
 total RMSD          :         0.0020064 a0        0.0011 Å
 total power (kW/mol):        -0.0224544 (step)   -0.0000 (real)
------------------------------------------------------------------------

 FIRE (total)                  0 d,  5 h, 42 min, 14.285 sec
 setup                          ...        0 min,  0.120 sec (  0.001%)
 velocities                     ...        0 min,  0.003 sec (  0.000%)
 propagation                    ...        0 min,  0.005 sec (  0.000%)
 singlepoint calculation        ...      342 min, 13.357 sec ( 99.995%)
 log and printout               ...        0 min,  0.737 sec (  0.004%)
 preconditioner                 ...        0 min,  0.000 sec (  0.000%)
 model hessian                  ...        0 min,  0.000 sec (  0.000%)
 hessian update                 ...        0 min,  0.000 sec (  0.000%)

================
 final structure:
================
3258
 xtb: 6.6.1 (8d0f1dd)
C           97.26114545843632      117.17524010419113      101.14244202471140
C           96.28339401464579      116.12650050807044      100.62773008034613
C           96.74314052775208      114.70840950979226      100.95780266398258
C           95.77429660750235      113.65566829195900      100.42501787497824
C           96.21958801939741      112.22806113052766      100.73534306947323
C           95.24317725591958      111.19894394854845      100.17207038466709
C           95.69952515455915      109.76105479036107      100.40832508941440
C           94.69521720405106      108.76332309498045       99.83721259366482
C           95.05950674947073      107.30115674996433      100.09220001825729
C           96.35075248699367      106.86600267556457       99.40033245288068
C           96.48431487508641      105.34528537555384       99.35891717572227
C           97.80071960649987      104.89863410736987       98.72878428605878
C           97.89337289539218      103.38033743230486       98.60124949289965
C           99.21898250356661      102.93221569820695       97.99007002351097
C           99.30008568392655      101.41231000385758       97.86191332136886
C          100.54851544187567      100.92921133470192       97.12270580106231
C          101.83886223890443      101.12047433357660       97.91620712204359
C          103.05463007221879      100.62456117227879       97.13668863930302
C          104.37751158058207      100.89265002394492       97.85533413171672
C          104.68069424993078       99.91672639667290       98.99080689613396
C          106.00509133734272      100.26635398986451       99.66662482057832
C          106.42475003032331       99.25371337061429      100.72909344161339
C          107.72928803244658       99.66732324708653      101.40684071512359
C          108.20160496693693       98.65732556238052      102.44952001111606
C          109.45525095431813       99.13844488130505      103.17614322358557
C          109.92798065208717       98.15844631509582      104.24700802922921
C          111.10514027068739       98.71137927614051      105.04656794176918
C          111.51177046029365       97.79624832163262      106.19857192974139
C          112.61891954931224       98.40669468421422      107.05479153732689
C          112.93136405010819       97.55959761841392      108.28548814525310
C          114.04396122178170       98.16186376131967      109.14071059755283
C          114.34713853220427       97.30020875379412      110.36526433948353
C          115.61498079162827       97.72457011972911      111.10775239971423
C          115.45419656905922       98.96032015205019      111.98830081547474
C          116.79334972083991       99.38211234172978      112.59098748812323
C          116.62965536398066      100.42287078723868      113.69584611354819
C          117.97204232589780      100.99114293108678      114.15817068758238
C          117.89247114402764      101.68978929367260      115.51532381181440
C          116.90738149329441      102.85463773097329      115.53315152630526
C          116.89772520521144      103.61070734923916      116.86191262691280
C          118.03487767405768      104.62051577957827      116.99222610036870
C          117.92159738567567      105.43537311994217      118.27796044017622
C          118.94068869076241      106.56866966336442      118.33618132413223
C          118.78691429903984      107.42246207826751      119.59232081296058
C          119.92631313062053      108.42769583475039      119.72368450315473
C          119.79759339218516      109.32262794719966      120.95403511875129
C          121.07651704906263      110.12207598458131      121.18946151203069
C          121.01174816120511      111.00419475341967      122.43384901682413
C          122.38243099111288      111.54626459795180      122.83964713645351
C          122.93429143757683      112.58682222994122      121.86873834725861
C          124.29827620575905      113.11029815512583      122.31312126117696
C          124.79296428374791      114.25430306841902      121.43166296808729
C          126.19993501802995      114.70909513825619      121.81664399290041
C          126.65988521778931      115.93713001306983      121.02737529785102
C          126.05319844690933      117.23564646872263      121.55809719599449
C          126.37017538929435      118.45544046284115      120.69091249286079
C          125.69186617795529      118.38825638543020      119.32476958533154
C          125.73896504411482      119.70761168578829      118.55572774777751
C          125.07925084237527      119.53721439156206      117.19045124883314
C          124.90623393719970      120.82862242078617      116.39594652340155
C          124.20480880583764      120.52498306511144      115.07365095491326
C          123.82661944065815      121.76792924720695      114.27367254091922
C          123.17849836735250      121.41689865609308      112.93223345383944
C          121.79182220559292      120.79093947793552      113.07557579355343
C          121.23927654033704      120.32244473577548      111.73168032653072
C          119.85770493464443      119.67644041148559      111.83877010961733
C          119.86818064431456      118.33621867406187      112.56999457778799
C          118.50050092981424      117.66038900662582      112.54078361011743
C          118.48466588210243      116.35358942777492      113.32958363096438
C          117.13112689358378      115.65416041497681      113.23795536681429
C          117.11007083679841      114.31886036119815      113.97611953222383
C          115.78194375919786      113.58834542938624      113.79269352897903
C          115.64690735271927      112.34200158011555      114.66602855329623
C          116.55946866834257      111.19282116667529      114.24162014310841
C          116.44290661924494      110.01898369090326      115.21136424787224
C          117.23865054644897      108.78413461412241      114.79019732137338
C          116.65526544982944      108.09368113103939      113.56010528676555
C          117.29974446099880      106.73649908599066      113.29336692698061
C          116.72294256768946      106.07903335313655      112.04376251142705
C          117.33066985637383      104.70734570356029      111.76430686709905
C          116.70138814008126      104.07154801829054      110.52916729699260
C          117.17351128111098      102.63979058912477      110.27280370643066
C          116.17245063715207      101.84310152418939      109.43604779399492
C          115.90125968084304      102.47273960206365      108.07423967494437
C          114.79870954793225      101.75192353928213      107.30445900053439
C          114.44274911984509      102.51318558534206      106.03268120393437
C          113.25119841016659      101.92497857422822      105.28585035649694
C          112.90585039682855      102.78242423714585      104.07363629021255
C          111.63770740631666      102.33782532394943      103.35562764140512
C          111.32490570240476      103.25006263954261      102.17300419221951
C          109.98178608471926      102.92640637926607      101.52947641739178
C          109.66780636611344      103.84658777105012      100.35325375641661
C          108.27073780945737      103.58617099193486       99.80064978424201
C          107.93190924051301      104.46392916964034       98.59950193268186
C          106.51419791726059      104.18981356605416       98.10665987664612
C          106.15151014864172      104.96080685316609       96.84095054112818
C          104.71691172060935      104.66504218466794       96.40809552879854
C          104.35216434895777      105.35315791356500       95.09625214577629
C          102.96840168635104      104.95977316659115       94.57610666990520
C          101.79919783449269      105.35438643437209       95.48095862415042
C          101.70554198707759      106.85993145562635       95.71649908450533
C          100.40170859519534      107.26076687433473       96.40244513113659
C          100.34957684326533      108.76464935057787       96.65844395895098
C           99.07126061677916      109.19138967739116       97.37595191897826
C           98.93223095729326      110.70932730457395       97.50246894744552
C          100.03244367729653      111.35704983170604       98.34109473906496
C           99.80961283104743      112.85858353603727       98.49862425760391
C          100.84521119056033      113.53070896492716       99.40007369003109
C          102.26861639958412      113.55902707440723       98.84030207936868
C          102.38395351241017      114.31832532103137       97.51842908829637
C          103.83117276553502      114.67966771973467       97.19441137535331
C          103.95827687776780      115.47517726301245       95.89715402459730
C          105.39798515918818      115.91425412146052       95.64648057589912
C          105.55740458090878      116.73339680711699       94.36891159182423
C          106.95938591141037      117.32819645096518       94.25331405270585
C          107.13445992518162      118.14736669061645       92.97661646483608
C          108.42211950564239      118.97281679588883       92.95370663105700
C          109.68751836925317      118.12541413687913       92.83867390344226
C          110.96860851670610      118.96054581664420       92.86933280229054
C          111.13449752985449      119.86951834825160       91.65750157295832
H          110.97678855298187      119.56583937470447       93.77906102534730
H          111.82667592235433      118.28469631176493       92.91432835907507
H          109.71923688168420      117.41550235724524       93.66760925807652
H          109.65408617962535      117.55023981149877       91.91003571627893
H          108.37348097819626      119.65663012974690       92.10454500145445
H          108.47619651122454      119.57657947765490       93.86301932985205
H          107.11159261306067      117.48259216941273       92.10996551048427
H          106.28766593761810      118.83277400353953       92.88668205438975
H          107.14129716158806      117.97429997025527       95.11552099428789
H          107.69275363819111      116.52059283209375       94.28355311956179
H          105.35439143678848      116.10197633694811       93.50173927617539
H          104.82301825171967      117.54185449535255       94.36696361109534
H          105.73687631825420      116.51397360819487       96.49597622816786
H          106.03865407120480      115.03186474435932       95.59006781298102
H          103.61097273175208      114.86789986590775       95.05841901353008
H          103.31778514623151      116.35894412715871       95.95332477247015
H          104.23939470974379      115.27609547193833       98.01488298645066
H          104.42675399021326      113.76657649631778       97.12013798867979
H          101.97594017708852      113.71537479022462       96.70544239456140
H          101.79479919126328      115.23607825198744       97.57970783667471
H          102.91001284375375      114.04582351400954       99.58066410637615
H          102.64292562327826      112.54180055564164       98.71314757059223
H          100.52701765563673      114.56037001727054       99.58216227341816
H          100.85815863062439      113.01617996952031      100.36387745469102
H           99.81265163134128      113.33296876000250       97.51596353179251
H           98.81921832120366      113.02300133517618       98.93139800129470
H          100.05741542048627      110.89306236309268       99.32993526529616
H          100.99857011425101      111.18688172159604       97.86628798889900
H           98.93696993774346      111.15299692390823       96.50356313729115
H           97.96271544309630      110.93531207207130       97.95478383464238
H           98.21120748917129      108.80893608400231       96.82041194865087
H           99.04488515799193      108.73653059251401       98.36897164421303
H          101.21825310945032      109.04408362530866       97.25759370773517
H          100.41965251323154      109.29410075472970       95.70491505508330
H           99.55544727572493      106.96800318729218       95.77614139099022
H          100.31144861002717      106.72772000601545       97.35105012093858
H          102.54162943399231      107.18812008926842       96.33660709686589
H          101.77902453764887      107.37874325813623       94.75727277079099
H          100.87532560789241      105.01506159295722       95.00479454523220
H          101.87692399007707      104.83842554841618       96.43943119386114
H          102.82251587842291      105.42490444178085       93.59762073985790
H          102.94495965635328      103.87655172735015       94.43059654011898
H          104.40783062145049      106.43590385881463       95.22068743015848
H          105.09149350658001      105.07785438708427       94.33934447733475
H          104.59520669763096      103.58595226522135       96.28897294007596
H          104.03468641567740      104.98914865728531       97.19651353788576
H          106.26815222263539      106.03340855691550       97.01495199154526
H          106.83671034357688      104.67954849188030       96.03736258592771
H          106.40929775304170      103.12052040458394       97.91063734750911
H          105.80600768884325      104.44862715360826       98.89844485994638
H          108.03021793428186      105.51664175271974       98.87288406632771
H          108.64417214823908      104.26600309729950       97.79482843720112
H          108.18742740983772      102.53527028193703       99.51303175348279
H          107.53703801055588      103.76486223228184      100.59087413628683
H          109.73912353057622      104.88675485966303      100.67930143638668
H          110.40880757814280      103.69816396629471       99.56410463335121
H          109.97623001824105      101.88755638535383      101.19238083331426
H          109.19455225875932      103.02639067374764      102.28126555214831
H          111.31050073117954      104.28645983760768      102.51976698240517
H          112.11854142579502      103.16365737798924      101.42741709476741
H          111.74558130202021      101.30791155348889      103.01008834327007
H          110.80163947061531      102.35783561365884      104.05945394713001
H          112.77158634125620      103.81401695016291      104.40827158350201
H          113.74305567342381      102.76859992282957      103.37273374715494
H          113.47221152805552      100.90321059347355      104.97103395760766
H          112.39027073195824      101.88140516914937      105.95751481620451
H          114.20747711525549      103.54660415702178      106.29967407979521
H          115.30907235275625      102.53498137542925      105.36912527996461
H          115.11324477854771      100.73553586500910      107.05851812646280
H          113.91138463695184      101.67611295180185      107.93802275737477
H          115.59364285913432      103.51055313549692      108.21435530609338
H          116.81915840313798      102.47470778532620      107.48295483107893
H          116.54435237262440      100.82518472521173      109.29819186572803
H          115.23064999360797      101.77899674114269      109.98767107655577
H          118.14512441962542      102.64879654341959      109.77316674629412
H          117.30174414216950      102.13127035388635      111.23029253653384
H          115.61739187736100      104.06183370621123      110.66509128268049
H          116.91645851876251      104.69835574031140      109.66195257177330
H          118.40808193391365      104.80579992751254      111.62469299817646
H          117.16568040260567      104.05620270561839      112.62636522189655
H          115.64137474811476      105.97415743338830      112.16355208095074
H          116.89427330643983      106.72803948688941      111.18303837808300
H          118.37960293729950      106.85930024243642      113.17789282944993
H          117.13599239636154      106.08264375165042      114.15412577271962
H          115.58129332928195      107.95284600298017      113.70408862858206
H          116.79120652681172      108.72775994518237      112.68232489559246
H          118.27659350261992      109.06209775775608      114.59636061354725
H          117.24096308847690      108.07291538563753      115.62073887091550
H          116.78676814045150      110.34404029741073      116.19698729853658
H          115.39080758508383      109.74251647669543      115.30832474888956
H          116.28206103548986      110.87633690604717      113.23472057284791
H          117.59730797097254      111.52980832998924      114.21037441883449
H          115.85795049225203      112.60672335703707      115.70435234455950
H          114.61068764738336      111.99537871467419      114.62341764676756
H          114.96925670910710      114.27715166151712      114.03568129423901
H          115.66418193688695      113.30409990578839      112.74484981588246
H          117.92822078344952      113.69729897668100      113.60815390582681
H          117.27850357220051      114.49456677741178      115.04049798831838
H          116.36010546704490      116.30874970332052      113.65180958347833
H          116.88715553150496      115.48680675796230      112.18691491706583
H          119.26274995271767      115.69119722946574      112.94171667258030
H          118.72014300712219      116.55669764172598      114.37707878413126
H          117.75214112809184      118.34020509117182      112.95544869864909
H          118.22519675938969      117.45432259035361      111.50414550277947
H          120.60245741331565      117.67906266775566      112.09976032838928
H          120.16836318132127      118.48050909634368      113.60908224485061
H          119.17693456429025      120.35981692738750      112.35181979851924
H          119.47045893171672      119.51843402643543      110.82896464624028
H          121.17861920044641      121.17944603666365      111.05711631541695
H          121.93326988116509      119.60352557894859      111.28870765840013
H          121.84810247627318      119.93807245558624      113.75086896385790
H          121.10617447672765      121.51755038960998      113.51958004402302
H          123.09840720970429      122.32155385670441      112.32435269281075
H          123.83043536850552      120.72116892989123      112.39752319717880
H          123.13981536683735      122.38332324097345      114.85994125788628
H          124.72523934121260      122.36158234501620      114.08967927453506
H          124.85291735364849      119.89133882930442      114.46325638122421
H          123.30264853432962      119.95347943728041      115.29681917756670
H          124.30796680135177      121.53551300276190      116.97623557524825
H          125.87775775460051      121.29095878527414      116.20974453423521
H          125.66823140182277      118.83156004093044      116.59843191451203
H          124.09045151431997      119.09666089281528      117.33876596826561
H          125.21534261886093      120.48092678021676      119.12283083028957
H          126.77504114483392      120.03005625392105      118.43276596342024
H          126.16300902307354      117.61336816167186      118.71707838801126
H          124.64564478831861      118.10438081958826      119.46673102212517
H          126.02391678840142      119.35191686302598      121.21173184372157
H          127.45101019159971      118.54560906980186      120.56254006780050
H          124.96856210499196      117.13155986411624      121.62695826413358
H          126.43083530373552      117.40981972794063      122.56879931048394
H          127.74837618935592      116.01392630591276      121.07858979752794
H          126.38697624133711      115.80014538376986      119.98048866123430
H          126.22990676769530      114.93413889524926      122.88541668513595
H          126.89363355927058      113.88453836193079      121.63523200709753
H          124.79334708788848      113.93307921645578      120.38689289037910
H          124.09801091633906      115.09219886355858      121.51506548640120
H          124.23529871138669      113.45885099025551      123.34742234685524
H          125.02244935676764      112.29289934153771      122.28677809178481
H          123.02942475782889      112.15157519748807      120.87259883405714
H          122.22942928533598      113.41910623836189      121.80196898710675
H          122.30468901108503      111.99954730767966      123.83038152426937
H          123.08608163115069      110.71340351214897      122.91470664067651
H          120.32327274490775      111.83591867766293      122.26375960725805
H          120.61714229575394      110.41248848806849      123.26343147302275
H          121.90772438397791      109.42269652504713      121.30564634539925
H          121.28056981231379      110.73467507423237      120.30944862172637
H          118.94865427417275      109.99942576874733      120.83765193226034
H          119.59784018509090      108.69805082400700      121.82756225056441
H          120.86885074701036      107.87695987967491      119.78492014862478
H          119.96837024989748      109.04727581458394      118.82384893416726
H          117.83104449539906      107.94959617875985      119.56332852461868
H          118.77911174062558      106.77153225506865      120.46939931922515
H          119.94819176271031      106.14612977883337      118.31202245886662
H          118.83447320947924      107.20308252818306      117.45217780706624
H          116.91597529419235      105.85635356989651      118.34583320998601
H          118.06578049091129      104.77797137883985      119.13797233649501
H          118.99696873686386      104.10680938926079      116.97068053287437
H          118.00615505405871      105.30079355448341      116.13689417419522
H          115.95020813701412      104.14504496236697      116.95482608434631
H          116.95262795121913      102.89513853481868      117.68546593174088
H          117.15621649553221      103.55051954409967      114.72929712042807
H          115.90594117199200      102.46913105483485      115.34026941053459
H          117.59125615282213      100.96150726483749      116.27321980539736
H          118.88829706009872      102.04961745122286      115.78199759949308
H          118.69671010318518      100.17701496458901      114.23289353473017
H          118.34801043500792      101.69397866330711      113.41001115220418
H          115.98969770243272      101.23032711803192      113.33455841998492
H          116.12709989301031       99.95630591627702      114.54631458374263
H          117.29414740931421       98.50282254503823      113.00351515262346
H          117.43334342975206       99.77935207383565      111.79970491499959
H          115.04240326229279       99.78756826172781      111.40900317230638
H          114.75245274053978       98.73705301209672      112.79525813466256
H          115.93851237845752       96.90105465100572      111.74763814903838
H          116.40855025072733       97.90722833797398      110.37871147756175
H          113.49660345755912       97.31724587563320      111.05034796847696
H          114.47495660082679       96.26746209571765      110.03064419388660
H          114.94868647577972       98.25161314395007      108.53490262068006
H          113.75615240660345       99.16749383860598      109.45262423208015
H          112.02880222117783       97.45643648254577      108.89163438526984
H          113.22667530243788       96.55654495445937      107.96452642645816
[...]
  3011   6 C     3012   6 C                                       1.5263044
  3012   6 C     3013   6 C                                       1.5273880
  3013   6 C     3014   6 C                                       1.5262160
  3014   6 C     3015   6 C                                       1.5267737
  3015   6 C     3016   6 C                                       1.5234962
  3015   6 C     3017   1 H                                       1.0926147
  3015   6 C     3018   1 H                                       1.0924731
  3014   6 C     3019   1 H                                       1.0928364
  3014   6 C     3020   1 H                                       1.0919607
  3013   6 C     3021   1 H                                       1.0932712
  3013   6 C     3022   1 H                                       1.0927083
  3012   6 C     3023   1 H                                       1.0926839
  3012   6 C     3024   1 H                                       1.0918620
  3011   6 C     3025   1 H                                       1.0933623
  3011   6 C     3026   1 H                                       1.0926933
  3010   6 C     3027   1 H                                       1.0925496
  3010   6 C     3028   1 H                                       1.0918485
  3009   6 C     3029   1 H                                       1.0934057
  3009   6 C     3030   1 H                                       1.0927770
  3008   6 C     3031   1 H                                       1.0925315
  3008   6 C     3032   1 H                                       1.0919303
  3007   6 C     3033   1 H                                       1.0933313
  3007   6 C     3034   1 H                                       1.0927475
  3006   6 C     3035   1 H                                       1.0925208
  3006   6 C     3036   1 H                                       1.0919618
  3005   6 C     3037   1 H                                       1.0932877
  3005   6 C     3038   1 H                                       1.0926874
  3004   6 C     3039   1 H                                       1.0924709
  3004   6 C     3040   1 H                                       1.0919825
  3003   6 C     3041   1 H                                       1.0933433
  3003   6 C     3042   1 H                                       1.0925704
  3002   6 C     3043   1 H                                       1.0923364
  3002   6 C     3044   1 H                                       1.0918694
  3001   6 C     3045   1 H                                       1.0935283
  3001   6 C     3046   1 H                                       1.0924009
  3000   6 C     3047   1 H                                       1.0921904
  3000   6 C     3048   1 H                                       1.0910749
  2999   6 C     3049   1 H                                       1.0936142
  2999   6 C     3050   1 H                                       1.0926052
  2998   6 C     3051   1 H                                       1.0925379
  2998   6 C     3052   1 H                                       1.0907548
  2997   6 C     3053   1 H                                       1.0916327
  2997   6 C     3054   1 H                                       1.0932033
  2996   6 C     3055   1 H                                       1.0933695
  2996   6 C     3056   1 H                                       1.0930746
  2995   6 C     3057   1 H                                       1.0935013
  2995   6 C     3058   1 H                                       1.0910923
  2994   6 C     3059   1 H                                       1.0917536
  2994   6 C     3060   1 H                                       1.0926570
  2993   6 C     3061   1 H                                       1.0927213
  2993   6 C     3062   1 H                                       1.0910322
  2992   6 C     3063   1 H                                       1.0921628
  2992   6 C     3064   1 H                                       1.0929079
  2991   6 C     3065   1 H                                       1.0926409
  2991   6 C     3066   1 H                                       1.0918941
  2990   6 C     3067   1 H                                       1.0933724
  2990   6 C     3068   1 H                                       1.0934618
  2989   6 C     3069   1 H                                       1.0919306
  2989   6 C     3070   1 H                                       1.0921427
  2988   6 C     3071   1 H                                       1.0928846
  2988   6 C     3072   1 H                                       1.0932568
  2987   6 C     3073   1 H                                       1.0934900
  2987   6 C     3074   1 H                                       1.0903236
  2986   6 C     3075   1 H                                       1.0908187
  2986   6 C     3076   1 H                                       1.0933336
  2985   6 C     3077   1 H                                       1.0933223
  2985   6 C     3078   1 H                                       1.0928830
  2984   6 C     3079   1 H                                       1.0920626
  2984   6 C     3080   1 H                                       1.0899614
  2983   6 C     3081   1 H                                       1.0892878
  2983   6 C     3082   1 H                                       1.0931721
  2982   6 C     3083   1 H                                       1.0916114
  2982   6 C     3084   1 H                                       1.0933765
  2981   6 C     3085   1 H                                       1.0927163
  2981   6 C     3086   1 H                                       1.0914158
  2980   6 C     3087   1 H                                       1.0915790
  2980   6 C     3088   1 H                                       1.0911269
  2979   6 C     3089   1 H                                       1.0916148
  2979   6 C     3090   1 H                                       1.0933030
  2978   6 C     3091   1 H                                       1.0919322
  2978   6 C     3092   1 H                                       1.0923578
  2977   6 C     3093   1 H                                       1.0935306
  2977   6 C     3094   1 H                                       1.0935235
  2976   6 C     3095   1 H                                       1.0913856
  2976   6 C     3096   1 H                                       1.0922302
  2975   6 C     3097   1 H                                       1.0932363
  2975   6 C     3098   1 H                                       1.0911760
  2974   6 C     3099   1 H                                       1.0926579
  2974   6 C     3100   1 H                                       1.0938267
  2973   6 C     3101   1 H                                       1.0925758
  2973   6 C     3102   1 H                                       1.0916986
  2972   6 C     3103   1 H                                       1.0924752
  2972   6 C     3104   1 H                                       1.0922752
  2971   6 C     3105   1 H                                       1.0924196
  2971   6 C     3106   1 H                                       1.0931583
  2970   6 C     3107   1 H                                       1.0919623
  2970   6 C     3108   1 H                                       1.0929636
  2969   6 C     3109   1 H                                       1.0925055
  2969   6 C     3110   1 H                                       1.0928037
  2968   6 C     3111   1 H                                       1.0919206
  2968   6 C     3112   1 H                                       1.0933019
  2967   6 C     3113   1 H                                       1.0936187
  2967   6 C     3114   1 H                                       1.0922345
  2966   6 C     3115   1 H                                       1.0923603
  2966   6 C     3116   1 H                                       1.0916628
  2965   6 C     3117   1 H                                       1.0926996
  2965   6 C     3118   1 H                                       1.0923385
  2964   6 C     3119   1 H                                       1.0926387
  2964   6 C     3120   1 H                                       1.0916319
  2963   6 C     3121   1 H                                       1.0914697
  2963   6 C     3122   1 H                                       1.0914367
  2962   6 C     3123   1 H                                       1.0931228
  2962   6 C     3124   1 H                                       1.0913995
  2961   6 C     3125   1 H                                       1.0929066
  2961   6 C     3126   1 H                                       1.0922980
  2960   6 C     3127   1 H                                       1.0909168
  2960   6 C     3128   1 H                                       1.0928242
  2959   6 C     3129   1 H                                       1.0929083
  2959   6 C     3130   1 H                                       1.0923350
  2958   6 C     3131   1 H                                       1.0921095
  2958   6 C     3132   1 H                                       1.0935068
  2957   6 C     3133   1 H                                       1.0921956
  2957   6 C     3134   1 H                                       1.0914912
  2956   6 C     3135   1 H                                       1.0919910
  2956   6 C     3136   1 H                                       1.0930102
  2955   6 C     3137   1 H                                       1.0925177
  2955   6 C     3138   1 H                                       1.0913259
  2954   6 C     3139   1 H                                       1.0931895
  2954   6 C     3140   1 H                                       1.0933584
  2953   6 C     3141   1 H                                       1.0912260
  2953   6 C     3142   1 H                                       1.0938281
  2952   6 C     3143   1 H                                       1.0936340
  2952   6 C     3144   1 H                                       1.0915495
  2951   6 C     3145   1 H                                       1.0917497
  2951   6 C     3146   1 H                                       1.0912651
  2950   6 C     3147   1 H                                       1.0936254
  2950   6 C     3148   1 H                                       1.0929522
  2949   6 C     3149   1 H                                       1.0934902
  2949   6 C     3150   1 H                                       1.0922590
  2948   6 C     3151   1 H                                       1.0915648
  2948   6 C     3152   1 H                                       1.0932719
  2947   6 C     3153   1 H                                       1.0925863
  2947   6 C     3154   1 H                                       1.0926469
  2946   6 C     3155   1 H                                       1.0932019
  2946   6 C     3156   1 H                                       1.0916338
  2945   6 C     3157   1 H                                       1.0915618
  2945   6 C     3158   1 H                                       1.0932741
  2944   6 C     3159   1 H                                       1.0930699
  2944   6 C     3160   1 H                                       1.0932542
  2943   6 C     3161   1 H                                       1.0932629
  2943   6 C     3162   1 H                                       1.0911927
  2942   6 C     3163   1 H                                       1.0915860
  2942   6 C     3164   1 H                                       1.0926720
  2941   6 C     3165   1 H                                       1.0929238
  2941   6 C     3166   1 H                                       1.0925573
  2940   6 C     3167   1 H                                       1.0908931
  2940   6 C     3168   1 H                                       1.0928037
  2939   6 C     3169   1 H                                       1.0928105
  2939   6 C     3170   1 H                                       1.0919586
  2938   6 C     3171   1 H                                       1.0925741
  2938   6 C     3172   1 H                                       1.0929516
  2937   6 C     3173   1 H                                       1.0914260
  2937   6 C     3174   1 H                                       1.0913128
  2936   6 C     3175   1 H                                       1.0928867
  2936   6 C     3176   1 H                                       1.0927120
  2935   6 C     3177   1 H                                       1.0929420
  2935   6 C     3178   1 H                                       1.0929519
  2934   6 C     3179   1 H                                       1.0926950
  2934   6 C     3180   1 H                                       1.0909265
  2933   6 C     3181   1 H                                       1.0923502
  2933   6 C     3182   1 H                                       1.0929021
  2932   6 C     3183   1 H                                       1.0928006
  2932   6 C     3184   1 H                                       1.0933953
  2931   6 C     3185   1 H                                       1.0920286
  2931   6 C     3186   1 H                                       1.0922195
  2930   6 C     3187   1 H                                       1.0924043
  2930   6 C     3188   1 H                                       1.0931116
  2929   6 C     3189   1 H                                       1.0928991
  2929   6 C     3190   1 H                                       1.0918158
  2928   6 C     3191   1 H                                       1.0912454
  2928   6 C     3192   1 H                                       1.0940462
  2927   6 C     3193   1 H                                       1.0928597
  2927   6 C     3194   1 H                                       1.0922051
  2926   6 C     3195   1 H                                       1.0924379
  2926   6 C     3196   1 H                                       1.0932032
  2925   6 C     3197   1 H                                       1.0907883
  2925   6 C     3198   1 H                                       1.0923222
  2924   6 C     3199   1 H                                       1.0932636
  2924   6 C     3200   1 H                                       1.0939818
  2923   6 C     3201   1 H                                       1.0901758
  2923   6 C     3202   1 H                                       1.0932845
  2922   6 C     3203   1 H                                       1.0939985
  2922   6 C     3204   1 H                                       1.0908938
  2921   6 C     3205   1 H                                       1.0900741
  2921   6 C     3206   1 H                                       1.0926314
  2920   6 C     3207   1 H                                       1.0929107
  2920   6 C     3208   1 H                                       1.0920222
  2919   6 C     3209   1 H                                       1.0917307
  2919   6 C     3210   1 H                                       1.0942652
  2918   6 C     3211   1 H                                       1.0925055
  2918   6 C     3212   1 H                                       1.0905277
  2917   6 C     3213   1 H                                       1.0917611
  2917   6 C     3214   1 H                                       1.0916225
  2916   6 C     3215   1 H                                       1.0927519
  2916   6 C     3216   1 H                                       1.0924926
  2915   6 C     3217   1 H                                       1.0934231
  2915   6 C     3218   1 H                                       1.0930426
  2914   6 C     3219   1 H                                       1.0915446
  2914   6 C     3220   1 H                                       1.0924882
  2913   6 C     3221   1 H                                       1.0924852
  2913   6 C     3222   1 H                                       1.0937598
  2912   6 C     3223   1 H                                       1.0926824
  2912   6 C     3224   1 H                                       1.0932553
  2911   6 C     3225   1 H                                       1.0918644
  2911   6 C     3226   1 H                                       1.0930670
  2910   6 C     3227   1 H                                       1.0928492
  2910   6 C     3228   1 H                                       1.0918862
  2909   6 C     3229   1 H                                       1.0908035
  2909   6 C     3230   1 H                                       1.0926001
  2908   6 C     3231   1 H                                       1.0923230
  2908   6 C     3232   1 H                                       1.0936416
  2907   6 C     3233   1 H                                       1.0931966
  2907   6 C     3234   1 H                                       1.0919263
  2906   6 C     3235   1 H                                       1.0937193
  2906   6 C     3236   1 H                                       1.0906914
  2905   6 C     3237   1 H                                       1.0905284
  2905   6 C     3238   1 H                                       1.0911663
  2904   6 C     3239   1 H                                       1.0935754
  2904   6 C     3240   1 H                                       1.0928010
  2903   6 C     3241   1 H                                       1.0927403
  2903   6 C     3242   1 H                                       1.0931888
  2902   6 C     3243   1 H                                       1.0928589
  2902   6 C     3244   1 H                                       1.0916257
  2901   6 C     3245   1 H                                       1.0917948
  2901   6 C     3246   1 H                                       1.0928816
  2900   6 C     3247   1 H                                       1.0931628
  2900   6 C     3248   1 H                                       1.0920292
  2899   6 C     3249   1 H                                       1.0925075
  2899   6 C     3250   1 H                                       1.0932455
  2898   6 C     3251   1 H                                       1.0927743
  2898   6 C     3252   1 H                                       1.0912778
  2897   6 C     3253   1 H                                       1.0879475
  2897   6 C     3254   1 H                                       1.0878414
  2897   6 C     3255   1 H                                       1.0878171
  3016   6 C     3256   1 H                                       1.0876232
  3016   6 C     3257   1 H                                       1.0876205
  3016   6 C     3258   1 H                                       1.0881149

 * 2 distinct bonds (by element types)

   Z      Z             #   av. dist./Å        max./Å        min./Å
   1 H    6 C        2178     1.0923022     1.0946959     1.0862341
   6 C    6 C        1071     1.5274077     1.5338379     1.5222422


optimized geometry written to: xtbopt.xyz


           -------------------------------------------------
          | TOTAL ENERGY            -3427.532024857859 Eh   |
          | GRADIENT NORM               0.000988020953 Eh/α |
          | HOMO-LUMO GAP              11.528599272131 eV   |
           -------------------------------------------------

------------------------------------------------------------------------
 * finished run on 2024/10/04 at 09:40:49.312     
------------------------------------------------------------------------
 total:
 * wall-time:     0 d,  6 h,  5 min,  5.119 sec
 *  cpu-time:     1 d,  6 h, 32 min, 57.188 sec
 * ratio c/w:     5.021 speedup
 SCF:
 * wall-time:     0 d,  0 h, 14 min, 33.778 sec
 *  cpu-time:     0 d,  1 h, 31 min, 32.468 sec
 * ratio c/w:     6.286 speedup
 ANC optimizer:
 * wall-time:     0 d,  5 h, 49 min, 45.706 sec
 *  cpu-time:     1 d,  5 h,  0 min, 22.888 sec
 * ratio c/w:     4.976 speedup

