3258
 energy: -3427.534523635998 gnorm: 0.000821957123 xtb: 6.6.1 (8d0f1dd)
C          124.11661759361442       99.36510712179984       94.76580328763853
C          123.88010456180481      100.17398339627098       96.03446175014645
C          124.58908869025312      101.52557306360295       96.00668874433696
C          124.34027597476373      102.31885858896607       97.28680416013705
C          125.03004374791780      103.68077605081903       97.28527442676432
C          124.78136237678734      104.43793926069449       98.58762456130044
C          125.47887074863920      105.79523876338807       98.62579804014825
C          125.28134961137106      106.49518274040062       99.96841290140893
C          125.95351067853773      107.86451277183993      100.01953308038524
C          125.79467601210149      108.53158345172132      101.38426748006864
C          126.38066681357100      109.94063165826785      101.40601663425856
C          126.17601463216369      110.64438350215498      102.74630717553030
C          126.68790529564447      112.08207205095454      102.70388583845308
C          126.36902324179614      112.87497296079961      103.96975360373111
C          126.80797697673054      114.33149960653247      103.83235989527108
C          126.36385961452666      115.20875597435302      105.00072872557440
C          126.71189035948053      116.67713629396775      104.76236431630818
C          126.11603736919074      117.60823997023377      105.81565029848304
C          126.42920391829446      119.07536451103228      105.52419064651315
C          125.64502069077574      120.02874380300474      106.42311620802795
C          125.88809787753780      121.49218195822165      106.05719700799401
C          125.09636053840804      122.47662679401789      106.92189541514976
C          123.59562865894262      122.44326020891046      106.64055591557590
C          122.82270014256252      123.45907125598018      107.48075939663792
C          121.31421741383241      123.43212143173623      107.21824775879327
C          120.66735375709493      122.13395081675503      107.69125725762494
C          119.15859211948658      122.07882509379671      107.46021587688794
C          118.61411971151817      120.66307551729348      107.67059430158766
C          118.94821425182020      119.74316337150124      106.49756457015806
C          118.82253514016548      118.26116464116383      106.83755837500311
C          119.25651384780927      117.35774163219651      105.68137251697974
C          120.76969337969275      117.32856273461897      105.46927335564231
C          121.15324768038340      116.48571730282340      104.25508980982663
C          122.66585934055628      116.40938722733260      104.05662703053106
C          123.08040985450162      115.81534553570611      102.70915651589202
C          122.74564392443838      114.33397390327741      102.56391013082498
C          123.15081322467057      113.77092041793134      101.20378519857375
C          122.74268294002178      112.30834177943466      101.05210990284806
C          122.90834275745890      111.78509769959093       99.62708189816563
C          122.49638681112796      110.31859345051441       99.52559193391126
C          122.38694831159799      109.80820485191842       98.09031502639860
C          121.92708496657252      108.35137615332768       98.06704334172180
C          121.43453349804138      107.87769561828731       96.70050226184961
C          120.68424024142925      106.55289979485815       96.82677733408600
C          119.93060606339425      106.13969381092734       95.56168720188045
C          120.75562993936931      105.37075365734690       94.53317372621819
C          121.27518637560512      104.00913486110085       94.99761202241127
C          120.25154324567980      103.10347561157846       95.67844452061067
C          119.02258499681336      102.77270731173141       94.83691527267598
C          118.13287251693571      101.71547666576561       95.49542313293860
C          117.53450530262491      102.16360535262250       96.82632584062299
C          116.58074548760007      101.12919815546394       97.42433887515682
C          116.10586231467212      101.56385947321844       98.80809477397082
C          115.18823092739459      100.56283479691088       99.50820025144944
C          114.79264988535186      101.10189401109697      100.88039166671521
C          113.90539624268676      100.18260744338544      101.71663145921308
C          113.56495794396295      100.88160739464244      103.03124622656024
C          112.68785750241919      100.08552190785164      103.99300170937377
C          112.40902674011464      100.92182612089415      105.24046016919331
C          111.63501731789947      100.19086288798847      106.33268791935872
C          111.40408068528859      101.09983004901413      107.53679768544835
C          110.81851382130131      100.37573389856433      108.74561120677957
C          110.61677620748803      101.33883685472064      109.91304071931052
C          110.25628331686794      100.63361025826414      111.21602212727529
C          110.18993812625781      101.60810865909573      112.38922877219150
C          110.19942006160642      100.90303479547622      113.74271561226665
C          110.21555393722808      101.91101576599628      114.88841785859555
C          110.29375786466751      101.28420435638995      116.27954817637739
C          111.51702602399402      100.39837046663220      116.52969227576291
C          112.89140516661851      101.03390555336685      116.30216448516580
C          113.43673389253811      101.86835264716953      117.46273334498589
C          112.84985877605742      103.26916979341253      117.60991980262467
C          113.62306857748180      104.07272864779429      118.65312547005398
C          113.01206720468646      105.44489405271162      118.91864953885353
C          113.78749040827448      106.21253241684671      119.98593991157928
C          113.22346740970485      107.61028878380765      120.22196863456864
C          113.94784973938097      108.33889424657825      121.35164931482340
C          113.46430106371891      109.77865970618399      121.50099010881694
C          114.08635639928904      110.48084726006392      122.70590268548942
C          113.84691716510966      111.99140121738456      122.71043035986837
C          112.36939049793691      112.37637209499354      122.66503935923291
C          112.16301014757872      113.87004866021249      122.90631494022458
C          110.72429843980262      114.30636093801452      122.63755940819688
C          110.50121850209469      115.77160623117808      123.00572758050306
C          109.11702410179936      116.29477472079459      122.61673691875670
C          108.89730602326257      116.45416069295369      121.11130037038878
C          109.80554638548561      117.50404565118525      120.47439974420409
C          109.42646372774772      117.82863118824201      119.02968185436205
C          109.58093086771406      116.64071492918765      118.08378428942449
C          109.42156709769992      117.05252371512057      116.62282035149489
C          109.42205147844008      115.85037314525326      115.68231675437302
C          109.44493409479480      116.26554960036987      114.21329006156476
C          109.32846839433329      115.07890876844489      113.25501048350786
C          107.90640883303209      114.52421226452405      113.15177840051601
C          107.85042937431983      113.11721509363132      112.55644156416520
C          108.44902451145035      113.02833932085275      111.15710890480425
C          108.34088029149233      111.62977993625468      110.55542987355021
C          109.00175743671798      111.57728265375201      109.18226040586991
C          108.94056430618980      110.20144853429174      108.52718861339788
C          109.58635608471070      110.22723515946534      107.14580140822770
C          109.51315521436871      108.89157644363166      106.41370770625262
C          110.00807398843426      109.02485277985808      104.97668908973074
C          109.92740397528479      107.71965240311347      104.19128059991949
C          110.27974965284336      107.92751615395450      102.72040408560518
C          110.22987328643264      106.62678596767066      101.92209656035799
C          110.26078225125512      106.84147278138013      100.40852049877108
C          111.56043620587475      107.46613610558595       99.90988353313392
C          111.58102763849963      107.61071981023990       98.39032039334994
C          112.81161700259170      108.38089571000123       97.91954817919695
C          112.98394280143485      108.39941792384371       96.40094809645618
C          111.84679626295308      109.07023556975102       95.62810097511034
C          111.63476557490237      110.53675163584496       95.99874527335561
C          110.67102667661096      111.23515433779659       95.04130462555145
C          110.41558288116295      112.68378043630410       95.44852414718537
C          109.48846912100686      113.41725928387250       94.48191376425218
C          109.15524181795264      114.81784876776861       94.98851001032031
C          108.25144903266619      115.60482455774266       94.04429926943605
C          107.91414257546235      116.97922716323220       94.61809867983040
C          106.94764584828354      117.76803429621704       93.73981968221554
C          106.60274833713908      119.11722331502531       94.35951789461583
H          107.39258527311154      117.92181258886207       92.75359211849089
H          106.03093255680746      117.18914213440472       93.60088632293544
H          107.46880917097378      116.85389528692845       95.60742465626249
H          108.83573642096486      117.55389696951630       94.74310499828449
H          108.74168988221641      115.72255408997606       93.07418564203792
H          107.32679670184213      115.04536306228458       93.87722950121609
H          108.65524951315228      114.73098558389151       95.95525516452987
H          110.08255604281263      115.37412742103608       95.14530779879027
H          109.96218781766868      113.48374035355315       93.49852398669699
H          108.56373561099925      112.84643614759176       94.36015825548198
H          109.97066627579403      112.69728857332119       96.44584513482479
H          111.36732489935962      113.21690878554581       95.50421668777901
H          111.08216087679959      111.20833573697421       94.02801409197004
H          109.72194068844237      110.69175778748678       95.02027033340528
H          111.23713789652722      110.60647128197847       97.01298790074296
H          112.59439745390573      111.05822971038184       95.97963900572965
H          112.07989642709187      109.00714128683325       94.56065490772968
H          110.91727017300157      108.51867528232221       95.78444992627844
H          113.91779206871301      108.91611144443786       96.16325173066215
H          113.08160871943619      107.36972029691431       96.04542903576025
H          112.76166416374798      109.40411911633703       98.29662232523873
H          113.70025668869943      107.91566753877092       98.35468721558354
H          111.57216172472847      106.62022540828791       97.92880271271252
H          110.67518537485937      108.13163756824274       98.07272425167680
H          111.68436967991001      108.45499399587285      100.35424211795774
H          112.40533011028180      106.85053285784669      100.22787976870802
H          110.12083689690662      105.87715023920363       99.91265289137498
H          109.42287495568499      107.48214098791784      100.11913248123589
H          111.06696354973542      105.98846460789622      102.21611804507037
H          109.30879974306293      106.09680677378947      102.17855689455808
H          109.57641854036559      108.64268165205574      102.28607758077192
H          111.27813571168497      108.36553492363394      102.65299935647995
H          110.60536528860601      106.98240773358555      104.62948826016358
H          108.91502167286166      107.31427705027207      104.26527605194389
H          109.40556981134581      109.78097362187344      104.46694942783007
H          111.04119406383693      109.38077784894364      104.98131785370771
H          110.11265400413976      108.14677697395780      106.94330315916386
H          108.48031421890268      108.53580727015206      106.40820105354896
H          109.09009870899821      110.98809453231321      106.53862166108350
H          110.63201403722553      110.52402452042224      107.24562923770631
H          109.44878522268493      109.47128538652345      109.16070058014611
H          107.89814834428643      109.88460791489860      108.43544350173084
H          108.51782356039989      112.30685925599605      108.52693500137168
H          110.04648350076491      111.88016363748386      109.27927796008419
H          108.81932457736433      110.90561196390439      111.21956771205240
H          107.29018694269540      111.34634678193346      110.46677341141528
H          107.93745798621075      113.73826221168736      110.50270739542891
H          109.50160498852928      113.31148318569018      111.19506686395617
H          108.38270877158024      112.43006842045803      113.21996917357950
H          106.80582533346036      112.79537879055830      112.51923063056688
H          107.45382168954167      114.48858774577310      114.14521299216844
H          107.29926043588587      115.19999319115021      112.54357773718856
H          109.65798421542337      115.39844056598565      112.26403919783029
H          110.00519849190945      114.28840871401692      113.58891257165337
H          108.63457866172348      116.97219153817585      114.01951542570716
H          110.38309394354141      116.78988137682288      114.01509246590106
H          110.29440697343676      115.22718516563236      115.89395360978257
H          108.53877389003722      115.23969999622473      115.88188982854031
H          108.48978711584647      117.61021175795010      116.50073903208984
H          110.24050499421924      117.72410370049276      116.35335671333600
H          110.56715796302919      116.19233777901998      118.22610301418665
H          108.83264134208362      115.88399250187724      118.32537019759411
H          108.39394141968943      118.18402536297472      118.99700574899647
H          110.06626625262331      118.64296267972851      118.67846443656998
H          109.75077571609901      118.42206000686991      121.06686469319290
H          110.84122901504097      117.15906780572256      120.49352206441557
H          109.04678194599056      115.49347005997660      120.61921395235782
H          107.85713164446682      116.74673956585620      120.94874414563357
H          108.36044546919595      115.61145612062228      123.01181371650462
H          108.96432543509056      117.26587502721765      123.09591195240495
H          110.62395253495384      115.88122431141771      124.08690920770128
H          111.26943909905232      116.38478157671280      122.53182246563637
H          110.50378843567040      114.15114174825088      121.58020830667728
H          110.03788934598933      113.68169282653184      123.21531077731674
H          112.43222619994509      114.11255603975455      123.93785806984219
H          112.83272971342151      114.43490757359687      122.25252392771488
H          111.95725794220566      112.11920942011244      121.68824893662993
H          111.81954012213990      111.80862421141423      123.41971631988329
H          114.29831672184163      112.41365490307373      123.61283731579105
H          114.35396832898350      112.43579322757135      121.85023103223860
H          113.68297336758727      110.04656620320247      123.62457079312603
H          115.16544095813288      110.30087690567426      122.70867295373793
H          113.70856406256966      110.33432262250206      120.59401440089077
H          112.37857908645029      109.77399029727577      121.60681346084793
H          113.78806309050550      107.80112413389938      122.29028901283084
H          115.02402562919882      108.33633933166324      121.15647248163934
H          113.31172363879712      108.19331961126888      119.30323004313212
H          112.16117521139090      107.53597147344128      120.46581415741842
H          113.76396737371107      105.64983535232456      120.92352854861022
H          114.83543280034738      106.29440479701097      119.68410294120477
H          113.00024616102120      106.02122398356329      117.99158998521115
H          111.97722355076736      105.32460258474943      119.24748927180542
H          113.65678778641383      103.50791970169668      119.58998397360563
H          114.65666313160877      104.19825439149498      118.31874925852625
H          112.89101478505846      103.79028294197292      116.65179927348429
H          111.80554713290937      103.20702464135704      117.91607220765646
H          113.28636445563366      101.32541915875680      118.39833135844381
H          114.51775478488725      101.97051577131177      117.32347290305265
H          113.60085063340777      100.21812946997444      116.13001276212945
H          112.87840926889292      101.63848813607787      115.39704424451631
H          111.46702407312712      100.03577290611585      117.56020084083964
H          111.43866424895934       99.52124001727577      115.88185607570223
H          110.26326059705085      102.08603763252893      117.01805195899918
H          109.40425764410553      100.66860679482025      116.43934231929956
H          111.05726302512386      102.59200432407678      114.75016980276469
H          109.30684797892488      102.51688332098807      114.83752081578048
H          109.32365549677205      100.25574358467300      113.83211156430372
H          111.08676834101934      100.26891696911950      113.79750838321249
H          111.05420142369871      102.27475501361509      112.33897296035170
H          109.29454514045042      102.22963647090432      112.30560892458416
H          109.29944442695502      100.11816854300854      111.10541080911980
H          111.01287164561256       99.87390317495577      111.42537515094384
H          111.54277575159379      101.89860683256603      110.06753275813094
H          109.83566054682150      102.06036795932629      109.65893036367819
H          109.86624192359766       99.91258953052332      108.47751125611104
H          111.49881722432406       99.57592754365078      109.05155919252823
H          112.35815844409370      101.54932494928318      107.82577847209571
H          110.73704106859277      101.91570767916488      107.24715022097621
H          110.67416218650627       99.84273797794343      105.94405975578893
H          112.20090085768068       99.31084313530035      106.65084710307794
H          113.36406523494881      101.25217154661205      105.65722033161934
H          111.85459739206603      101.81769457894927      104.94945457569297
H          111.74759550337016       99.81547003538883      103.50485533919756
H          113.19004509873716       99.15782586640972      104.27294867910329
H          114.50085112075266      101.12951895877404      103.54089494126224
H          113.06257029851140      101.82537861854355      102.80302880492383
H          112.98986210908609       99.94308200970110      101.16958073258523
H          114.42556294361448       99.24178785054499      101.91476404243735
H          115.70317743186504      101.30898887064491      101.44828227151162
H          114.27250254792122      102.05357618754560      100.74295073352145
H          114.29361616989040      100.39222862938406       98.90385812867079
H          115.69996198963598       99.60296981462409       99.61574099246602
H          116.98249529592525      101.73352096467359       99.44029440926641
H          115.58133908077339      102.51878887326498       98.71918035559972
H          115.72066606250428      100.99347592716862       96.76315700798500
H          117.09063119535422      100.16447760520576       97.50043780876176
H          118.33566558653655      102.34502190461232       97.54351318229571
H          116.99834638445367      103.10522986151335       96.67958554945686
H          117.31857942651298      101.46866553289875       94.80996070807086
H          118.71408668973697      100.80347610002033       95.65384336317615
H          118.43339923892688      103.67422390875861       94.66336610664202
H          119.34903418329692      102.39940193677424       93.86223976076769
H          120.76096464078974      102.16623326902942       95.92093784198343
H          119.93747107010090      103.56332117341452       96.61529897611308
H          121.66653830995877      103.49054036471536       94.12097669666701
H          122.10801944856810      104.15292720068901       95.69098405339676
H          120.13006549413949      105.21539483285707       93.65225647902584
H          121.61112737250228      105.97676453637150       94.22491645499856
H          119.07662461609625      105.52263508829890       95.84598052238006
H          119.53071312343558      107.03686127595897       95.08020758702612
H          121.37810560109942      105.76618667885965       97.12682986299133
H          119.95268463892675      106.66365441387521       97.63013414237768
H          120.75564424093140      108.62993089648290       96.28978593210515
H          122.27395809050876      107.77791998409108       96.00841782404306
H          122.73625599454748      107.70425269833234       98.41302203542485
H          121.10495848579768      108.24610833471631       98.77920256919175
H          121.66394146374878      110.42416417969037       97.54867348460294
H          123.34738687064822      109.90891202722170       97.57893069177774
H          123.21231223992874      109.70362237977444      100.07592153553460
H          121.52173577764312      110.19841363338770      100.00572785680636
H          122.29162395026158      112.38427534422249       98.95135216538264
H          123.94808248529272      111.90060420107862       99.30970056520965
H          123.33127985283318      111.69314592737550      101.73675772730738
H          121.69147241618373      112.20788726576797      101.33524847834613
H          122.66937625340665      114.35353348971309      100.41438429828222
H          124.23172405243152      113.86934237673411      101.07334277899032
H          123.25213902710161      113.77077068209675      103.35041067249041
H          121.67054679395396      114.19342603036033      102.69118151303425
H          122.58822840113642      116.37440888070974      101.90858180000858
H          124.15925199588045      115.94440173515996      102.58833949561009
H          123.08006563261210      117.41914690018665      104.12644575464081
H          123.10321155022129      115.81744790838410      104.86456256489431
H          120.74413871559653      115.48088909518346      104.37624528185545
H          120.69649960927950      116.92655612074797      103.36520920523355
H          121.14673121961444      118.34330736784770      105.32583591089301
H          121.25120655196574      116.92545403911271      106.36461631201506
H          118.91623168742991      116.33699832099931      105.87488099919871
H          118.76982462030234      117.69420893210872      104.76158529654224
H          119.43285523047142      118.03481573967697      107.71569107431530
H          117.78313054711548      118.04412397175014      107.09583541636114
H          118.28936266985419      119.97951373572940      105.65866290512545
H          119.97006943003376      119.93961388207164      106.17490548713559
H          119.04490288755915      120.25291382258237      108.58736103733020
H          117.53112992009893      120.70024118519224      107.80622478066614
H          118.66530777308320      122.77030074107421      108.14775096245143
H          118.92808683433009      122.40458825115525      106.44247030411822
H          121.13218555005551      121.30015105215172      107.16584196301118
H          120.86758363849894      122.00543340570692      108.75616892456105
H          120.84900542458747      124.27616478567343      107.73471513890757
H          121.13358750353495      123.56240213659561      106.14805904528043
H          123.00564431307893      123.26326242345262      108.54087927824121
H          123.20414749549937      124.46043238388164      107.26360837680608
H          123.42358965057541      122.64983656407044      105.58129040845195
H          123.22178780749110      121.44194080170875      106.85215833695368
H          125.27218460845179      122.25212679102714      107.97700120593331
H          125.46872342128700      123.48747791823286      106.73500871482099
H          126.95460457774115      121.70732843996514      106.16366795055841
H          125.62593286860985      121.64882987529050      105.00759129105241
H          124.58250557583526      119.79954798505035      106.32879003783111
H          125.92694577194237      119.86420682881921      107.46548335976092
H          127.50079594121384      119.25385702333371      105.64365233153319
H          126.17910014329352      119.29211550759955      104.48240415640159
H          125.03259906890108      117.47289859343435      105.83276493614618
H          126.49555697104283      117.34032778400305      106.80400075550114
H          127.79829189922599      116.79651678457374      104.73966706305309
H          126.32937964009395      116.97180551119747      103.78143674704241
H          125.28262497563486      115.11627452539780      105.12120663894422
H          126.83041835721114      114.86236444874883      105.92574200940804
H          127.89600870562025      114.37581520398948      103.73594680677807
H          126.38208397968070      114.73563771459960      102.91012239706512
H          125.29156547785632      112.84100882437596      104.14894245446894
H          126.86229005681308      112.41758916919943      104.83112329648596
H          127.76896441382897      112.07758900544871      102.54130924968842
H          126.23211174803677      112.58888077981265      101.84964119181404
H          125.11047272154508      110.64864245432021      102.98847500573734
H          126.69087045051347      110.09179009710691      103.53661720805222
H          127.44925738705922      109.89362274285931      101.18035372251680
H          125.90734880514432      110.53357911140918      100.61970520361552
H          124.73347771949003      108.58050492247094      101.63883936609699
H          126.28426666303771      107.92004130303575      102.14642526789696
H          127.01692101899063      107.75627147589961       99.79093248245137
H          125.51905256771759      108.50772834795998       99.25053674100066
H          124.21147451655837      106.61519101164158      100.15728663510544
H          125.68409488271782      105.86445651092383      100.76461990518528
H          126.54803808685566      105.65785477040254       98.44462266195691
H          125.09101547582135      106.42712668905018       97.82338973498780
H          123.70565209340437      104.58395290833370       98.71835548514383
H          125.13709369906394      103.83141785750244       99.42455358410486
H          126.10544640734436      103.54253049886273       97.14675946027539
H          124.66722214650687      104.27362518351445       96.44246106444095
H          123.26474428592519      102.46119115576046       97.41756935969732
H          124.70338238518792      101.73903924300616       98.13981112744911
H          125.66343690726511      101.36994154033184       95.87804723704961
H          124.23602441411687      102.09926549730159       95.14713387495635
H          122.80844999153366      100.33648519679394       96.16485005084449
H          124.23384193530799       99.60255187853556       96.89693452869126
H          125.17782576837162       99.16521742638064       94.63045573714373
H          123.59185811009917       98.41307639281962       94.81578657173358
H          123.75817941082869       99.90831946508888       93.89468551128301
H          105.90641465776102      119.66465767993205       93.72858061679761
H          106.14561641024456      118.97978473474059       95.33729607361735
H          107.50011044243958      119.72001073713095       94.48377420432774
C          124.55787017623355       96.28708054406172      107.71799455250934
C          124.93786642723443       97.75896899047456      107.63622988893698
C          124.38025230266815       98.57323982615581      108.80074866516497
C          124.77642499748437      100.04313951927551      108.69595264338463
C          124.25114869788896      100.88756842372609      109.85369413766576
C          124.66914446530525      102.34859684881603      109.71024702878911
C          124.18031711630610      103.22505313103544      110.86005603313478
C          124.59771132668452      104.68102593164819      110.66947778312309
C          124.11620392592417      105.58939709279591      111.79760397434356
C          124.49632457310958      107.04683677315261      111.54816557397587
C          123.99392582354108      107.98451041790646      112.64307798387334
C          124.30460874625329      109.44503766452884      112.32419133952168
C          123.77292865736175      110.40650008196927      113.38447691611968
C          123.99716124246864      111.86463678996751      112.99053010447869
C          123.44439147679000      112.84675523812101      114.02085866030411
C          123.57298127106365      114.29303404831747      113.54765855237342
C          123.00706589189186      115.29644294608732      114.55025295126069
C          123.08454751051057      116.72416150784805      114.01192094726728
C          122.54713804696028      117.78262857546045      114.97674054522876
C          123.44306456217308      117.96892311966292      116.19901606321412
C          123.00425981552894      119.10120722043516      117.12990020307966