3258
 energy: -3427.529689362946 gnorm: 0.000995800174 xtb: 6.6.1 (8d0f1dd)
C          124.11578366877166       99.36542354871239       94.76507004178931
C          123.87948937664811      100.17405261658094       96.03399890187231
C          124.58895990805023      101.52558025043879       96.00575712908324
C          124.34012167064274      102.31897496015091       97.28605125440680
C          125.03000065096971      103.68106282928368       97.28403928943595
C          124.78120856272356      104.43807964333678       98.58671703060095
C          125.47867243072575      105.79566798632885       98.62435221995557
C          125.28110699772103      106.49540777225673       99.96733242250357
C          125.95334224348431      107.86497633070267      100.01805783639797
C          125.79436350944582      108.53171621243332      101.38320333797337
C          126.38052507655981      109.94094436827382      101.40457387311361
C          126.17584544593801      110.64438565426936      102.74527172556654
C          126.68774209604584      112.08229102854925      102.70232851978923
C          126.36907759209130      112.87490416105503      103.96867327890961
C          126.80782944881581      114.33165748183241      103.83081645352539
C          126.36397796429648      115.20858131317772      104.99980029705648
C          126.71169842390360      116.67715301082663      104.76101097026927
C          126.11588857566504      117.60803607051285      105.81471605485784
C          126.42912844216008      119.07524038873605      105.52308999289748
C          125.64439268180244      120.02811174348361      106.42220201432602
C          125.88763024897197      121.49162580520940      106.05641867233159
C          125.09615122149444      122.47553373171955      106.92162949072981
C          123.59545318928264      122.44221705085000      106.63984626628765
C          122.82312020013329      123.45811428212708      107.48060512920591
C          121.31478407018425      123.43229716580721      107.21785470781710
C          120.66830298976542      122.13384251674101      107.69116470369271
C          119.15947152272122      122.07891247392561      107.45937760124046
C          118.61470396250071      120.66308782690434      107.67020610599485
C          118.94904861273174      119.74320893741046      106.49685031777832
C          118.82331000400933      118.26100123153451      106.83733177733899
C          119.25685447790634      117.35755105311375      105.68054952984380
C          120.77041200306965      117.32899695712285      105.46892588451087
C          121.15337693906231      116.48573901598448      104.25447787236685
C          122.66626365544461      116.40955842393022      104.05592315353874
C          123.08036273502617      115.81562326447508      102.70809295426203
C          122.74564642984481      114.33389166793494      102.56321608428173
C          123.15087399361371      113.77137070911726      101.20254644668192
C          122.74249114390437      112.30852287640447      101.05121720044372
C          122.90794706177249      111.78592831260082       99.62563689129186
C          122.49617292304060      110.31901272309744       99.52473015723650
C          122.38672886233171      109.80896202012877       98.08899961944054
C          121.92691964782574      108.35178535327699       98.06639836650915
C          121.43433064109571      107.87840019783212       96.69943147317724
C          120.68431938389378      106.55320098687790       96.82638014948903
C          119.93018891865933      106.14000241904290       95.56114194912550
C          120.75543038014925      105.37090031177726       94.53266730922567
C          121.27516819338685      104.00942014205697       94.99750449270563
C          120.25123369083725      103.10387749183597       95.67861618359865
C          119.02237003283474      102.77298065830441       94.83647238557170
C          118.13331107200797      101.71507360115180       95.49514354800772
C          117.53472794426015      102.16370162271697       96.82622830992601
C          116.58085877440985      101.12873078999132       97.42397959456606
C          116.10595480112303      101.56398774728578       98.80791221925163
C          115.18821724816824      100.56229611087815       99.50776246898793
C          114.79282081007700      101.10182801461352      100.88025123472676
C          113.90502507000755      100.18211358995985      101.71621282740477
C          113.56500724978875      100.88172154895894      103.03103856059965
C          112.68778225678997      100.08465701739026      103.99255366895164
C          112.40875187051834      100.92176018317144      105.24000739508752
C          111.63437134034669      100.19052392906976      106.33242966301884
C          111.40389073228788      101.10036722536927      107.53650117505133
C          110.81798106961347      100.37558606436693      108.74526440390848
C          110.61643231100746      101.33928419318896      109.91277354618504
C          110.25649228274294      100.63308504434738      111.21585365069691
C          110.19022637260767      101.60810205442702      112.38914721459726
C          110.19963866182526      100.90239069747287      113.74274635065473
C          110.21548008255267      101.91105831102583      114.88835513064178
C          110.29344611705729      101.28377961378339      116.27962969817034
C          111.51691428550444      100.39780680345044      116.52944415622937
C          112.89149179611374      101.03384578186024      116.30248101097091
C          113.43656762531621      101.86787185905594      117.46382803160442
C          112.84955759639041      103.26903265209106      117.61065588763975
C          113.62331786535286      104.07230247099567      118.65413808064278
C          113.01177113101419      105.44466598565023      118.91923996502555
C          113.78749209114446      106.21203758105713      119.98685435705104
C          113.22281322049174      107.60988677975251      120.22227617975106
C          113.94769625521438      108.33847460429985      121.35197162003013
C          113.46409291921229      109.77847590172136      121.50073511992021
C          114.08630507261329      110.48058928889725      122.70588504711048
C          113.84740552260278      111.99120195769972      122.70961867595108
C          112.36979501552467      112.37632844743652      122.66370350154126
C          112.16422902062536      113.87025964720496      122.90487674720430
C          110.72530565952178      114.30614727261241      122.63589223739451
C          110.50280246212036      115.77156968702552      123.00409942621226
C          109.11853649041092      116.29478996305923      122.61607545902943
C          108.89759091770468      116.45412626626393      121.11071400418388
C          109.80656320664130      117.50400968645663      120.47442060330373
C          109.42709760018840      117.82949385856151      119.02994939083823
C          109.58132827678624      116.64092107746673      118.08430673161594
C          109.42186809377424      117.05301049630729      116.62312233979101
C          109.42210549646298      115.85023384917866      115.68274128736834
C          109.44520787939527      116.26592709955656      114.21347036293577
C          109.32883879704688      115.07935578518500      113.25449189599121
C          107.90629334782942      114.52476651314055      113.15187351984424
C          107.85040115945074      113.11732146819408      112.55688120372432
C          108.44927177478418      113.02904230775839      111.15717121464814
C          108.34066611290487      111.62999375497925      110.55555081377516
C          109.00192336238003      111.57814954915258      109.18202682118576
C          108.94053226066070      110.20169219912908      108.52722970347307
C          109.58641171299494      110.22801981002800      107.14538593818280
C          109.51277372880686      108.89167735650531      106.41362038266358
C          110.00815513195823      109.02548316853445      104.97633401845931
C          109.92720701862827      107.71967482387842      104.19112594296021
C          110.27956431391274      107.92837708570032      102.71993092924410
C          110.22953871406840      106.62708199411695      101.92168320739015
C          110.25959165488086      106.84209599352099      100.40780729262721
C          111.55982237564906      107.46653969918040       99.90932072986746
C          111.57986149248804      107.61060814116193       98.38936761055514
C          112.81099339038403      108.38099917231980       97.91918553401599
C          112.98299953108966      108.39936959097923       96.40019479034676
C          111.84532337306153      109.07048520686860       95.62839855111827
C          111.63423984594270      110.53730743867897       95.99928093722981
C          110.67036524620229      111.23529750342945       95.04134766466970
C          110.41521433578336      112.68414091199038       95.44868293546691
C          109.48783045331318      113.41724787856664       94.48175665355450
C          109.15478561015786      114.81793136217814       94.98868211799702
C          108.25107424891283      115.60481111297679       94.04409387902680
C          107.91403806357381      116.97914635026417       94.61843761236112
C          106.94721930404000      117.76758474035472       93.74017429928973
C          106.60310747666369      119.11672820981369       94.35989970797105
H          107.39258676426554      117.92115943532012       92.75455974028554
H          106.03063262863452      117.18887870088251       93.60196861652328
H          107.46927669208957      116.85377370328148       95.60813199623072
H          108.83562308081289      117.55371229563960       94.74294807926577
H          108.74242120871820      115.72282828856135       93.07522294115795
H          107.32696002105493      115.04523570221400       93.87734240314137
H          108.65512175902987      114.73110623535655       95.95580288468808
H          110.08224329536135      115.37389219769837       95.14575905299870
H          109.96237983196787      113.48409519544926       93.49957237174053
H          108.56367985453439      112.84632079093707       94.36094574131444
H          109.97102859451138      112.69793751816700       96.44655198319528
H          111.36714853724948      113.21697760409140       95.50442055440041
H          111.08246220314720      111.20876813006039       94.02928424920982
H          109.72185308170295      110.69204261950507       95.02139054219731
H          111.23733838460862      110.60767746812284       97.01390210690759
H          112.59419730113288      111.05815532365604       95.98000245406052
H          112.07902885455553      109.00804487917360       94.56187276863372
H          110.91629258950577      108.51935992129468       95.78588039025998
H          113.91684472165601      108.91608653355659       96.16360045208032
H          113.08040616470755      107.36983321410212       96.04563513403923
H          112.76046550457527      109.40398823574462       98.29660310793174
H          113.69923637654320      107.91595503092954       98.35517842091703
H          111.57157055450301      106.62023258641386       97.92904150034617
H          110.67458632523694      108.13187383675950       98.07277682562777
H          111.68385593846365      108.45519004579602      100.35381894235626
H          112.40427816366675      106.85085666773610      100.22780012045833
H          110.11994731091893      105.87791199234951       99.91281772411644
H          109.42234974374064      107.48303438111211      100.11924016921030
H          111.06709845903781      105.98985124735269      102.21571558291679
H          109.30887456562959      106.09773666297703      102.17908820999777
H          109.57592566811815      108.64305532613521      102.28646685358098
H          111.27769865436944      108.36620650386874      102.65301694730528
H          110.60519814752000      106.98302949676085      104.62926854073655
H          108.91500417588146      107.31531529157603      104.26518130575302
H          109.40544605808624      109.78106634126276      104.46699672775179
H          111.04099875496517      109.38111646364464      104.98161265786717
H          110.11227581859838      108.14762847183327      106.94323933432817
H          108.48010457831131      108.53699857523958      106.40798404110927
H          109.08972664892248      110.98835992207484      106.53866138296024
H          110.63181738625325      110.52453517768377      107.24534495359566
H          109.44910152668781      109.47220684925631      109.16049557274923
H          107.89854675786761      109.88556745688294      108.43529821429449
H          108.51756681279024      112.30712268305466      108.52719352725828
H          110.04634369617563      111.88097342528128      109.27922574036238
H          108.81895285681348      110.90585298610232      111.21923987821530
H          107.29026730489589      111.34752574235571      110.46610175368690
H          107.93744288294450      113.73826100567406      110.50297161908651
H          109.50174851202681      113.31176870404425      111.19522760281426
H          108.38296835539683      112.43044343984360      113.21993003214075
H          106.80615646539418      112.79604488706690      112.51888722447741
H          107.45454927876750      114.48859944161367      114.14521877603129
H          107.29976470303174      115.19989426940836      112.54324957142460
H          109.65716973869215      115.39968937484299      112.26359062912459
H          110.00575768044909      114.28894366815905      113.58771004957410
H          108.63503789498802      116.97210032885590      114.01947664597267
H          110.38354659702836      116.78910548879573      114.01507125325696
H          110.29437930054506      115.22706128067681      115.89370813736676
H          108.53890935070653      115.23965924939553      115.88159394874734
H          108.49019448685722      117.61002158645793      116.50049731214183
H          110.24091817798963      117.72354767381782      116.35288763000852
H          110.56727101681561      116.19224451034208      118.22584878849487
H          108.83287218117137      115.88439840536407      118.32495339978780
H          108.39463628011517      118.18385449518547      118.99672014443443
H          110.06709578497455      118.64269295676726      118.67751658693938
H          109.75071613389420      118.42154646964096      121.06625826011192
H          110.84188860541548      117.15866141838102      120.49283406055379
H          109.04632666213762      115.49367745382945      120.61768324675958
H          107.85791386085413      116.74802284344551      120.94825408356674
H          108.36202671496640      115.61169356300304      123.01088075487408
H          108.96658290309284      117.26603198203881      123.09386306467059
H          110.62495614472866      115.88017434828994      124.08475599151770
H          111.27098525901903      116.38444993427579      122.53009419317956
H          110.50470179868429      114.15033173429282      121.57837034028677
H          110.03933478040686      113.68180962264444      123.21391727052693
H          112.43238329355027      114.11197082228598      123.93612741080797
H          112.83381855238284      114.43503509434341      122.25089133385532
H          111.95746987408904      112.11905670801460      121.68681477763249
H          111.82016197713881      111.80905404134914      123.41828957395931
H          114.29744927586755      112.41310627214013      123.61206844293532
H          114.35484008019301      112.43556622164310      121.84963657429351
H          113.68126112185588      110.04679913734310      123.62320713164529
H          115.16484259138653      110.29999822671024      122.70857652359228
H          113.70760683717154      110.33395598816480      120.59322558636227
H          112.37849315121652      109.77345196433852      121.60635161708423
H          113.78603678482236      107.80134855221827      122.28963215488790
H          115.02337929220801      108.33534557164609      121.15663462962584
H          113.30936670132488      108.19269253466446      119.30292863524453
H          112.16082316258574      107.53455473673814      120.46634649097369
H          113.76161943011631      105.64983222763651      120.92362221945089
H          114.83505359638768      106.29345874250353      119.68512661416749
H          112.99916870702243      106.02072876895343      117.99181886591089
H          111.97718800726072      105.32418928837396      119.24808596685818
H          113.65565544810565      103.50769482889848      119.59007632327074
H          114.65627714193532      104.19769709224234      118.31916891220693
H          112.89038552518913      103.78970234593496      116.65215306849622
H          111.80539261617074      103.20696375382582      117.91657730528956
H          113.28480031689492      101.32498516010682      118.39843358155058
H          114.51703263496599      101.97008333533694      117.32425466797741
H          113.60031948652623      100.21806706166768      116.13059902188644
H          112.87866170054089      101.63847954814135      115.39729686157189
H          111.46668141408944      100.03592977824071      117.55951590984823
H          111.43886680473194       99.52169854473112      115.88084191524376
H          110.26304507365644      102.08594041332870      117.01726863677794
H          109.40417320774128      100.66838041367667      116.43807996151578
H          111.05727453649176      102.59172129636559      114.74987939950627
H          109.30688363913535      102.51639730058153      114.83716312550763
H          109.32375932251757      100.25616778307392      113.83164683713376
H          111.08706557370068      100.26897548518748      113.79759735932618
H          111.05446634277097      102.27457906511117      112.33876921056066
H          109.29494304639762      102.22903560245182      112.30556232044727
H          109.29981096903668      100.11867937490905      111.10511154952057
H          111.01329086211921       99.87402703067393      111.42492715810494
H          111.54215330144133      101.89922476016932      110.06710601640016
H          109.83459429520639      102.05963815626272      109.65930031242553
H          109.86566880746064       99.91408999177854      108.47697919985882
H          111.49818330386604       99.57629569978306      109.05123966741469
H          112.35784711258484      101.54961255341740      107.82549629587825
H          110.73673094392474      101.91572679332805      107.24709766232128
H          110.67366855998232       99.84360299916644      105.94424218734399
H          112.20057563752394       99.31145127718203      106.65093681753156
H          113.36367403082021      101.25190738591726      105.65677943654249
H          111.85447121642227      101.81730974000946      104.94886543217318
H          111.74834199268120       99.81481908721804      103.50410203227466
H          113.19081474422140       99.15804252493582      104.27290199825359
H          114.50069707087339      101.12968481001519      103.54068131597725
H          113.06240422022135      101.82520265171915      102.80312826782570
H          112.98955181331939       99.94392278541983      101.16970118773457
H          114.42522045976386       99.24205090638327      101.91476650487802
H          115.70308243008472      101.30885439401021      101.44843537539911
H          114.27279183927971      102.05343632276032      100.74291914212381
H          114.29356806711525      100.39292336616656       98.90418791383598
H          115.70017087251234       99.60311948598118       99.61571544834941
H          116.98223002518216      101.73398878979005       99.44038608759072
H          115.58116050527734      102.51865101113766       98.71914431579606
H          115.72088977789620      100.99397971998901       96.76347176183315
H          117.09079166559479      100.16468266521784       97.50113007093661
H          118.33540546878561      102.34561414464204       97.54386542074678
H          116.99828450977002      103.10499103621437       96.67950048342617
H          117.31888811979110      101.46828232788361       94.81071513132687
H          118.71504660692861      100.80412597452802       95.65466489744831
H          118.43309994337450      103.67427598768928       94.66326753249842
H          119.34973034143430      102.39952619697155       93.86278718099437
H          120.76039587144615      102.16681255394300       95.92105961462157
H          119.93698725809594      103.56390835471518       96.61545873686187
H          121.66562008672018      103.49071260663226       94.12106939079156
H          122.10732219656458      104.15314546838346       95.69128365477415
H          120.12922146695564      105.21538644225514       93.65273135900580
H          121.61067876242221      105.97680043776562       94.22543821597031
H          119.07637814554130      105.52318368984852       95.84630210910852
H          119.53078273760083      107.03705915561092       95.08000030196187
H          121.37846959800979      105.76688133018067       97.12589212213216
H          119.95297319641496      106.66335744925421       97.63009017983157
H          120.75518170316053      108.63013755859443       96.28923224594840
H          122.27360618879838      107.77770183517858       96.00844014640883
H          122.73590259125818      107.70491947617121       98.41207027046900
H          121.10486064957301      108.24643476933490       98.77871554901283
H          121.66348305276590      110.42451779087328       97.54795802623548
H          123.34699450264615      109.90892729619395       97.57865089179478
H          123.21222216633467      109.70437538653255      100.07467566418813
H          121.52160732805163      110.19875856658575      100.00513852894306
H          122.29027711088574      112.38471181634480       98.95107629988586
H          123.94720099457876      111.90114421330156       99.30886839206558
H          123.33122635028448      111.69355089226332      101.73552569304657
H          121.69128320012793      112.20815537980548      101.33451385385443
H          122.66898585111166      114.35372486719113      100.41372045190536
H          124.23132385753979      113.86923962957859      101.07305407961435
H          123.25262883784124      113.77095198838123      103.34926369579118
H          121.67064348206834      114.19298830530451      102.69098387985265
H          122.58763000076317      116.37417166542012      101.90797977973465
H          124.15879071604428      115.94400254855550      102.58794212960480
H          123.07944382819699      117.41923663201815      104.12521277193150
H          123.10311561001477      115.81746796722217      104.86357475708691
H          120.74390896592229      115.48120058987787      104.37617163287277
H          120.69643103149821      116.92670687061023      103.36510494997154
H          121.14677647536064      118.34349206042221      105.32521044337170
H          121.25111715720081      116.92567083559413      106.36418089143545
H          118.91706417330305      116.33678041504324      105.87426318330965
H          118.77004568617568      117.69407756633338      104.76116501082784
H          119.43409111658337      118.03416300578724      107.71466655461337
H          117.78407871457770      118.04395340101117      107.09579637719079
H          118.29008920150447      119.97875074360230      105.65826424453502
H          119.97086477088187      119.93926378454535      106.17487650319734
H          119.04568943059591      120.25224331579082      108.58637166845432
H          117.53176416974129      120.69946845945842      107.80565357864525
H          118.66562360380084      122.76914600606469      108.14715682123014
H          118.92879269164825      122.40366340753036      106.44177367775166
H          121.13288083285315      121.29956211372706      107.16626341265143
H          120.86715938866878      122.00503454138013      108.75611238831488
H          120.84919653338892      124.27536235311844      107.73471714911928
H          121.13345538374331      123.56137667893850      106.14793274772254
H          123.00559288862217      123.26210407128664      108.54049820903263
H          123.20436664216363      124.45870114789800      107.26269149889518
H          123.42353199311592      122.64954642614741      105.58089614814209
H          123.22132925430931      121.44057913401342      106.85049322735570
H          125.27149338958289      122.25036253914935      107.97647903637062
H          125.46773081699321      123.48614546853271      106.73469124044273
H          126.95376593694769      121.70581814565918      106.16367491178774
H          125.62554463068945      121.64847235779411      105.00697365364940
H          124.58174438739229      119.79828639009720      106.32807822816279
H          125.92641803593941      119.86335055243489      107.46429035585071
H          127.50001398942536      119.25314996969931      105.64396575625422
H          126.17951190804122      119.29205884925825      104.48136726373511
H          125.03225902991072      117.47234806243965      105.83286883367917
H          126.49609024892843      117.33999224824350      106.80244140850104
H          127.79745607003177      116.79614598271968      104.73938930692213
H          126.32918791472154      116.97167162379353      103.78015331776878
H          125.28269456291441      115.11537566597033      105.12158180069410
H          126.83145735752316      114.86236003865943      105.92399283290401
H          127.89520016948666      114.37558615912329      103.73505296083695
H          126.38162827223553      114.73570279384255      102.90876819091977
H          125.29156091422736      112.84037821458600      104.14890567825128
H          126.86309555134041      112.41777846639621      104.82922066606493
H          127.76815026268969      112.07724646450811      102.54052109000766
H          126.23173666037393      112.58895461986904      101.84822011781212
H          125.11019950599371      110.64823224387877      102.98804736405246
H          126.69111680862851      110.09213358322006      103.53494446790698
H          127.44852190177819      109.89315642340141      101.17995020335248
H          125.90718438672728      110.53381895433672      100.61838872866053
H          124.73302462988281      108.58027542763288      101.63821612678773
H          126.28423402216902      107.92049576188114      102.14484334597702
H          127.01613696513665      107.75609830044137       99.79045443475974
H          125.51871890383580      108.50801755275877       99.24927056543351
H          124.21107875016867      106.61496276749190      100.15689319104843
H          125.68436268038658      105.86495030466629      100.76306145063907
H          126.54718890877760      105.65783891714621       98.44407150231368
H          125.09037841370605      106.42721684524106       97.82218468757968
H          123.70530607814675      104.58371301891017       98.71814016705622
H          125.13749130411732      103.83186153082336       99.42329836705761
H          126.10475547310607      103.54234117593847       97.14657934214748
H          124.66707368843532      104.27388383786409       96.44150508267040
H          123.26444112791883      102.46114647675563       97.41771153012152
H          124.70383764869440      101.73964396521443       98.13879525936493
H          125.66272233698488      101.36938232093054       95.87855464013771
H          124.23639810411034      102.09935717713118       95.14625050036075
H          122.80783568505117      100.33676459249837       96.16534632440182
H          124.23399208069554       99.60309631860800       96.89612535890582
H          125.17685530985163       99.16562159860811       94.63095251372114
H          123.59059551645083       98.41367357037248       94.81497995216979
H          123.75801542913243       99.90890717707671       93.89399231289927
H          105.90762259636827      119.66436077352803       93.72838036345371
H          106.14506887507535      118.98042512455551       95.33748310301122
H          107.50073211798977      119.71916614869851       94.48446938019497
C          124.55718625742594       96.28667389114119      107.71795167311538
C          124.93761879097379       97.75864945384212      107.63600487146306
C          124.37988840059120       98.57289303879212      108.80085203323738
C          124.77658074134632      100.04291982752785      108.69588710465163
C          124.25096905259772      100.88728480258325      109.85387943786982
C          124.66939521223806      102.34843001979225      109.71016924007525
C          124.18011713484621      103.22482533812257      110.86017546079322
C          124.59790554726730      104.68091435129939      110.66928966570828
C          124.11600414209283      105.58918942999767      111.79766797592154
C          124.49645252468548      107.04675367586630      111.54790765500788
C          123.99368914984879      107.98426120374135      112.64314887633891
C          124.30463668277304      109.44492300072261      112.32393366993391
C          123.77266318293614      110.40619970233504      113.38460587145126
C          123.99713598652643      111.86448220076417      112.99035301578371
C          123.44424066791935      112.84646757329399      114.02112791205828
C          123.57319020591898      114.29289992318120      113.54767086173403
C          123.00732733412947      115.29629560548334      114.55063419846235
C          123.08502235468349      116.72420747156649      114.01217920655726
C          122.54735196388633      117.78232755419079      114.97752497172340
C          123.44348064480795      117.96745459240850      116.19996900932671
C          123.00465748822830      119.09986043275707      117.13047376780030