3795
 energy: -5103.037096562986 gnorm: 0.000943361350 xtb: 6.6.1 (8d0f1dd)
C          114.61275067575365      121.15387939210383      106.76246897261861
C          115.33409883611742      122.41912518513780      106.36518005379280
C          113.37199999157014      120.91798887617655      105.88754098417000
C          112.36179183395099      122.05834319260903      105.98430476504828
H          113.68132608991822      120.78635885715720      104.84839381901817
H          112.89579608312152      119.98928798469008      106.20480193749135
C          111.07344737344235      121.73891740692297      105.22073806588708
H          112.10983716117627      122.23883935861157      107.03062842528803
H          112.81091603102784      122.96977740338328      105.58807217533422
C          110.22593657954367      120.75027249126428      106.00946815862696
H          110.48517303125924      122.65055165148422      105.09538191109328
H          111.31771834524901      121.33151118816113      104.23945882496969
N          110.18679063829089      119.51490432241806      105.49747353433548
O          116.34389514483736      122.19072785544915      105.54964799756765
O          115.01992633947275      123.52791671298708      106.73642816350053
H          116.85486145793192      123.02775661906631      105.31548233828754
H          114.30811914955420      121.24606057980105      107.80614087452668
H          115.30692670520169      120.32009674280417      106.65403838870473
C          109.39796869153409      118.45877024695611      106.09423114005418
H          110.71921592939589      119.28577098917440      104.66520739214013
C          109.83329681459321      117.06998419138399      105.63710724916231
H          109.47288670730499      118.55521447811590      107.18121790134198
H          108.34820586096241      118.59907578809919      105.81265971390187
C          111.32854728342788      116.77691131156881      105.77453490176961
H          109.25689844498210      116.34127794789076      106.21183985371408
H          109.56276641726534      116.94754958825851      104.58636891246465
C          111.88470149774921      117.05131032230261      107.16996462351429
H          111.48642646954721      115.72328100577420      105.53424210587420
H          111.86659886838957      117.37398691197470      105.04072180169359
C          113.27201288567416      116.44446257712696      107.37513065575698
H          111.93348317678713      118.12836309886825      107.33849626593722
H          111.21325727491208      116.62216203644262      107.91509697452392
C          114.33724991879795      117.07956910118084      106.47971803661680
H          113.57514763821590      116.57911895347894      108.41601828925953
H          113.22554983793414      115.37058981496358      107.18197038163068
N          115.60713872095621      116.41724097092064      106.66715849460877
H          114.07358244666970      116.98508035657309      105.42539401336364
H          114.43343661967489      118.14267283329954      106.72158268960683
C          116.33496675840159      115.89603915277736      105.67842668904930
H          115.97222716970958      116.39587118982463      107.61391526445639
O          109.64618029876200      121.07267757338398      107.03757188479564
C          117.49532745228770      115.04278334306302      106.15728219906438
C          118.74827413387487      115.13578290708283      105.28749033274111
H          117.72174503923894      115.28888931166330      107.19427896271597
H          117.13219854692171      114.01084445175563      106.13685246663557
C          119.83272595157263      114.21569749382087      105.84105680545616
H          118.49749483145527      114.84120373488526      104.26842489053914
H          119.11348466832449      116.16292398830817      105.25203960218091
C          121.08014277619084      114.12506695612318      104.95830239075960
H          120.12627077284665      114.55547067269345      106.83372572381019
H          119.41777128414230      113.20941482381345      105.94447141454233
C          121.95555877264503      115.36320630190517      105.03190033437727
H          121.67553863488428      113.26946250802881      105.28110926010498
H          120.77605341625559      113.98373315396722      103.91892664312580
N          122.83260339310426      115.36554456994354      106.03742544469421
C          123.85226318852961      116.37822030332414      106.18912452860526
H          122.82180613929026      114.62433408586061      106.73592534047697
O          116.05859420625821      116.04251111142182      104.49029760324501
C          124.02780779434202      116.81022253741449      107.64123421438771
H          124.80816967876305      115.97931538741793      105.82056712666939
H          123.57056634343512      117.22995483154901      105.56353896977770
C          125.21265734042986      117.76469845445060      107.78063129120204
H          123.11701311274153      117.30712387009065      107.97948490416437
H          124.17607940882337      115.92267382289208      108.25859829082090
C          125.39771411849227      118.26784878805427      109.21099261829396
H          126.12630449517499      117.26916262602447      107.44439975257259
H          125.04865762257673      118.62052508256009      107.12192268481458
C          126.39192822733911      119.42587846955908      109.28633294446614
H          124.43171010105009      118.61560311415103      109.58668579183231
H          125.73316377880514      117.44404435578384      109.84340281633605
C          126.44092621579848      120.07210516362481      110.66851035689551
N          127.14318820747619      119.26726994857641      111.64462835461244
H          126.97585478564551      121.02427613657127      110.62191641178183
H          125.41677207921849      120.27370809462485      111.00378368010458
C          127.89488350880224      119.81955122825326      112.60843332312109
H          126.95343931646639      118.27491375852401      111.68572401139961
O          121.88647009465848      116.26809618841578      104.20403009980933
C          128.65229892537238      118.83943796801059      113.47476894673107
C          130.07930903298310      118.70255492386815      112.93093527273874
H          128.68940549397294      119.22190837615607      114.49463314295370
H          128.15509689091326      117.87207539382936      113.46805363490287
C          130.99600408862833      117.94765122678609      113.89004027047721
H          130.04569001413125      118.17311467121478      111.97800062659725
H          130.48861244363908      119.69740766273239      112.74064993431641
C          132.29177776238120      117.51692812839701      113.19820991898493
H          131.23633610667918      118.57035566585367      114.75140305858761
H          130.48542359907020      117.05553290650944      114.25481763761177
C          133.00796170859937      118.68322729510929      112.53957005930280
H          132.96024747220133      117.06494196731319      113.93201304071414
H          132.07060427253822      116.77896961421034      112.42443817319823
N          133.55746336654121      119.55136811667049      113.38812297415038
C          134.32805393220585      120.69823792759054      112.96759715883113
H          133.41101359079613      119.44915059539032      114.38818805250465
H          127.39002101522134      119.09468004273616      108.99839790713511
H          126.08071913123941      120.19357684869279      108.57591229978112
O          128.00717184448658      121.03248904590130      112.74421324243553
O          133.07734471731351      118.79931625871967      111.31815583642623
C          133.85081384048533      121.97358835587451      113.65846372839657
H          135.38465319745907      120.52717737306530      113.20835638747802
H          134.23184066462559      120.78207202674288      111.88211753994067
C          134.71736347331282      123.16833806411762      113.26554291078322
H          132.81091636099927      122.15539130714434      113.38609667151933
H          133.89827849150672      121.82140164511809      114.73854910377582
C          134.37160210533639      124.44941152157847      114.02657205989276
H          135.76335167852426      122.92006853615268      113.46012605257157
H          134.61785922375017      123.34899048906486      112.19289375738487
C          132.97067588427973      124.96438475754124      113.71167265678554
H          134.45774575735848      124.26785957465248      115.10010285248430
H          135.09926885301226      125.22022648650835      113.76256356922613
C          132.68565136740673      126.31826637769321      114.36376434028341
H          132.85442212838936      125.07076387408141      112.63084471519727
H          132.22729159601863      124.25122454567733      114.07166055085017
N          131.30184569813380      126.68224083462276      114.16520288775956
H          132.85572257260279      126.27036692518651      115.44220307724071
H          133.33384133476036      127.08750069429186      113.93322651148779
C          130.42891360387387      126.79506133804986      115.17446688094374
H          131.00998576662232      126.78640110975904      113.20153556493156
C          128.98199489719585      126.97847044680104      114.76553846573189
C          128.33731851160630      128.13964427239731      115.52421917895114
H          128.90242634347422      127.13308418374541      113.68908935883569
H          128.47382886305621      126.04664426448825      115.02517092767631
C          126.84857897127200      128.30568942646070      115.22385140380047
H          128.48144043404915      127.98169490789559      116.59339497632499
H          128.85853015250078      129.06208685666954      115.25166095695154
C          125.98070068457541      127.17805908648039      115.78946710428858
H          126.50398138729612      129.24233028813930      115.66733582367441
H          126.69429905061588      128.36139285622411      114.14433070561519
C          126.02785592416680      127.14833201381749      117.30604174954236
H          124.95194211778237      127.36414338920999      115.48419871802447
H          126.29375482813226      126.21199254458487      115.40114672063655
N          126.64618209422473      126.07127103052734      117.80372280406056
C          126.82522536159219      125.80049305692403      119.21430466545191
H          127.01791459000538      125.38288895425414      117.15709478992419
O          130.77371871128872      126.73014171341231      116.34986781697448
C          126.96119984057547      124.30258149782811      119.45530448210330
H          127.73098821367964      126.29291958068430      119.58139396062631
H          125.96651927128605      126.21611500439499      119.74629255233081
C          127.43997472441984      123.97599909626986      120.86812611401582
H          126.00951922497613      123.80425774950896      119.26245824028931
H          127.69099484502868      123.91325024460338      118.74127882818459
C          126.42057476135140      124.31398849618023      121.96550244322152
H          127.66746723950686      122.90892070973564      120.90267055208355
H          128.36787625555894      124.51890052836330      121.04538334851000
C          126.72230839860194      125.61498719069505      122.70584810973546
H          125.42509889882919      124.38457150320421      121.52398890360531
H          126.38422652790516      123.50683094067902      122.69859651454365
C          128.01010991259588      125.54357246532668      123.51904110037064
H          126.82130907645841      126.43367695724591      121.99552680124124
H          125.89097315697555      125.84344672284796      123.37642235081503
N          128.25461687288444      126.80231768177948      124.18354223912162
H          127.95322007388184      124.76487249062555      124.28458022767541
H          128.85859197879759      125.33806653520986      122.86010610573716
O          125.53790089523372      128.03091920161276      118.00174555398125
C          128.69490028138270      126.89166278337407      125.43213221782675
H          128.14235945774280      127.64337619285374      123.62179324817726
C          129.00366835472991      128.29957820266054      125.90415318867552
C          128.05652542773115      128.73905271818526      127.02100444017603
H          130.02712617532686      128.30157664194681      126.28605369010843
H          128.93644536561328      128.98678893428618      125.06222498506945
C          126.63712868251608      128.99591079749280      126.52299297394055
H          128.03172024007671      127.96338993790916      127.79099116481379
H          128.44611705588500      129.65090074931078      127.47840380389137
C          125.75272573978455      129.40705564183935      127.69525646064378
H          126.63815122997296      129.78058825810709      125.76604103504680
H          126.23833691381361      128.09465799211316      126.05317565778327
C          124.34947492869524      129.78889739207833      127.30821900015691
H          125.71407856464947      128.59042897559692      128.41994997062471
H          126.19222959749258      130.27559649479971      128.20376662002323
N          123.49359253878691      129.94663023467086      128.33537139203608
O          128.84231907455731      125.90552431866935      126.15938402947623
C          123.79909221442490      129.83431593561122      129.74140506851006
H          122.54709986163654      130.20484382165733      128.09101998215229
C          122.55635317255692      130.00583031721305      130.61202148739616
H          124.24673373191686      128.85605546977237      129.94448717144866
H          124.53812838202691      130.59840746441338      130.01442201773563
C          121.43480741942486      129.00135533307011      130.33548101911654
H          122.87287994342600      129.91089757954603      131.65275917642990
H          122.16318814048630      131.01692106920902      130.47812702949818
C          121.84395899073832      127.53885257857719      130.49562415978608
H          120.62071533239643      129.21512442529900      131.03076073991303
H          121.03671055268600      129.14268950177097      129.33049051033117
C          120.67326291121211      126.60690071662619      130.19095288248513
H          122.65577016307276      127.30390409523183      129.80496236146399
H          122.20133490700988      127.35566834095268      131.51090875913266
C          121.09290361792549      125.14557980712944      130.27930948368592
H          119.86387223166274      126.79127015465976      130.90039302689917
H          120.29497062394852      126.82547905545127      129.18975540280553
N          120.02506178409496      124.28300619197474      129.81268918448777
H          121.97040640546453      124.95822178795635      129.65161416585516
H          121.36256463570264      124.88414185570153      131.30990671936351
C          120.20397967650155      122.99515718977901      129.51004962867376
H          119.08877008196711      124.66192137025391      129.79777854807355
O          123.97265004477120      129.96827285449714      126.15511154640225
C          118.94776103644037      122.29664831374140      129.03941089825696
C          118.62524328352556      122.58068137902592      127.56736994471112
H          119.06582766541783      121.22344121430439      129.18636704780201
H          118.11423356354672      122.66475781677201      129.63660917783045
C          117.19857001393322      122.12202003272670      127.28508186638081
H          118.71536287727886      123.65055332717863      127.37314009871186
H          119.33028749776219      122.06647708026395      126.91324749983850
C          116.75986611497244      122.25956969830069      125.83181645531226
H          117.09496456417959      121.07362734760922      127.57214968190576
H          116.51956568477311      122.69889661084085      127.91415415751145
C          115.30194931463755      121.86310138244221      125.68792315549155
H          116.90679638247478      123.27009032754633      125.45308184015384
H          117.33985778582054      121.57704612092169      125.20393653517661
N          114.69260739221608      122.32404126477910      124.59207992814697
C          113.34942197296236      121.91507914160344      124.24400286888765
H          115.18734581238307      122.96330145611728      123.97132513463752
O          121.28998262225298      122.42997269475470      129.58871064826835
C          112.51550123461253      123.02449038639379      123.61607188352821
H          113.39903177597563      121.08352492504156      123.53273516559163
H          112.88032707643453      121.54811622474274      125.15951155318611
C          112.33388601755800      124.25344329519211      124.50375321376690
H          112.97961924085065      123.33602869468247      122.68027103457496
H          111.53896680159464      122.59786515182209      123.37699719362345
C          111.67227972299438      123.91870876213930      125.84067577432305
H          113.30827735521652      124.71174855280948      124.67510430573697
H          111.71534167382728      124.96638517669143      123.95613856142606
C          111.08586618353343      125.14063283873465      126.54751781241302
H          110.86497861763407      123.20370559054568      125.66664460522671
H          112.40430304092749      123.44573683726004      126.49792221389561
C          112.11429528200952      126.24970360402217      126.73061965947865
H          110.24016273502421      125.52973717812674      125.97709623668929
H          110.71106610989244      124.83788052709328      127.52816035193794
N          111.65246633079832      127.23471405517837      127.68849019817220
H          113.06225090552282      125.83408011990706      127.08668968514991
H          112.31153595179083      126.73306411851991      125.76898997692192
C          112.46069417042077      128.13130401046146      128.25296110740575
H          110.65257621516679      127.26500219184889      127.88163469114312
O          114.73890907274087      121.14411574034617      126.50922123375456
C          111.78105549861294      129.08051983722754      129.21181976505662
C          111.11468940294287      130.24015407743022      128.45977586688252
H          111.02203342809368      128.53296143609896      129.77113229909418
H          112.52539084775785      129.47837103034044      129.90317981437940
C          112.14186634199896      131.18032365412242      127.83493627648529
H          110.45304179266910      129.83584031522543      127.69031243968043
H          110.50370693348681      130.80782835147284      129.16218042911711
C          111.47828133616211      132.27935729286921      127.01191002573837
H          112.72552299699791      131.64580561866271      128.63115515735549
H          112.81965420568686      130.61571173250115      127.19428869339094
C          110.70852405515640      133.25817421878125      127.88850644842793
H          112.24453496914435      132.85263049360654      126.48299739898688
H          110.80165575643308      131.85225297496868      126.27182547467331
N          109.70682997648879      133.87726178844167      127.23396295083467
O          113.66940428371851      128.18128921540500      128.00505107649607
C          108.79773180469191      134.78969319979996      127.88986371659571
H          109.43777791155748      133.52627786316501      126.32445595510427
C          107.36562491283671      134.59853611917214      127.39711214620094
H          108.87189818456534      134.60454813591519      128.96584196214900
H          109.11347010590437      135.82505996743069      127.70384559512586
C          106.87299932426852      133.16671637107356      127.59409108134864
H          106.71592367628804      135.29538286229945      127.93060508285643
H          107.32168969114210      134.84836032871871      126.33363903590811
C          105.44412934083283      132.98437176754797      127.08607983340995
H          107.54219655589206      132.49488095281444      127.05806841362902
H          106.91870025274065      132.90850443348165      128.65376925396387
C          104.98915789729020      131.52401938567664      127.12339583730410
H          104.76760128948635      133.58200643495272      127.70154712988578
H          105.37196893039832      133.36581591427475      126.06445851494259
C          105.63349473571134      130.66128023216615      126.03427243283559
H          105.23855968535591      131.09699905321230      128.09585313598254
H          103.90442432055924      131.47281828138031      127.00276673042944
N          105.13079820866055      130.98773959241353      124.71519267522847
H          106.71685123448802      130.78834061448575      126.04424599255644
H          105.39084417467342      129.61084528820908      126.20896217739968
C          104.15550418067100      130.28713445481569      124.11644930081270
H          105.45281057751804      131.84475475120132      124.29539160310622
O          110.99468459577913      133.49333497642593      129.04745587679619
C          103.66088670935372      130.85435830938542      122.79877250439908
C          104.71226014370221      130.84125396617975      121.68207831446082
H          102.79547058739089      130.26338336350278      122.49627274108764
H          103.32261850896877      131.87987652937568      122.96459719587773
C          105.48481321818169      129.52937620781680      121.57237728624952
H          104.20614400870961      131.03140714879189      120.73403430568615
H          105.43549700935979      131.64502326403374      121.83271632847863
C          104.59796482592873      128.29457417325023      121.38602523960255
H          106.15896183509096      129.61604419919115      120.71731126056936
H          106.08359799976897      129.37935237185945      122.47045582616650
C          105.51037007557792      127.11920335974905      121.10821041971475
H          104.04977255821483      128.10294666606740      122.30686290223404
H          103.91313636955633      128.44925785627194      120.55455326041188
N          105.59200175790184      126.77767076006057      119.82054905534518
C          106.53263475129214      125.80989111165289      119.29245969983600
H          105.10558501574623      127.36649253053189      119.14715057173683
O          103.69638085603381      129.26046335305716      124.59692872355764
C          107.09158132084889      126.29996412739571      117.95980252065671
H          107.33132901869855      125.68519368110508      120.02588996479152
H          106.03697478399319      124.83946735937199      119.16275625624463
C          108.31575144204689      125.52209017304493      117.47583270024499
H          106.30646033869945      126.23056149007252      117.20396225475473
H          107.35140235654657      127.35471382859289      118.06294464774543
C          109.58786741254589      125.77238957332575      118.29063152557269
H          108.10044078357481      124.45186837073814      117.47308465684732
H          108.51346508940519      125.82537676379272      116.44474507659952
C          109.97343936213176      127.25561735696510      118.31604853120116
H          109.47423483378995      125.39414920624783      119.30629960229498
H          110.39068227075980      125.19753701978783      117.82577063258044
C          111.47422134600509      127.50704657099263      118.32544941080833
H          109.58910982292383      127.72871531033817      117.40961143197391
H          109.51614327024129      127.75044505727061      119.17253917153791
N          112.12114907616751      127.30525285738445      119.60456924172637
H          111.95106336587661      126.85790323116666      117.58492342648904
H          111.66971827237177      128.54195814426882      118.02903327142612
C          113.36973497445253      127.74974131115158      119.80208015709030
H          111.68731975212803      126.70109286206271      120.29791988127569
O          106.14340478218868      126.56061631694018      122.00232198494649
C          113.93578781926838      127.41658405694777      121.16588828606795
C          113.68085631183996      128.56299938131195      122.15192224888283
H          113.44718675702363      126.51577502809097      121.53766845910943
H          115.00749211886409      127.23432116233816      121.07945452416499
C          113.76860883372380      128.05927861533348      123.58904681915942
H          114.39442025521736      129.37133173047658      121.99256219007961
H          112.67845969728684      128.96520738941246      121.98567024405178
C          113.56440292162317      129.17378842461267      124.62277186236095
H          112.99991589214623      127.29535784689872      123.72558996608301
H          114.73697158244406      127.58347008119165      123.75468627659092
C          114.84086211083643      129.96019140742879      124.84158052845588
H          112.79489049323756      129.86387822398572      124.27082508425931
H          113.23903839406773      128.75079942089877      125.57165520015459
N          115.25843201293927      130.00385666748815      126.11301604922868
O          113.97355950811095      128.40829752401569      118.96098553169682
C          116.45131183941017      130.70650802177431      126.53244319859745
H          114.75746247468713      129.49567790053027      126.83279563163769
C          116.18597499182773      131.57675606599361      127.75959974499777
H          117.23937392458411      129.97989275596834      126.74863129812705
H          116.76842553009156      131.32433071284530      125.68893417120776
C          116.08292688728488      130.77071029674696      129.05593244384960
H          116.99371459773164      132.30570852256471      127.85199357433446
H          115.25795087137996      132.12886140463920      127.59947581460990
C          117.44290141468788      130.27974802660813      129.55450141499716
H          115.64079196451006      131.40895926640582      129.82457493102208
H          115.41450063825896      129.92342567453679      128.90334789665667
C          117.36984477859009      129.65231747476517      130.94573671030844
H          117.86005754453559      129.54321998935876      128.86617384704894
H          118.12990669968129      131.13014346767127      129.59326954935531
C          116.58954006711825      128.33314675039566      130.95559378239705
H          118.38615219482394      129.45885884337002      131.30138264525982
H          116.90301282773996      130.35510641438756      131.64262016730152
N          116.56103050829884      127.64712213592617      132.23697854037920
H          115.55367027087181      128.52288186681156      130.66875529414935
H          117.02659212036174      127.64851740314673      130.22452018591480
H          116.16742140156124      128.25636627941162      132.94739288916554
H          117.50478204920172      127.41371302683272      132.52926072078250
O          115.45080989358974      130.49541665807655      123.92258810164076
C          105.03043557219948      127.85954738513742      111.52687184408967
C          103.86564300556464      128.65530116522586      112.03929745319762
C          104.70431615434303      126.60659788791475      110.70834973132459
C          104.23411236727905      126.92159867629654      109.28949300981566
H          105.61894021027412      126.01445393323948      110.64781494467546
H          103.95680470400021      126.00052386154447      111.22458541443086
C          104.28285749880342      125.68266663521105      108.38887482872072
H          103.21272142612099      127.30030570560078      109.32542268946750
H          104.86931758360799      127.70309104816133      108.86864799362667
C          103.70245391632353      125.99286726552083      107.02514785463050
H          105.31998635992173      125.37018737844276      108.25497354576036
H          103.73419403804095      124.85994656287828      108.84651487837269
N          102.55390197179942      125.37144623169890      106.74703473731938
O          102.86658518933140      128.82105856251064      111.18755870068327
O          103.84440954449040      129.15161129126773      113.14831188112831
H          102.21823267815320      129.47810545406784      111.54429133207256
H          105.64699846447593      127.59806994132975      112.38902238061615
H          105.60359820861309      128.54284246901088      110.88521708914854
C          101.81175809479411      125.56042310242330      105.52226498623563
H          102.09227964760970      124.81087432599996      107.45419409582864
C          100.41055764172054      126.09257302839275      105.81719010284449
H          102.37756060712370      126.25438980468871      104.89562601178440
H          101.72926861151353      124.60273327730373      104.99897074365725
C           99.51913738375931      126.04986678079420      104.58034805432118
H           99.98167520364116      125.48233363125904      106.61302159571972
H          100.49405561730849      127.12140228467382      106.17379901244526
C           98.15982647602007      126.71763574506190      104.79701762834041
H          100.02459795076169      126.56683428227015      103.76037522087336
H           99.37851581679612      125.01280987350771      104.27472425445448
C           97.30788456733293      126.10213878183004      105.90727587746558
H           98.31758837043598      127.77418968273746      105.02933901673541
H           97.59933346345558      126.67150833152382      103.85996507021834
C           96.94614793738589      124.64117228407588      105.64102985294012
H           97.81156019683500      126.15808508384089      106.87302527194302
H           96.38419307906975      126.68205808030019      105.99109036078679
N           96.13020270102210      124.12442384916346      106.71811519125256
H           96.38979985648649      124.55405049979558      104.70043718747191
H           97.84327782964851      124.03057737697269      105.57338982090936