3795
 energy: -5103.041768554228 gnorm: 0.000886787177 xtb: 6.6.1 (8d0f1dd)
C          108.03535570440123      120.07793326950605      126.77678183756089
C          108.69732710014522      120.40876213836678      128.09157565074193
C          108.05249451004596      118.57375161234027      126.47597080181767
C          106.84988164261628      117.82579719063366      127.04203157418748
H          108.10078760727525      118.43100665803274      125.39589636031907
H          108.95946675059382      118.14035482038118      126.89568546656346
C          106.87593405180777      116.35267315499402      126.63416517694002
H          106.85593065191532      117.89111313153971      128.13001687306456
H          105.92911961691914      118.29572329477649      126.68806909852914
C          105.87644368523513      115.51087648466773      127.40438857943917
H          106.72115348900252      116.23473845556424      125.56061063441608
H          107.86285564918214      115.93984537413785      126.86443776529323
N          105.53291292100211      114.35829799090114      126.80085790254854
O          108.33645061110299      119.63322332637381      129.09023262199693
O          109.51813992185883      121.29698967316284      128.20961424098132
H          108.81029099994213      119.85822051922759      129.93156745933697
H          108.57430870556060      120.62440805757849      126.00139148698588
H          107.00596022696398      120.44398132467205      126.79364770157053
C          104.73866630760027      113.34563993517641      127.46192463440164
H          105.77604650446962      114.20128201569159      125.82924647321614
C          105.37861485335470      111.96545275418504      127.33551685412731
H          104.65969049756238      113.64013541705846      128.51129401522144
H          103.72691488073603      113.31077214130505      127.03859769828070
C          104.52072343026825      110.89309149800781      128.00676719660137
H          105.50424586141595      111.73914971765777      126.27536714342186
H          106.36807856052832      111.98251485778063      127.79612576607306
C          105.08699844300217      109.48285073046149      127.82642525499236
H          104.45478871054803      111.11638705119589      129.07307657650063
H          103.50749999833664      110.92990727411140      127.60098314638901
C          104.90303505340250      108.95505715554683      126.40498519466763
H          106.15095433561835      109.49536100151649      128.07279929480555
H          104.59551055991425      108.80430576431289      128.52524625015195
C          105.71083779882524      107.68892329997411      126.14549818771297
H          103.84612721132285      108.75901399382026      126.21551520175923
H          105.23612927443884      109.71406219666521      125.69530670174052
N          105.78952620771499      107.42146925086054      124.72640557976449
H          106.72794335194797      107.81834002170375      126.54252155948575
H          105.27184478887884      106.81988722687846      126.64184535887473
C          105.99574782789468      106.20984477834352      124.19271631314534
H          105.72631776962895      108.21140724654185      124.09194625806218
O          105.44882565850381      115.82359078497237      128.50629760522548
C          106.34076796011971      106.27143903809582      122.71928951252366
C          107.82249353589341      106.64894111264201      122.62479721117762
H          106.17516536624790      105.30112747273783      122.25403385258960
H          105.73247541796735      107.02636691080657      122.22246258847409
C          108.27025804609498      106.88938985711768      121.18947250851009
H          108.00326395919815      107.55514905132566      123.20812512474215
H          108.41700832323518      105.84681654030764      123.06613179947320
C          109.76726104499939      107.19447898736983      121.12868106333175
H          108.04876881797524      106.01353242707002      120.57649862740678
H          107.72142570894765      107.73344542375904      120.77007789669548
C          110.15347773701166      107.68807731115432      119.75412819168930
H          110.00827758624374      107.98777592558034      121.84159764779844
H          110.35264471958364      106.31600063907825      121.39403694033525
N          111.15776225874200      107.03641034477317      119.15880406623347
C          111.67098989157083      107.43276241683269      117.86282845733446
H          111.64999149183159      106.30079742148004      119.64338802673700
O          105.97487265185178      105.17187820405370      124.83916494177780
C          112.37932746739429      106.26134136229264      117.19796394956977
H          110.82095649355524      107.77424999571346      117.26853348518125
H          112.36505117024775      108.27501178868509      117.97441219373260
C          112.67215086733390      106.52844812221680      115.72231881117092
H          113.30966919797413      106.06038788021404      117.73421177646841
H          111.74406735310349      105.37798662826788      117.28642395715315
C          111.40397801078244      106.42407003697677      114.87793538462718
H          113.11235142358268      107.52162506450348      115.62387177242876
H          113.39920640632981      105.80143635724272      115.35384635995949
C          111.65789707653187      106.63187495257607      113.38757855987177
H          110.98058471077259      105.42514972072036      115.01094843312352
H          110.65978848555375      107.14309872299616      115.21836691295704
C          112.05082345589732      108.06018099739028      113.03381742720374
N          111.03734092339933      109.02406665729166      113.41375949495718
H          112.98542034704536      108.33586574418619      113.53368644392988
H          112.22647332440117      108.13690928219522      111.95299485589828
C          111.29637502153466      110.33650386341063      113.40876207544279
H          110.16037164084698      108.68951266744425      113.78918274560114
O          109.57176027941765      108.62112255618318      119.21468212612345
C          110.15104781991900      111.21977740672371      113.84841360638100
C          110.45248332816860      111.84438506751690      115.21158284964579
H          110.03008584969940      112.01564815769883      113.11271102499289
H          109.23338664321554      110.63765679818697      113.89049051446686
C          110.71149611593765      110.77954792557306      116.27325004782340
H          111.32933051533537      112.48622574350854      115.12398864053941
H          109.61288130991100      112.47240500696766      115.51150261048595
C          110.94568026786952      111.39571718999902      117.65678350048101
H          109.87030998413479      110.08470944308124      116.31513141292882
H          111.60072118594078      110.20964800804917      115.99665048177943
C          109.70017589146201      112.10346716139470      118.13911158367983
H          111.20026073719052      110.60521749301532      118.36157236838417
H          111.76778863423830      112.11046953440810      117.60794774638693
N          108.80624875668987      111.29817090573283      118.71481511483886
C          107.53593687067180      111.75800227404518      119.22616504650216
H          109.03241644387462      110.31829434514071      118.84365042089233
H          112.45725695799305      105.96420966012393      113.06039365206985
H          110.75188999115920      106.36545699607444      112.84052906208254
O          112.39105704952566      110.78415372521928      113.07949013226919
O          109.51496955391370      113.31110148549251      117.99719551321384
C          106.68820982038098      110.58881835473457      119.70131769621297
H          107.70919650430253      112.44784253889860      120.06366218257419
H          107.01026532813310      112.31627352297123      118.44230386664381
C          106.27840548976673      109.65423146565450      118.56577728009302
H          107.25500568744253      110.01750086165107      120.43805607070139
H          105.80070294136836      110.98888892858773      120.19433503682552
C          105.21886623367475      108.64959457846263      119.01435194251185
H          105.88681055625391      110.24393685572042      117.73619010302289
H          107.16050420075140      109.12092125233661      118.21161546750528
C          103.82973873709165      109.27713712641960      119.11152559705762
H          105.16704520552938      107.82231366772672      118.30695781371996
H          105.50233749186515      108.23760446359489      119.98445421184506
C          102.79565594494186      108.26854463955709      119.58278999836162
H          103.83531847125515      110.12796993749760      119.79688181121195
H          103.53119828993171      109.64494555493175      118.12828210118703
N          102.95187205397305      107.97111901448666      120.99627525382972
H          101.78405822078926      108.65533657627041      119.42132717095798
H          102.88787501920551      107.34185311214311      119.00812850837212
C          102.17946761507064      107.05329362259367      121.59564534792449
H          103.68760246770783      108.43879826544672      121.51288148119261
C          102.45671209752936      106.84600791892964      123.07283576074607
C          101.20448361565695      106.33954173955431      123.78551400969752
H          103.25184077845890      106.10173120464090      123.15323124210077
H          102.82020892091009      107.77466331173795      123.51706673390393
C          101.39117659815459      106.10958933565067      125.28369178691523
H          100.39687810414593      107.06217434697997      123.64126125512246
H          100.89505784471235      105.40549492021458      123.31661101587336
C          102.55414174438589      105.17300247932718      125.61736703814566
H          101.55104662740483      107.06551848736974      125.79035760191255
H          100.46946546399649      105.67287346438839      125.67020493487121
C          102.48043938646218      103.86913313425647      124.83171290818557
H          103.50952068124126      105.66015541395754      125.43188674062814
H          102.50758702884617      104.91598814187435      126.67879175264930
N          103.67089530983922      103.45777620551786      124.35511451931704
C          103.83422214148507      102.21675324343373      123.63567328553452
H          104.52173321302745      103.95220027760475      124.60160520843309
O          101.31044609189205      106.44299637909633      120.98804782913453
C          104.82208324394432      102.37107437669481      122.48109350899077
H          104.20215563926499      101.43851405849755      124.31833407686341
H          102.84543986898709      101.91996888189310      123.28023978324620
C          104.31596413566379      103.25334217991603      121.33773982134419
H          105.74697237045804      102.79404266469830      122.88272669406390
H          105.05259201197840      101.37810048647280      122.08903348743740
C          103.07476567495657      102.67954727968632      120.64410745155351
H          104.09070354321540      104.24965426527991      121.71893536728984
H          105.12370075736189      103.34894220491286      120.60722428480956
C          103.06540529430229      102.91308659156610      119.13451838093984
H          103.04037130408092      101.60060056393803      120.81085742952882
H          102.17394221550437      103.11156408975725      121.08044966170404
C          102.96185526210570      104.38291714751192      118.72851501358569
H          103.97004926932715      102.48531702102186      118.69422614688625
H          102.21294764002971      102.38368208502823      118.70251594189283
N          102.86196129973857      104.46890119963835      117.28615843324499
H          102.07901422088037      104.83694467042056      119.19204019232454
H          103.84597145540549      104.94474773057493      119.03929428166897
O          101.44251197656027      103.26120692124603      124.64899095469545
C          103.63477161672706      105.22085880630877      116.50434479755266
H          102.27542151786605      103.76406196279247      116.85181723301464
C          103.42992832245451      104.99258567663121      115.01463838889049
C          102.83414782542768      106.23268175174893      114.33986801946608
H          104.39904720214167      104.76243955114468      114.56724898718838
H          102.77671964856384      104.13333541043203      114.86889009227319
C          102.41046916142879      105.95155027018448      112.89689920676140
H          101.96299168822789      106.56722435264203      114.90720199410147
H          103.57333729885283      107.03522344350854      114.36131562844919
C          102.03023513905227      107.23820967269550      112.15235088191858
H          103.21972687120514      105.45111860807540      112.36036196535547
H          101.55313124096043      105.27452648697191      112.90378579299603
C          101.41632650246814      106.91469483642460      110.80155748766387
H          101.31424484180785      107.80708186374420      112.74468388802140
H          102.92337564009991      107.84425512245618      111.99249065900712
N          100.09334191659944      106.75282716216343      110.81968768336684
O          104.43297224123701      106.04934536190524      116.94046094171624
C           99.31127458447706      106.47892996122971      109.63117681609542
H           99.57261401112034      106.93291023630708      111.68006024627226
C           97.82006613591902      106.61313456476223      109.91510432338727
H           99.61449156613855      107.17364147659529      108.83928305149283
H           99.52643935693168      105.46282301573247      109.27863059758009
C           97.39194048669656      108.05916752048584      110.15968972632434
H           97.27180949030569      106.21563311419881      109.05794977929574
H           97.57147011412241      106.00317013891610      110.78460071105958
C           95.88136497232755      108.18692680676574      110.37213594626358
H           97.91878525135235      108.45270657034619      111.02751375668684
H           97.68078538226250      108.65282802948715      109.28943007939978
C           95.42110907415230      107.81135791104275      111.78299880844425
H           95.57460318531720      109.21780339632033      110.18658403519910
H           95.36951376841688      107.55400759315889      109.64346612686398
C           95.69553132335024      108.94538761506787      112.76426311698326
H           94.34498432739032      107.61822953516659      111.76293323977210
H           95.92167137696008      106.90290798549665      112.12016580715039
N           95.09043608495990      108.69758652203616      114.05743255749130
H           96.76864014443204      109.05250991312529      112.93476944167139
H           95.30502701467508      109.88013449819975      112.34305987794075
C           95.58277880887347      109.19390176596326      115.20416401970574
H           94.18563769517598      108.25394517910891      114.06417403833487
O          102.09447291801722      106.78230307197711      109.78484297259457
C           94.78229267019287      108.85082652188640      116.44537056426238
C           94.86073436958300      107.36183115530368      116.79609049403705
H           95.17536300474072      109.44639751978332      117.26732265420424
H           93.73888631227787      109.13838961927154      116.30547029008088
C           96.28708342194778      106.88964737555102      117.07791897857965
H           94.23095121872585      107.17648213399836      117.66874175357431
H           94.45677808763301      106.77356072219418      115.96825768171126
C           96.86435746209210      107.46135822030095      118.37200636973650
H           96.29757198970884      105.79970602014640      117.14987970982574
H           96.92700478950839      107.17727700464511      116.24416785814608
C           98.18747716064344      106.80356975826679      118.73456298551704
H           97.03366922626860      108.53367897185528      118.25732688183784
H           96.15463856996956      107.30455595559806      119.18694065269474
N           98.69110506815686      107.05018271677991      119.94967710335014
C           98.29127254338040      108.07329472202483      120.88690365331625
H           99.59645288003883      106.62573108375098      120.15827394332746
O           96.60721558591948      109.85789777265494      115.24772047860836
C           99.25967308557092      109.26040347434078      120.80281203561948
H           97.27631523530303      108.40626786273403      120.66791034981442
H           98.30274378632613      107.64640277960019      121.89301172967681
C           98.71075525078197      110.56055754581614      121.38295194958199
H          100.19011837679420      108.99462715893188      121.30558909277015
H           99.49185556905574      109.42473928873717      119.74842705319315
C           99.66391147969654      111.71376078161317      121.07507669741616
H           97.73538574829119      110.77468840747196      120.94131423337723
H           98.57123362736186      110.46701336600029      122.46136405933747
C           99.14848022530526      113.06002492320032      121.57628086212262
H          100.63474046958791      111.50700472510221      121.52961865130588
H           99.81578046933613      111.76692308988622      119.99595417432097
C          100.13229518376914      114.16953856028975      121.22800164534192
H           98.18454696861896      113.28295141711043      121.11375263948879
H           99.00270287950288      113.01041751298787      122.65501117406933
N           99.67972292991288      115.46657155308105      121.67982981652368
H          101.10893888630743      113.98388256654766      121.68786731296468
H          100.28577331289121      114.18507131648437      120.14239372988106
C          100.51043686063839      116.50754506481717      121.81075172620982
H           98.68260557081148      115.62446280767865      121.77391975573605
O           98.77284160132042      106.05948970172045      117.95230334554027
C           99.84284701353677      117.80055164998630      122.21612569061547
C          100.81130695241401      118.68980158176439      122.99253307678339
H           99.53765451497992      118.28421789333970      121.28560015042790
H           98.94745553780463      117.58038688691188      122.79679332863113
C          100.16016095248126      119.93112417187457      123.59661853574859
H          101.24896171192989      118.10015381603328      123.80210701852495
H          101.62090344081078      118.98510419975732      122.32194876702077
C           99.59355162498024      120.87607228212826      122.53822930243054
H           99.35530052388289      119.63107649743692      124.27219669669175
H          100.89875805964326      120.47237367280952      124.19317987297137
C          100.66438540659752      121.40023234338322      121.59807910736544
H           98.81719431287615      120.37543738274771      121.96438552117840
H           99.15282447960128      121.73987252505344      123.04173469269949
N          100.45134586756826      121.12547607638683      120.31063565708028
O          101.72133129741754      116.41800626592729      121.62374272947075
C          101.27176928354719      121.60046830910845      119.22058817989503
H           99.74423509761601      120.45290194944268      120.03390324092769
C          102.07611348894126      120.45491056488189      118.60593796257602
H          100.59727857134182      122.03250547247026      118.47453346598846
H          101.93131938746610      122.37898840185291      119.61199095495057
C          103.33679770205887      120.12944922835415      119.40250628108983
H          101.43257069027915      119.57557255585198      118.57486626719758
H          102.33957342294723      120.70595827999264      117.57860397570417
C          103.90936963410402      118.76319364908599      119.03209069704593
H          104.08467391973439      120.90932050887085      119.24766823940053
H          103.09078341748756      120.12582797450419      120.46541758300235
C          104.15270911113680      118.56854867970841      117.53450647492727
H          104.84732656647853      118.60423843288922      119.56349496861192
H          103.21061107026019      117.99285758507179      119.36256522144494
C          105.15333725016177      119.55007169769472      116.93590248566539
H          104.53434279916522      117.55765946519990      117.38590114975686
H          103.21382261840409      118.65512356683421      116.98603758196893
N          106.45710624821676      119.38920254399528      117.54150444884341
H          105.22791430844410      119.37830815439040      115.85272790869993
H          104.83406225608121      120.58451364399447      117.08302022150252
C          107.35246923472070      120.37337129064127      117.60791974462342
H          106.61215717833167      118.51248755915742      118.03632696407625
O          101.61674219986524      122.06677843423749      121.99871677197325
C          108.63116660838809      120.04110056629672      118.34394946229786
C          109.86692042134173      120.28887595648072      117.47685763784411
H          108.67242294519481      120.71331407108053      119.20382065442516
H          108.60135063161607      119.01382061367102      118.70290761007330
C          110.01406751397371      119.31648213505986      116.30661557161919
H          109.80795485737976      121.30366757556907      117.08152729505561
H          110.76044820607463      120.22957958668462      118.10299170798162
C          110.47249888572998      117.92126128868617      116.73895141627025
H          109.07540105371815      119.24003326922541      115.75648544591427
H          110.75990598291780      119.73065391005147      115.62534542585624
C          111.02832559707288      117.11187597047727      115.57474769780382
H          111.23907240566174      118.00099352730457      117.51087063443292
H          109.63172469898234      117.36087293808713      117.15324154029270
N          112.16195132141311      116.46828157355151      115.85455326311110
C          112.80653437188610      115.51352630254361      114.97608887364471
H          112.62845840188908      116.60112642920065      116.75104608117987
O          107.14978964839095      121.48083102301872      117.10597170180331
C          113.48014304901331      114.45400560443484      115.84033485291681
H          112.04215376896050      115.07725098021598      114.32736797560506
H          113.55645372667784      116.01332214338461      114.35054073305827
C          114.20053645550053      113.37019134145653      115.04187001988078
H          114.20075073043672      114.96248350432975      116.48404949145161
H          112.72914502712523      113.99723721593726      116.48822105587459
C          115.10747593025047      112.56553378992085      115.97105219103946
H          113.48274616746851      112.70222252186933      114.56255074029845
H          114.79871834540371      113.83663041966500      114.25528239997196
C          115.67041534193632      111.30081498752872      115.32186713495018
H          115.93560431256557      113.20392940127458      116.28065306575084
H          114.54249484123079      112.30258293203779      116.86647438790742
C          116.91289777852610      110.80167809609578      116.05315902936519
H          114.90608648065997      110.52334940122877      115.30020741506310
H          115.94772906934935      111.51571841423132      114.28804011827160
N          116.63353955955058      110.52004831502228      117.44765238359702
H          117.29735746253917      109.88220973353535      115.59817203072053
H          117.70263750732298      111.55848691265264      115.97747050155513
C          117.43781813347947      109.76522757677846      118.20236718619971
H          115.82031787724893      110.95439200711395      117.86931862577546
O          110.47816403231107      117.05827671887555      114.47705283265475
C          116.90204737653677      109.46197241362934      119.59003522291597
C          115.49284998501984      108.86933329265293      119.55931145448518
H          117.59463030714619      108.78070108479064      120.08746978065336
H          116.87219042354121      110.39276638653206      120.15634563650640
C          114.90556362944731      108.73761825149893      120.96251319373378
H          114.83484022905262      109.51713644697382      118.98116371410700
H          115.52075571297752      107.88983457629608      119.07603927632945
C          113.52584390944740      108.07379873441546      120.89202720329921
H          115.57395604913471      108.15233121397107      121.59348952835055
H          114.80960070654547      109.72552561219624      121.41445606080042
C          112.98441152102833      107.78745076331292      122.27132929762075
H          112.83668046890568      108.74621393406213      120.38138838538241
H          113.60679016456488      107.14048706816358      120.33594138144967
N          113.36854949734369      106.61592818913996      122.78221042202520
O          118.52738583890482      109.35638864429436      117.80949369074537
C          113.02237305752588      106.15181326346566      124.10751462849203
H          113.77275701926358      105.93287627808577      122.14885320677702
C          112.64062791997820      104.67315062714994      124.10929492040637
H          113.87879817355312      106.31250195289014      124.77478705168244
H          112.18904054717839      106.75982702185874      124.47119438115857
C          111.34197422172059      104.41094663889248      123.34881608998839
H          113.45082624398056      104.09150385076271      123.66299218866976
H          112.52903026673435      104.35042169462935      125.14630369802924
C          110.88874766900234      102.95408324832984      123.45134342437359
H          110.56140100400808      105.05637279925811      123.75809823457193
H          111.49754082406059      104.67489549521851      122.30194994981370
C          109.42156575479559      102.74315442533128      123.06418453151990
H          111.53457947887183      102.32635325271534      122.83144968824612
H          111.01201946305945      102.61686316372472      124.48374152301659
C          109.07384226276280      103.11806451787970      121.61413990012331
H          109.16775431920276      101.69094669205731      123.22244761914057
H          108.78938119820107      103.33443758607591      123.73015499406928
N          109.72385517184151      102.33868042597587      120.57705841768563
H          107.99459649653525      103.00026674523035      121.47732179940535
H          109.32303283684038      104.16400415336261      121.43323964755447
H          110.72800089725780      102.46933608344096      120.62077819940272
H          109.53487451131315      101.35066129948292      120.71096158499502
O          112.26482247607770      108.58687871615119      122.86949088148491
C          125.60329733678448      116.53858298921500      127.24704738785022
C          125.71017488483727      118.01601601386935      126.95441620475718
C          126.32401591717402      115.74753752573372      126.14949083586464
C          127.84080849731498      115.83776980176583      126.28606393648143
H          126.01138187917822      114.70434130363357      126.18874539161195
H          126.02682593319379      116.14950289345498      125.17817981651388
C          128.52676294623288      115.38943317060209      125.00045270000975
H          128.13682470835695      116.86631413444670      126.50713063297181
H          128.17349451583129      115.20536581920020      127.11019290345267
C          128.30220480082804      113.91836215852550      124.70559661065660
H          128.18321369635191      115.98323547109742      124.15260393920116
H          129.60801368211054      115.52367465922865      125.10074918011995
N          128.18562209036273      113.63398479421730      123.40787016073067
O          126.42244988110858      118.66766115908628      127.84411688941421
O          125.20201739653912      118.54122540410197      125.98315592024282
H          126.56923201768660      119.63635854985183      127.61193373813123
H          124.55269535597469      116.25417200857569      127.24809440899851
H          126.04058885137977      116.33207718612191      128.22274944410159
C          128.34711013112494      112.31132412208908      122.84668386345923
H          128.17526965364874      114.40252494635004      122.74201957296523
C          129.65254564985688      112.27118316395620      122.04829825341940
H          128.37496444095655      111.59325074246516      123.66682623097451
H          127.50011113942891      112.07682881911394      122.19606666613343
C          129.89769024716017      110.93499994331982      121.35484001757702
H          129.61182701651504      113.06451113882832      121.29767480880132
H          130.48459948355699      112.49282869372492      122.72074486240371
C          130.24601369564073      109.80375131569301      122.32069003495160
H          129.01345659982363      110.67213094264315      120.77400354159394
H          130.72985324850461      111.05682853942825      120.66000624387254
C          130.61580107797545      108.51864757251818      121.57923968913259
H          131.09374012813916      110.11790150297421      122.93335104668482
H          129.40844266119052      109.60453529642145      122.99004179957986
C          129.38827273072195      107.78653560891179      121.03412724126871
H          131.27549549355192      108.76082427734123      120.74278415577854
H          131.15928901753074      107.84753081301257      122.24642836711014
N          129.77882051347291      106.78337375965667      120.07370414776314
H          128.85771104834069      107.27321018018370      121.83949744377136
H          128.70476242395193      108.50000020507242      120.56718173043458