3795
 energy: -5103.655132276528 gnorm: 0.000913376946 xtb: 6.6.1 (8d0f1dd)
C          100.36474867048584      116.53433015878507      100.47717148534366
C          100.41441415631373      115.04134763264136      100.30716646265080
C          100.21529893662643      117.28204409897698       99.14759642424499
C          101.56514775068865      117.61302704220891       98.51338114357226
H           99.62149930846752      116.67576110127229       98.46178370303083
H           99.66146964955179      118.20638775132782       99.32128016796791
C          102.42312178828625      116.37276625047409       98.24469009922295
H          101.38976113337155      118.13366819763276       97.56897049462968
H          102.12721667007990      118.27991452585260       99.16945803395447
C          103.61717375362129      116.78083250998833       97.40398683088318
H          102.75970363492766      115.93980829125680       99.18570155771366
H          101.84265319961366      115.63626010824869       97.68639957551878
N          104.64595506306617      117.28938811982594       98.09035393577925
O           99.42295441322298      114.54861166423822       99.60424970681632
O          101.27861892442847      114.33166302680935      100.79274642748754
H           99.38691181481586      113.52981601217859       99.65954410087029
H          101.25640182860396      116.86160618357620      101.01143907684451
H           99.49297110961245      116.73149644128883      101.10534675080119
C          105.82918832552215      117.78782062090653       97.41511289178875
H          104.61743311150029      117.31243229542729       99.10332791228620
C          106.58629234867925      118.81405427453873       98.24684806885881
H          106.49396263280012      116.94563096743079       97.18302288956629
H          105.49878536818680      118.21541431655167       96.46343728683220
C          105.77370553308377      120.06878133663157       98.55688545122807
H          106.88678589690960      118.34364375982398       99.18004579520087
H          107.48436140275578      119.09386690382135       97.69369603068871
C          106.62211201935760      121.15636352634856       99.22127671460626
H          105.35324856507489      120.46451195237557       97.63029725377491
H          104.94190413658420      119.80330224575543       99.21186966392328
C          107.22544337059479      120.69936366158106      100.54822936131697
H          107.42260482116112      121.45571989674913       98.54288025510618
H          105.99177698475717      122.03025885830921       99.39772321699567
C          107.90367485377458      121.84190327699410      101.30524520354783
H          106.43504100950692      120.27521009304476      101.17154909755968
H          107.97110177918495      119.92339673442024      100.37560032999981
N          108.46131990126973      121.35608985287152      102.54916830839701
H          108.70169649832314      122.27272390121132      100.69347022507590
H          107.18554225477227      122.62763388632447      101.55096652548137
C          108.07685605639961      121.77633159918585      103.75175386578614
H          109.09925280610481      120.56958473882980      102.47052881151622
O          103.61869093887857      116.68326394186927       96.17806460586172
C          108.62974223254604      120.97747426752349      104.91165651223081
C          107.84254535093076      119.66927073833891      105.05515586454624
H          109.67897583819696      120.74341607908570      104.72923725491566
H          108.53882053256798      121.57608347529148      105.81816559488182
C          108.38884632609731      118.76130420955701      106.15558466633921
H          106.79178636548934      119.89047125880252      105.25514505159371
H          107.89627843519965      119.13712131698544      104.10443931761658
C          108.14416856274428      119.29909475067529      107.56119462838701
H          107.91335734638949      117.78079310490058      106.07346365429994
H          109.46106617166436      118.62250277763957      106.00796789165389
C          108.63334617563480      118.34286041657212      108.63977421135178
H          108.66250995991761      120.24717098654757      107.70409606693083
H          107.07883786509932      119.48160864677098      107.71574240552364
N          108.28543841342555      118.70958901672832      109.87413957389316
C          108.65250273919266      117.97204747405917      111.06718080268119
H          107.79617793283495      119.59205341359109      110.00226796660559
O          107.31354278017606      122.73287022383778      103.92408426991842
C          108.47890961287331      118.81019672088563      112.32940453779085
H          108.03908300130422      117.06531842204613      111.13167687799378
H          109.69700905415672      117.66387402556177      110.96737958171212
C          107.01406860965808      119.09659735265069      112.66008355608243
H          108.93422735819924      118.27231150884427      113.16309564025957
H          109.02189718133353      119.74816117415395      112.20950273359158
C          106.84793322790588      119.88918651429260      113.95883482437054
H          106.55938121495090      119.65574167268684      111.84115196549892
H          106.48252800843289      118.14828260171653      112.75789842011307
C          107.25608011430211      121.35226007375273      113.80136037901960
H          105.80249640382755      119.84597683669865      114.27280924590607
H          107.44951983481067      119.42677206619337      114.74310615942787
C          107.09038328801267      122.16143758247037      115.08423260712486
N          108.01987281320291      121.69340679905956      116.08637631674598
H          107.27789049706161      123.22209975713183      114.87422433741894
H          106.07872128016564      122.06335737938466      115.48832472068783
C          107.70535626555358      121.48830294089562      117.36209970429813
H          108.93551309711250      121.41090898649131      115.73914516667685
O          109.29023425128618      117.33389519830826      108.39083418145930
C          108.76876117631211      120.75894067072910      118.15885209450785
C          108.34732639804537      119.28712238940111      118.22001257412130
H          109.73597584864427      120.85328651134915      117.66697571016790
H          108.82654406854597      121.17125955101662      119.16668686682968
C          109.40840298325179      118.37389821805965      118.82231809736486
H          107.43008869757084      119.21308026641444      118.80460580687520
H          108.13292760993396      118.94265427971942      117.20568110246280
C          108.88577613096209      116.93658321373243      118.90285517010527
H          110.30539093367243      118.40525406986271      118.19966069844214
H          109.67476247937437      118.71716439847656      119.82223512745723
C          109.99931744371952      115.97251927944785      119.26048787239080
H          108.11043075160866      116.87654485583823      119.66649957687234
H          108.45954598906194      116.64268513092033      117.94240925036127
N          110.35763167625871      116.00565523546072      120.54175431498966
C          111.39677264887142      115.18384067425960      121.12207082328749
H          109.91340524954857      116.65891094574108      121.17496411680530
H          108.30227324396664      121.40868791068191      113.49952192960416
H          106.65279963865545      121.80934689538175      113.01991298352387
O          106.62100212058651      121.80757452967364      117.85294707528617
O          110.52421111956458      115.23697046469350      118.42231891368817
C          111.17230411481324      115.03161074482311      122.62063674037606
H          111.38249803658709      114.20093653400831      120.64391998382480
H          112.37189530639047      115.64582790742220      120.92564866699790
C          112.16052300089612      114.05002116566118      123.24663364968268
H          111.24878329176016      116.01139963645701      123.09500888371868
H          110.15589956177895      114.66362912189700      122.77542741063998
C          113.59445377113094      114.57814749723522      123.29677027744430
H          111.82461280966000      113.81447682995183      124.25731115389853
H          112.14158901448863      113.13432499866597      122.65598576828594
C          114.59705929630388      113.48474709391486      123.66271424389024
H          113.87047439471986      114.97058859809486      122.31840134426201
H          113.66171401676003      115.39785428373290      124.01584455100112
C          114.38321464050094      112.95355774693478      125.07680286334143
H          114.49144027400416      112.66534760478089      122.94979913033735
H          115.61426335067378      113.87290793516053      123.57469600112923
N          115.49348812651500      112.12474198469917      125.49802787213041
H          114.31822821889848      113.77880193065904      125.79045642142535
H          113.45456916786225      112.37765091043229      125.13026029738896
C          116.01538366871421      112.17218384658894      126.72681195289802
H          115.92149649116323      111.53925601853503      124.79773037261549
C          117.21260893203305      111.26919092448671      126.94792024432844
C          116.78442623554231      109.80500626695989      127.09474345243883
H          117.90070629229966      111.37421025176592      126.10732989638960
H          117.71932581735661      111.58689347891506      127.86016411736017
C          115.90374846473118      109.58849479997599      128.32482099472136
H          116.24293817563600      109.48554448641396      126.20199732124591
H          117.67625523472506      109.18038932064955      127.17495440105306
C          115.44011564547723      108.13368147236031      128.44017508614220
H          116.46431579438688      109.85327015066829      129.22327280642298
H          115.03244993730324      110.24375138364152      128.27358005882584
C          114.67142747125601      107.70518213006562      127.20107113431980
H          116.30038350878007      107.47174042414230      128.55027666920466
H          114.79469650627411      108.02331429544566      129.31254982660224
N          113.53212514907270      108.37581786678386      127.01310266759560
C          112.68947474969636      108.23625069076657      125.84984819055533
H          113.21243823264003      109.04578687013874      127.70330936522113
O          115.55489849469683      112.88844381596407      127.61037869190366
C          112.45722448573066      109.60166251774190      125.20864444185534
H          113.20174313094036      107.55987554157491      125.16138824662852
H          111.73280708764396      107.79790018763208      126.14851571527431
C          111.42818532417063      109.58248106542803      124.07938353132874
H          112.12757605741926      110.28806818050909      125.99163216321848
H          113.41284822994994      109.96519287284309      124.82615641537735
C          109.99156515071427      109.41697184696754      124.57733197017953
H          111.50641245805130      110.52778880134268      123.54229320928930
H          111.66522610598390      108.78453791985267      123.37372756396135
C          108.95402659379653      109.75904850033793      123.50805496539137
H          109.82827520635057      108.38809725122472      124.89992953498904
H          109.83477370815093      110.06736213626674      125.44065094104039
C          108.96105189512004      111.24155777127395      123.15884789628358
H          109.15531733666541      109.17576304206341      122.60817223033264
H          107.95919953412808      109.48688889266019      123.86703702554703
N          107.92992566381801      111.55977719240086      122.19477926183848
H          108.78319138718727      111.84804315591460      124.05176565236742
H          109.92938846363610      111.53963650739276      122.74052546532899
O          115.07729101025639      106.83101935172469      126.43838223991355
C          107.50486832998438      112.80738981597459      122.00522712145015
H          107.66358475610755      110.83436595664884      121.53314488687718
C          106.60145623610306      112.99337344099899      120.80943128827195
C          107.47832853411109      113.04010037951538      119.55298062201247
H          105.89092777402334      112.17148324672974      120.74056370046117
H          106.06131911589705      113.93337642768418      120.91697296370926
C          106.74211928621440      113.67268881605034      118.37988560339427
H          108.37908321065491      113.62320790907948      119.76181967613817
H          107.78984042596380      112.02523310803339      119.30126032477651
C          107.60034377729376      113.69239459503737      117.11728484062165
H          105.81264276360179      113.13147480882074      118.18666863035095
H          106.47719320215332      114.70142779695099      118.63339318331407
C          107.03628045602167      114.66233989108085      116.10177243817591
H          108.60378284753583      114.04216782731740      117.37846496832066
H          107.68168293501454      112.70011671539312      116.67887033125365
N          107.12855494127389      114.27959387720892      114.82757334009852
O          107.84234197397473      113.74812269901020      122.72649934786482
C          106.62944315345995      115.11978809077165      113.75752055849094
H          107.52123872851965      113.37308057019389      114.59636991693704
C          106.36302705255555      114.32971239699972      112.48315694356199
H          105.70500233487711      115.58939612511685      114.11117650573094
H          107.34643975724880      115.92682630730945      113.56337783375399
C          105.45576603133483      115.12417271085319      111.54277670039498
H          107.30971085042384      114.10218585475967      111.99387076410581
H          105.87895546489129      113.38601311791665      112.73819654248591
C          105.29057081101146      114.47177605014406      110.17121559647425
H          104.47347501528819      115.21779681849398      112.00826383764115
H          105.85406279894325      116.13310542092627      111.41267716976745
C          106.49983251881534      114.68747130404704      109.26402253663778
H          105.10724903130823      113.40354043090710      110.30001992838297
H          104.41058523229935      114.88647976682644      109.67581383285955
C          106.25440231764182      114.06512654469081      107.89407208342941
H          106.68617720996748      115.75645434608762      109.13986004200306
H          107.39595946919388      114.24168587824755      109.69820666605493
N          107.40749509046515      114.20323134218816      107.03829495533134
H          106.01267373163927      113.00322461561615      108.01083037074609
H          105.41592486627455      114.56153187548915      107.40150341026587
C          107.35365717652469      114.67540358683578      105.79448802432890
H          108.27752579259509      113.85929814512436      107.42556597943415
O          106.53718145056968      115.73895719666443      116.43235222597616
C          108.68274917617558      114.75956057704757      105.07556651662961
C          108.96952038401240      113.44741449393617      104.33043223745803
H          108.61586609463799      115.57510012148698      104.35477016795009
H          109.47302722522168      114.98804164127598      105.78760403701250
C          109.56674728221478      112.36200716317133      105.21839510854144
H          108.03616332802473      113.08936543434851      103.89024068402527
H          109.66237905600786      113.64676434804586      103.51013008661857
C          110.97663332612989      112.71869456200051      105.67962939615616
H          108.93735807090492      112.19733244379597      106.09196762187486
H          109.60497967163917      111.43054314290141      104.65453199153254
C          111.71684201672670      111.53561816578809      106.25727274671731
H          111.56574485518448      113.08309160795885      104.83375045972988
H          110.94972257605947      113.50758793051192      106.42863968091869
N          112.74867560218796      111.84707258746865      107.04197064941964
C          113.59326783475416      110.82718655266029      107.63824186849756
H          113.00716973184799      112.82366278044830      107.16813608347093
O          106.29984822148789      115.00173234422677      105.24287429652189
C          114.99102659956164      111.34381770657791      107.95929758878512
H          113.12299929812906      110.47655987057871      108.56398885728683
H          113.63019894880257      109.98479811162653      106.94228332507521
C          115.68539433777984      110.46693997064561      109.00403653089602
H          115.59270606214362      111.38254330232773      107.05230165024467
H          114.90827091001167      112.36267337214557      108.34359887140722
C          115.81748919482182      109.01292725750923      108.54919245397760
H          116.67612077877538      110.87652193443606      109.19311192499335
H          115.12210007557704      110.51560074403703      109.93508654795596
C          116.71326692365811      108.16663579183873      109.45442290211919
H          114.83252465259356      108.54968242418333      108.50153724394819
H          116.25076274127679      109.00729475870800      107.55019884272893
C          116.30212342132080      108.23060944425539      110.91853288183444
H          116.66735249717807      107.12605525642789      109.12797405533988
H          117.74970143585971      108.49162673963843      109.36459463021112
N          117.03658026317032      107.26263874601796      111.70696389134493
H          116.49335727264263      109.23194776282141      111.32184604435389
H          115.23842565005579      108.00766358764538      111.03321088112729
C          116.57213171172747      106.79224584354776      112.86386730252308
H          117.95695619438092      107.00727841576654      111.37250889329654
O          111.40588017902218      110.36762101427769      106.01181187728324
C          117.51542912140850      105.87864987850662      113.62591797938421
C          118.87257087796600      106.52975859389515      113.89156954509421
H          117.03505055824125      105.62044892732186      114.57188431634029
H          117.66337782630545      104.96484917956799      113.04850400191145
C          118.73727286477042      107.83702143611059      114.66804031503410
H          119.49835651118751      105.83357116286356      114.45546632897833
H          119.37792302912655      106.72127364869705      112.94427703451295
C          120.09069373706852      108.51294451431029      114.90224367127109
H          118.09090846612152      108.52426932327961      114.11942335315497
H          118.27272782314483      107.64883128592088      115.63783707669916
C          120.82575137046572      108.71813029536310      113.59392975717402
H          119.92039280033734      109.48387330757272      115.36607283730325
H          120.70883679669259      107.90372818387948      115.56430855649644
N          120.25697373914261      109.59391307454851      112.77054416775685
O          115.44969574381591      107.06247777926551      113.28897797876601
C          120.78639847881219      109.89215123238112      111.45610077911209
H          119.51650836549952      110.18465162059894      113.13366412603834
C          119.75501644420955      110.61537903182068      110.60073664645158
H          121.69281294816622      110.50476887149757      111.55069733622061
H          121.07054011074288      108.94124173084614      110.99671393227437
C          120.35302114196057      111.04168726173798      109.26040862962229
H          118.90830778637465      109.95061952020247      110.43499368709388
H          119.39930285331715      111.49460691094272      111.14168565861108
C          119.31005206290342      111.67900552619651      108.34353939636642
H          121.16059467024019      111.75191032501127      109.44756755859723
H          120.78267109429649      110.16845895012398      108.76754755141603
C          119.94420040084175      112.33312206238736      107.11578490093395
H          118.60211868775755      110.91714098721481      108.02019068533187
H          118.76466447561134      112.44076290290272      108.90362250853015
C          118.94219452906290      113.17092879147020      106.33310472745210
H          120.74886094837632      112.99615143235094      107.43679831301307
H          120.37037094054185      111.57315320462297      106.46066023190247
N          117.97534203559373      112.35407794991204      105.62517382628772
H          118.40033044199731      113.83295167839943      107.01639397162690
H          119.45289800661939      113.80658165258855      105.60379261787574
C          117.22066766670362      112.85801113546010      104.65412495963105
H          117.87247324276660      111.38524167277139      105.91743618877067
O          121.85462380868391      108.09805305450936      113.30975308735056
C          116.15399198354309      111.94699290007779      104.07530401776523
C          114.82139267533023      112.70344714312714      104.04824773433234
H          116.44709306788543      111.69358059380578      103.05520207411556
H          116.08458930558606      111.02915305143101      104.65381548297603
C          113.83275966757574      112.19778942757354      103.00317696476812
H          114.36379602156627      112.66839602304860      105.03789283219915
H          115.03204199794861      113.75294724790331      103.82873586586646
C          113.51432698162627      110.70523354511272      103.13370446579719
H          112.90776533306941      112.77232178357569      103.10269604118851
H          114.21782615409859      112.39079917520688      102.00185525077453
C          112.25957738411446      110.39517166447256      102.34113155806997
H          114.33950911928046      110.12147544661471      102.72428631897166
H          113.36939984014030      110.43764167024187      104.17851783028861
N          111.23969253447731      109.93197931623895      103.06840713936803
C          109.95197307698541      109.59118239274375      102.50040448368715
H          111.30427545626682      109.92010073061195      104.08300755227498
O          117.36527984736428      114.01032940340231      104.23474884318853
C          109.27359543880823      108.51743815256560      103.34362750637914
H          109.31084499816018      110.48148960771816      102.45130533365915
H          110.12394192433914      109.24658399124962      101.47795253720469
C          107.88759942228138      108.15710440998762      102.81074908427523
H          109.90670277430328      107.63016651324463      103.36613635877157
H          109.18016822614094      108.88786914393197      104.36719408891514
C          107.93066873510719      107.34568492324365      101.51449052959643
H          107.34940560458686      107.58234209517020      103.56815962727960
H          107.31999532849493      109.07129102887939      102.63237106938284
C          108.26074871937189      105.87651703795051      101.77150197476361
H          106.95866326875704      107.41508121345541      101.02406495390275
H          108.66385563174669      107.77764515791432      100.83658180490605
C          108.69182203331764      105.13028319449228      100.50814488410721
H          109.06609662407925      105.79877772994439      102.50310555997734
H          107.38397870930935      105.37291986311446      102.18206088944156
N          110.00933044057565      105.53691943010719      100.07025183061977
H          108.72425517905887      104.05657851248499      100.70854195087472
H          107.97394114191091      105.30569881019720       99.70411762320326
C          111.10458032365349      104.80848549464024      100.27881610206319
H          110.08457193699259      106.46464886888654       99.66961247567824
O          112.18854622395274      110.57062242186099      101.12521366605441
C          112.40946735498605      105.43395869987927       99.81474982782893
C          112.64668212301190      106.83120029730264      100.39805688548233
H          113.21311528517968      104.75558329570613      100.10624613246176
H          112.38987874322690      105.49216145889163       98.72436678814499
C          114.06403622419592      107.34485691274936      100.14439750184710
H          111.94125571197080      107.53359362826463       99.95468767011583
H          112.45573755148578      106.81935423429439      101.47281668242725
C          115.13258973684353      106.66261231533562      100.99751633526338
H          114.31133751515858      107.22126238455853       99.08777824323035
H          114.08540055810607      108.41370030084539      100.36692502056259
C          116.43188998291751      107.44727080875813      100.99628151580322
H          114.78174940020649      106.62367588776505      102.02884953704543
H          115.32155646733906      105.64144895728552      100.67087262242056
N          117.53249102059392      106.71120693950495      101.16601594839240
O          111.08023968509360      103.68723680792243      100.79336560316095
C          118.86696075154505      107.28612602764466      101.14793973771641
H          117.46492489402353      105.69519386446810      101.18161316911464
C          119.92393011577367      106.18992519989865      101.20742578907866
H          118.98873991066215      107.87776000696738      100.23303933762408
H          118.97137079799921      107.97890831307915      101.98989453056976
C          121.33064578157861      106.75852739902260      101.02584944574429
H          119.85684192383691      105.66195173611864      102.15908997244973
H          119.72625413352185      105.46507514804541      100.41580720832117
C          122.37828262461542      105.64985966260079      100.94355780012393
H          121.35428716484994      107.35400962641792      100.11273614131375
H          121.56721660298514      107.41627471643127      101.86086655648775
C          123.80796005011409      106.16716183032457      100.77385123674009
H          122.34036329281366      105.05681903065995      101.85706221082683
H          122.13927548396661      104.99022454311108      100.10735704204500
C          123.99268523218193      106.94413233308622       99.47364509936895
H          124.07888660328187      106.79522597172426      101.62279191801807
H          124.48175963444106      105.30855997605504      100.77502801293326
N          125.41554253185018      107.15742050198743       99.14768552300309
H          123.52924353102350      106.40361014366320       98.64585779629033
H          123.53378524189139      107.93097167132795       99.54137645764254
H          125.93542905422268      107.61343709792045       99.94612355034315
H          125.88173212091793      106.28346017198896       98.90859516083417
O          116.46741780930724      108.67443874215779      100.89051217098483
C           98.71997434119173      113.16934115248490      124.24995071387761
C           99.37925298745337      112.19962062755469      125.20526012121938
C           99.61989185979824      113.61865985003465      123.10309527842752
C          100.66655017536456      114.63731966755608      123.54966131979502
H          100.12510009722516      112.74249826939004      122.69419724231675
H           99.00933561592218      114.04927989170511      122.30941299037279
C          101.70125165462960      114.92871174663877      122.45687519148655
H          100.17609117462469      115.56764774592259      123.84517448471873
H          101.19366432230187      114.24258166602388      124.42135712012470
C          101.08377891730423      115.55659640582316      121.21950886276421
H          102.46453475449843      115.60162304487611      122.84860935171602
H          102.16863355711183      113.98942297300526      122.16099003116432
N          101.22656005235679      116.87864260663524      121.13712597550800
O           98.64391696946541      112.00615776563129      126.28023253299139
O          100.44346510160672      111.64584412697810      125.01582599308681
H           99.02921899280619      111.32294772279509      126.91236662454146
H           98.36215511507838      114.02004926236282      124.83183986414321
H           97.83879575172804      112.65394085820357      123.86014429024264
C          100.76861029913742      117.64329367074384      119.99564873350862
H          101.70080856502103      117.39076332872853      121.87220359495220
C          100.78188656566242      119.13440278654905      120.29866173913145
H          101.42328123450939      117.43898196274945      119.13842855304519
H           99.76713075133291      117.30005946788512      119.72471844347132
C           99.70353056374439      119.58891473268783      121.28158507925096
H          101.76171850262925      119.38415283391411      120.71187195548103
H          100.64989663502770      119.67895803831617      119.36256442384536
C           98.30601416765556      119.52120339742974      120.67112859215509
H           99.75172390941930      118.98574771630562      122.19058876069806
H           99.92377713418902      120.62247484528903      121.55269897992086
C           97.21774979860966      120.14906480221426      121.54379987803017
H           98.32879783731740      120.01816480782853      119.69942940030791
H           98.03259113711408      118.47744067441818      120.50531754931745
C           97.39962111037504      121.64335633743653      121.80194719711670
H           96.25377751563143      119.99643529473187      121.05375239650017
H           97.18403640215047      119.64496722374244      122.51122139874325
N           97.60437494006179      122.38349404452123      120.57523322610869
H           96.51216201701475      122.03045420837105      122.31842854291351
H           98.26141980475794      121.83638943824070      122.44645925750498