3795
 energy: -5103.587995878854 gnorm: 0.000887237541 xtb: 6.6.1 (8d0f1dd)
C          128.28732009936124      109.32614034107442      109.00821542876989
C          127.96025492301401      110.69038171297177      109.57045386258677
C          127.35240298456945      108.86843176513118      107.89445509080454
C          125.95986659438462      108.52389547538961      108.41686446811322
H          127.28390790637157      109.64638731818619      107.13401508954315
H          127.78712402566160      107.98974320926422      107.41583018826745
C          125.14877794061513      107.78535771370807      107.34979613194429
H          126.05387036512943      107.88635588699316      109.29674595002113
H          125.43388989462723      109.43415670480775      108.71237377977964
C          123.87122428429586      107.21652872493668      107.92458446601832
H          124.92336629183556      108.46612383245063      106.53066094829320
H          125.74609297541943      106.95456921000718      106.96794719638226
N          122.79239022388242      107.97977669858135      107.78609674241173
O          128.16963964959987      110.74100632815308      110.87256697919459
O          127.59331233690533      111.64063213220436      108.91314910896652
H          128.21584292995979      111.68271905624781      111.21946615056167
H          128.30516447101053      108.61401352776703      109.83358678885445
H          129.30213103061519      109.40857905389899      108.61087567919827
C          121.47198720465228      107.61285693146564      108.25405855855962
H          122.89569016089266      108.92702858007075      107.43910720427522
C          120.74314753122621      108.82852629359773      108.81220994308352
H          120.90539268665269      107.17764553640799      107.42321189418354
H          121.57861284735485      106.84684066758506      109.02527606829689
C          119.39686882646458      108.47634379804701      109.44076283193191
H          121.38471801661645      109.28817764918054      109.56693487830267
H          120.59489624429547      109.55513032632815      108.01110340874907
C          118.35402610839910      108.02344595616530      108.42149626365362
H          119.53109835219048      107.68997777832429      110.18640146864301
H          119.02224726203892      109.35691316248607      109.96664097209711
C          117.05037326368844      107.58520846975262      109.08946463540882
H          118.15561580481466      108.83306492738181      107.71584814710538
H          118.73679065221070      107.17957077195948      107.84724160010421
C          116.20467490275263      108.75097212319879      109.57663360556049
H          116.46348786222366      107.00059119795583      108.37837580275509
H          117.28065314329164      106.94498900291467      109.94299357270057
N          115.63704345190096      109.48450871171447      108.46470057474416
H          115.39468720700121      108.38543722166953      110.21630430164463
H          116.80494472588373      109.43912444600328      110.17866952067754
C          115.02924442029142      110.66392369285326      108.61519024424855
H          115.74297367456765      109.08529855043636      107.54227291336834
O          123.85452014005598      106.11211253405925      108.47924550830749
C          114.55679170988510      111.30321327820667      107.32704516277390
C          115.32009454518585      112.60393584720282      107.06278651693987
H          114.69621714969848      110.60851496186915      106.50205424196665
H          113.49151687232236      111.51565651021231      107.43185932070885
C          116.83137916372512      112.39923788526862      106.99582816732479
H          114.97318121075546      113.04860296434292      106.12873120654422
H          115.09927583996114      113.30833439402909      107.86605899241704
C          117.28004892498817      111.52219681092423      105.83008780105722
H          117.31674328768391      113.37087189301837      106.88640655613118
H          117.18581439679367      111.95733442126192      107.92928521892335
C          118.79113453261144      111.52804887382217      105.69314316157259
H          116.92614265369410      110.49832581640875      105.93341151648497
H          116.86936449759966      111.92793019147592      104.90186237224239
N          119.31834725867215      110.37699134375340      105.23909110568290
C          120.72847785099199      110.26149002148119      104.92033217025605
H          118.70892644612096      109.66007981669769      104.87720743585243
O          114.87110437140831      111.18774261714336      109.71850642428062
C          121.10967534064531      108.82662931380433      104.59038775854731
H          120.95620685670447      110.90506120316934      104.06207135593341
H          121.30523982395002      110.63276393370542      105.77345298645427
C          122.57252247963135      108.74280080834831      104.15704982180266
H          120.93821018798543      108.19156718916122      105.45882187819588
H          120.46416783286627      108.46940896905110      103.78292335722483
C          122.97061671982453      107.32767328189892      103.74114756880853
H          122.72665250997488      109.41764325871367      103.31534605177664
H          123.20623301713674      109.09404346380093      104.97154845610186
C          124.20019586407071      107.27956897313982      102.83170264242523
H          123.14822977191434      106.71755938129272      104.62898528681266
H          122.13730710491338      106.87832192349343      103.19627294735980
C          125.49927371621395      107.72806637904844      103.49167069696040
N          125.66033454505175      109.17043242893011      103.48709612592863
H          125.54889052657475      107.36605505687211      104.52329367163726
H          126.35674987774151      107.29531161974198      102.96151872109814
C          126.76698486556714      109.76019483254775      103.96001092607470
H          124.94649532258819      109.73384021126748      103.04752307750228
O          119.48502409491509      112.49580014669657      105.97175555371567
C          126.81068493823919      111.26367721890490      103.76801862715686
C          126.50280292937197      112.01310144979495      105.06663071475417
H          127.81837641993613      111.53232135779579      103.44748896485750
H          126.09122939759355      111.54878671844261      103.00178119544029
C          125.09720639555275      111.72515755276885      105.57801843705242
H          127.22858360504219      111.73211868477563      105.83309142249250
H          126.61461260095315      113.08428466235812      104.88564691835056
C          124.75792948201931      112.56677578106087      106.80440977204978
H          124.37326581760829      111.90568866368031      104.78073966811233
H          125.02323748142190      110.67152107487115      105.85244605778662
C          123.52000909847330      112.06442130795823      107.52495285567741
H          125.58474667199006      112.49038612473296      107.51926487173358
H          124.63297468333722      113.61955072387177      106.54910903240075
N          122.90952915744363      112.98342273241035      108.27501457949984
C          121.79136971827334      112.68988511322860      109.14074940122904
H          123.22236917625682      113.95150044711589      108.25792515873891
H          124.33385064123205      106.24999400387681      102.49660952252538
H          124.02270785001100      107.89695805558445      101.94951891741664
O          127.67227294727074      109.12894155412168      104.49920122101408
O          123.14699847622308      110.89325936980178      107.45528962133668
C          120.65547374920058      113.69389558564495      108.98640395918275
H          121.44046292551754      111.68673321201477      108.88960996757993
H          122.13635719779973      112.68964849160086      110.18229555968598
C          119.51236812030173      113.34208478668184      109.93362354567661
H          121.02937426818963      114.69660296069119      109.19944333412263
H          120.29645679190311      113.66925279033933      107.95653085073205
C          118.35936984284960      114.33950019464980      109.85873986514578
H          119.13981270619539      112.34997556054162      109.66712803948644
H          119.88418839446085      113.28648534353584      110.95879224871203
C          117.11559249594903      113.79094913402564      110.55000272442727
H          118.65130954757713      115.28816991923779      110.31235916829534
H          118.12878119495659      114.52944281522063      108.80926102055170
C          115.89421379789988      114.68180263535353      110.35434743057364
H          116.88152557737232      112.80906622565621      110.13231774228755
H          117.30414618162355      113.65090677435344      111.61563553042566
N          114.70421470969821      113.96285405771266      110.75181724362342
H          115.96082904072095      115.59631334415658      110.94939166222819
H          115.81841881516613      114.96998355144584      109.29783963738743
C          113.66229685553544      114.51163395222166      111.37569285149145
H          114.68479190292832      112.97654332548915      110.50879610603479
C          112.56939319118069      113.52480336069632      111.74139782469598
C          111.82555071687295      113.04071906068584      110.49574083632207
H          113.01802205766931      112.66920267730005      112.24861465502993
H          111.87142223827823      114.00434801061735      112.42982427110999
C          110.61999540176582      112.18343659662929      110.87022890864864
H          111.48698923705058      113.90328542617526      109.91673318544693
H          112.50720138771827      112.46071063307198      109.87057638054365
C          109.85919688684218      111.70330827220560      109.63176483722184
H          110.95127981715460      111.32576940376831      111.45860084721006
H          109.94386772723429      112.76817990857212      111.49671287109381
C          110.64399204445907      110.66105003883224      108.86627132448520
H          108.89602055791609      111.28747711805234      109.92870102238632
H          109.67135253024684      112.55344694787618      108.97678575552573
N          110.68679460984318      109.45831595434834      109.44815860587791
C          111.43620740073385      108.34739231165705      108.90444135869620
H          110.17316077487934      109.30737058598352      110.30939038544433
O          113.58369207588848      115.71241635029065      111.63080662393853
C          112.27958418878848      107.64502473551360      109.96605607439011
H          110.74570000362601      107.62677249615270      108.44943944426652
H          112.07741941927158      108.75207470268154      108.11675585863843
C          113.13275627030859      106.55034913322305      109.32565162902875
H          112.91939913813800      108.37710371511781      110.46268745721348
H          111.61258842704038      107.21239194930169      110.71099418922687
C          113.84529379392393      105.63143042559992      110.32114392768560
H          112.50074384348980      105.94591847383028      108.67511020808264
H          113.88871938565859      107.02372478765176      108.69565196426137
C          112.92007282569645      104.85421703480445      111.26294494685860
H          114.43977973648987      104.91693233429238      109.74746431029916
H          114.54380383236980      106.21557444294420      110.92340075790474
C          111.78781980794685      104.15458846546365      110.51642084426256
H          113.51785469649259      104.10457698387964      111.78542847329791
H          112.49504799413162      105.52117879446183      112.01261668043800
N          111.01192651461720      103.28054195733553      111.37012358616906
H          111.11090290800975      104.89699533131571      110.08202175065681
H          112.19324065130789      103.53274998756542      109.71396501825184
O          111.19027414321620      110.89679392783064      107.78926436888642
C          110.76319333124889      102.00301969460480      111.04563970380759
H          110.67737256618220      103.66974124409842      112.24316454487192
C          109.84602602051767      101.24900548299480      111.98577371922856
C          110.65651884316394      100.30915423382748      112.88548394764372
H          109.25359797021717      101.93971206756503      112.58180304264080
H          109.17761084132727      100.64809513439315      111.36748230636444
C          111.46853723046621      101.04847858933060      113.94599707054242
H          109.97555483365227       99.61201212418764      113.37689720935673
H          111.33107388518779       99.72821477413478      112.25321982340584
C          110.57661084265352      101.73175496621896      114.98632110391708
H          112.10840915555160      100.32912113752855      114.46141768119570
H          112.11279631440905      101.79075861824953      113.47003247034479
C          111.41920270467132      102.24185514993506      116.13763353471222
H          110.02669099848708      102.55910829027376      114.54447941752846
H          109.87408372031751      100.99634803693033      115.38326521929132
N          111.43802859920852      103.56991385852639      116.26996659822593
O          111.23729694796268      101.47249017207527      110.04456692573365
C          112.20965232152614      104.26925371246607      117.27257174003618
H          111.03153033687470      104.14173363893906      115.53509813610927
C          113.00714530249058      105.41691991343019      116.66074752225639
H          111.53335313800171      104.67536012662310      118.03454296164246
H          112.86397756146613      103.54304779321608      117.75901354286644
C          113.98993209503105      104.96870732191201      115.57887676101154
H          112.30740125867517      106.13377037354296      116.22921581360961
H          113.55100366073135      105.92115697359509      117.46063241104207
C          115.01502947325453      103.96142601694689      116.10727407673953
H          113.44258403329646      104.54044772597621      114.73809740115027
H          114.51049925483895      105.85426786454369      115.21085214455384
C          116.41088472352753      104.12914063455730      115.51229082577731
H          115.10936260231306      104.09312593184178      117.18760006383769
H          114.65919670301021      102.94647514630135      115.92448883086050
C          116.49847426858939      103.91382061751850      114.00491037329299
H          116.78711037409653      105.12728982450474      115.74444596621412
H          117.07853048335090      103.40729672413856      115.98682307845445
N          117.90285774339382      103.84644471438763      113.64363872994356
H          116.00342495178280      102.97866004994549      113.72059986214252
H          116.02075952794138      104.72801246536669      113.45170728067184
C          118.40526488555658      103.80922073245699      112.41538151355989
H          118.55716840473842      103.92282804752887      114.42136460704722
O          112.01086193965834      101.47453901221060      116.89453646494239
C          119.91910716521116      103.74201828552903      112.38516041325941
C          120.55052437934953      105.08557070924273      112.00511279618783
H          120.27566005600112      103.45493569233813      113.37478009542997
H          120.22511800310482      102.98293749096968      111.66139879951614
C          122.04884069184635      105.05527479210856      112.30654595046326
H          120.38438299736531      105.27984503819614      110.94469724248108
H          120.05687088228105      105.88831718690221      112.55663699808102
C          122.82277134390087      106.16264215289505      111.58873674165670
H          122.19731120135849      105.15075390442323      113.38337737468798
H          122.44636089234339      104.08704267602651      111.99494016599147
C          124.24651059736235      106.27024176312798      112.09887393963211
H          122.83291475983778      105.97729464275767      110.51696104062688
H          122.32607448602367      107.11878469628282      111.77365052230056
N          125.20479682802222      106.10457556846229      111.18357178033015
C          126.61665707899762      106.17288134043085      111.50639115311760
H          124.94472548807870      105.95197432358593      110.21526856110265
O          117.72009948536422      103.78748855512802      111.38372558880931
C          127.40167215161081      105.06704030722442      110.80905030715914
H          127.01515137399331      107.15548455428682      111.22418601161124
H          126.70465874944058      106.07512627855738      112.59059237170649
C          127.00843880279101      103.67465792191115      111.32336301791443
H          127.22376089977102      105.14061416638164      109.73567141518838
H          128.46315956546670      105.24650371491727      110.97710251936081
C          126.83435464229964      102.64262603002048      110.20656746974842
H          127.76822115595319      103.31871780816286      112.02015059478768
H          126.07813376471223      103.75338818392585      111.88680135201510
C          125.62911078583974      102.91304689133320      109.30208821938983
H          127.73727119463010      102.63123624015695      109.59420190873705
H          126.72162538687395      101.65246887678153      110.65135867499774
C          124.29943933427232      102.68998213371570      110.01498484457228
H          125.65585600153906      103.94248464193018      108.94138120745085
H          125.68024112962493      102.26095941631996      108.42914425175101
N          123.21010208411005      103.28518680730662      109.26884893290664
H          124.08113673347135      101.62556913830643      110.12752497201409
H          124.33190571639680      103.13313663566261      111.01736378903411
C          121.94893564023501      102.84168051596723      109.33582344512773
H          123.41007747734679      104.16260760350094      108.80526105294582
O          124.50417652959538      106.50053764084862      113.27953500304716
C          120.94650980039296      103.65070769069986      108.53505735036293
C          120.23211618760057      102.77971125786034      107.50245950122398
H          120.20238566811211      104.02708776534023      109.23781148482136
H          121.43885727826621      104.49163988910077      108.04761358380259
C          119.13543004179886      103.53966949333861      106.76021438293536
H          120.96092923422110      102.40951813220804      106.77813002939031
H          119.79933742891896      101.91692709330412      108.01282592080193
C          117.98951359457672      103.97755644724666      107.67731770744766
H          119.55708216673587      104.42077672683304      106.27228867610087
H          118.72984945003526      102.89218665279803      105.97966079783036
C          116.90116289063438      104.63716869277864      106.86319252278840
H          117.58887018341029      103.12419879465341      108.22123486171226
H          118.34474258185836      104.70946612248623      108.40418821898329
N          115.69414639223334      104.09666239896468      106.98644472094952
O          121.62147267652345      101.85912490648381      109.99557802540477
C          114.49827839333300      104.53279280821704      106.29041566462560
H          115.57698855225942      103.34523149992073      107.65645688478578
C          113.48536969891829      103.39323155003459      106.24778182190980
H          114.07729125623442      105.40557311701107      106.80038626760445
H          114.77395946775235      104.83075545574994      105.27508780233707
C          112.22431984677175      103.74398991783495      105.45709227102161
H          113.96444604394388      102.52906620367710      105.78425986052984
H          113.21628346430624      103.11165464743699      107.26812692036685
C          111.34409465491403      104.78106991359009      106.15602939866248
H          112.51975955023784      104.10304413211966      104.47067950144803
H          111.64533956562506      102.82834147154084      105.32524863560280
C          109.95731738292226      104.90946206004055      105.52378010360657
H          111.21504624280549      104.47134329051498      107.19511654106307
H          111.83479043166756      105.75533170497094      106.14703751475686
C          109.99620958373829      105.53106992517245      104.12781439136658
H          109.50275015502760      103.91857557616247      105.46285169937713
H          109.32788166138039      105.53144046504902      106.16267976034567
N          108.67379362259823      105.57304324508367      103.53961267375195
H          110.35680904799180      106.56093527838954      104.17382908179079
H          110.65817904861785      104.95478016576882      103.47524919906205
C          108.08312720260527      106.68870709812363      103.08551859464329
H          108.18134505663062      104.69511921370152      103.48238832853870
O          117.15253238962981      105.60539287267137      106.13332510245442
C          106.67112469714449      106.49530765400569      102.56443046202068
C          105.67790828795052      106.81955506095350      103.68848173497881
H          106.52953251145291      107.18703220281547      101.73469101708595
H          106.51753231973200      105.47895228317016      102.20375626880234
C          104.24736342013966      107.03248131349689      103.19205535183953
H          105.68671437518880      106.00504750743788      104.41514494889304
H          106.00627606020615      107.72547023217008      104.20242240806868
C          104.08109079773897      108.34913606688704      102.42502923566279
H          103.94577731264091      106.20039378694474      102.55442756663088
H          103.58414267402765      107.06126835455396      104.05822499986418
C          104.42384633542457      109.52083049299240      103.32446250493423
H          104.69529285561001      108.35615619396761      101.52894376764952
H          103.03477283838136      108.45352174284123      102.13032121478103
N          105.36698677728776      110.37795339552375      102.93525098164054
C          106.13480169330809      110.42505573207916      101.70649268314463
H          105.60060596659544      111.10090915322949      103.62032849378589
O          108.61586996273783      107.79100934846127      103.11931134875252
C          106.96112596269009      111.71084840144084      101.68579227491298
H          106.80366714647029      109.55959774343522      101.64035110348263
H          105.45455851506506      110.41107741310546      100.84730274697716
C          107.40379870875424      112.12007148836203      100.28265249872109
H          106.35715061347784      112.51605473142186      102.10736804933349
H          107.83185142739703      111.57352487218607      102.32773303458799
C          108.14426830124232      113.46022827439147      100.29306238739076
H          108.04598321406802      111.34877377585326       99.85498518892969
H          106.51880378897712      112.20978606873082       99.65017450291455
C          109.58642516049200      113.33292917058800      100.77989669559527
H          108.15129744730767      113.87813925160127       99.28564528730799
H          107.60392873412695      114.15685459747803      100.93691472423055
C          110.22893732943862      114.69899335240211      101.01824182051044
H          109.62957593745278      112.75956325147948      101.70665954251567
H          110.17473185935543      112.78851230441137      100.03962050819749
N          111.59598579158965      114.51847032887413      101.45376686306160
H          110.20313745261757      115.28447661973483      100.09796095918162
H          109.66399114873538      115.24408596922844      101.78514757117780
C          112.66390018061095      115.26710749565943      101.17744622323507
H          111.76144189328754      113.68769407490275      102.02522050748073
O          103.84119009874617      109.69265273776179      104.40023457665291
C          112.43461244674207      116.53575643606176      100.37682164422780
C          113.71370752035945      117.35739440980394      100.25420711531910
H          112.08010940212351      116.25537869150990       99.38144077989085
H          111.65362458193185      117.12199868321426      100.86293486920715
C          113.52713720017634      118.57040915158716       99.34978012907527
H          114.03032973744664      117.67278159736510      101.24938203378255
H          114.50679640802913      116.72668829971913       99.84695078884432
C          114.83228951434485      119.35622828014570       99.20671920459679
H          113.21078187933514      118.23540512204801       98.35985312727175
H          112.75443177446103      119.22619009125032       99.75785930088824
C          114.66016701055010      120.51057630648828       98.24239135584068
H          115.14557051533755      119.74833454192274      100.17572254298726
H          115.60833635484092      118.69577763750209       98.81848244401915
N          114.63848317505580      120.14700227206684       96.95870390341268
O          113.78882543797172      114.92883553053844      101.54870641421473
C          114.55423895084870      121.08131872600670       95.85986369414802
H          114.79568595598855      119.17404199885270       96.72412801231702
C          115.79614920991165      121.01681778260652       94.97149966712108
H          113.66323521856648      120.85678518332291       95.26493708831285
H          114.44915698637161      122.07791893132003       96.29573776206909
C          117.07118939986677      121.34175394222048       95.74816010293071
H          115.87385448137074      120.01564788773533       94.54640193547634
H          115.67242417865859      121.72860808648794       94.15425160867771
C          118.28540780732132      121.53308150190068       94.84040510790432
H          116.91296977633343      122.25574847972226       96.32736552467775
H          117.27675119073797      120.53461639771928       96.45524903390779
C          118.66411203356535      120.25829470818415       94.08624172354563
H          118.07625617465575      122.33517568245688       94.12956350297902
H          119.13589449683980      121.84550821342590       95.45518724703440
C          120.02163170912102      120.36663435176348       93.39165807067303
H          118.69333645324745      119.42537977844795       94.79141563260801
H          117.91450462206056      120.03572271665284       93.32762626748588
N          119.93062738278233      121.19861905050793       92.19768522805222
H          120.76639395241497      120.73929079002217       94.11615624322602
H          120.34027612824025      119.37139561351374       93.06700290648601
H          120.83307023361714      121.23870034282365       91.73841450883478
H          119.68311617723268      122.14545886674009       92.46261060192117
O          114.51747996150957      121.67048999740622       98.62408589152521
C          106.76694167360517      122.02067024955146      125.54867924129532
C          107.88263705123461      122.82730585740755      126.17308815284935
C          106.60804096933920      122.37544966474704      124.06333936376956
C          107.68230528618921      121.72562730589203      123.19428806484542
H          105.61969028777038      122.05251405994220      123.72869958256791
H          106.64952656497621      123.46030613354105      123.94354408161529
C          107.35073867733615      121.82736047812054      121.70316316281927
H          108.64057442404642      122.20439092576825      123.39876595025405
H          107.78189241510191      120.67108202249176      123.45650836253311
C          108.38637308972964      121.08964325087297      120.87343549937025
H          106.38078320173142      121.36233011093780      121.51512867916122
H          107.29577988514748      122.86638130757913      121.38746551372461
N          109.07860914875886      121.85675360933985      120.02787085718930
O          107.42541469314907      123.86284216280993      126.84969104477670
O          109.06001004974735      122.56916762166688      126.05872941552738
H          108.16311361747375      124.37451841071828      127.31107325675946
H          105.84965038349371      122.24642619517904      126.09006044107444
H          107.00081918240200      120.96084912291283      125.64894287463542
C          110.14274531755271      121.32626454183887      119.19971425845831
H          108.93517298038465      122.86054215224962      120.03662028370368
C          110.50727865589043      122.25219840524858      118.04514250992946
H          111.02915604390344      121.14931027105348      119.82146628894446
H          109.80963918921253      120.35730431763979      118.81368680995718
C          110.85661431809073      123.66178789457769      118.51577242501517
H          111.35945327702333      121.81082437453421      117.52501317409147
H          109.67706356069074      122.30070625745651      117.33908462645211
C          111.52940973139448      124.50812567428895      117.43714460497606
H          109.95075031668053      124.17517588271697      118.83690247109269
H          111.52382640378453      123.60625396894542      119.37766946495015
C          111.47447310374861      125.98432891618292      117.83020531106882
H          112.56764592769983      124.19544454153421      117.31637165763370
H          111.02442972327572      124.36440344941323      116.47967557091759
C          112.50274601652072      126.84113357413547      117.10896097047086
H          110.47500266793854      126.37320898873976      117.63168435805700
H          111.65503881307936      126.07085944567487      118.90285160574925
N          113.81445237764434      126.65985261712292      117.69767900800576
H          112.55880382396259      126.58239017081347      116.04818704215657
H          112.22355223221822      127.90017284938546      117.18119971174073