3795
 energy: -5102.966205203104 gnorm: 0.000956937663 xtb: 6.6.1 (8d0f1dd)
C          128.28825926012414      109.37133503383339      109.02038665433481
C          127.93902434121905      110.72521099607897      109.59789247490525
C          127.37586792846315      108.92616152749407      107.88342431894760
C          125.96169603702397      108.62304988674833      108.37144531685180
H          127.34932420060186      109.69359097609885      107.11209885941115
H          127.80205909293542      108.03081029027585      107.42800762506069
C          125.17456035098124      107.84401507801044      107.31501039153152
H          126.01750508090117      108.02330282009486      109.28103565096117
H          125.43670889738577      109.54942413582039      108.61001991797676
C          123.89850737995231      107.28178095033395      107.89602760184995
H          124.95721524422876      108.49277629504441      106.46907470570885
H          125.78418445446657      107.00563285044656      106.97019750840347
N          122.81184674301664      108.02678102538363      107.72746466362861
O          128.11788762103939      110.75384798331514      110.90762145531498
O          127.58315795062214      111.67960999839511      108.94905278970870
H          128.16362810270010      111.69303950441773      111.25662595329767
H          128.29845666817795      108.64439804396505      109.83429102810381
H          129.30963791228749      109.46459853458300      108.64226768024955
C          121.49662389113537      107.65616391756015      108.20557391200805
H          122.91007856986076      108.98110052972690      107.39195929500498
C          120.80860738624405      108.84753852987123      108.86161911804618
H          120.90023058633643      107.28880707277924      107.36359530372744
H          121.61145372903421      106.83652148924186      108.91760554605715
C          119.47398427119860      108.48316431388329      109.50737737627800
H          121.48337973069974      109.24700518656505      109.62202041400234
H          120.65308866190063      109.62236614544020      108.10953782616977
C          118.39189036791443      108.11656160191477      108.49479083110822
H          119.61346948047384      107.64879239826521      110.19744923456091
H          119.13091185149847      109.33397569602165      110.09894365813628
C          117.10222671649970      107.66760282371476      109.18432076989528
H          118.19040663781365      108.97406450351038      107.85039708978060
H          118.73711206580312      107.30658821636717      107.85318550438929
C          116.25469725814141      108.83445860900189      109.66433725016778
H          116.50975297290678      107.07070260181847      108.48937478949819
H          117.34782511427753      107.03948072114083      110.04182664809723
N          115.66960962694840      109.53926664300211      108.54386664539108
H          115.45688467878010      108.47583782006321      110.32299689477448
H          116.85936772552515      109.53934474751767      110.24155433745193
C          115.03591652905104      110.70573872511783      108.68029681158299
H          115.75148113433397      109.11388282868953      107.62954675107328
O          123.89220741171106      106.19391502175287      108.48512585720715
C          114.56742166090315      111.32301599754618      107.38013103240358
C          115.35830543792558      112.59982782500903      107.07348007474774
H          114.68378268202574      110.60332310842509      106.57347801769521
H          113.50854011360485      111.56333460832707      107.48770893111664
C          116.86766357544970      112.37397340173425      107.02345226638002
H          115.02400956483271      113.01457544772718      106.12142328733628
H          115.14417758622591      113.33826825485707      107.84713541168118
C          117.31988817071823      111.44688694273952      105.89826337287428
H          117.36278034055418      113.33597619436128      106.87838347374277
H          117.21214256750716      111.96760713397349      107.97569230461136
C          118.83230283925342      111.45516604099997      105.76461413978316
H          116.96945520734015      110.42752421526755      106.04879454880542
H          116.91191947141020      111.80467758119141      104.94994590781295
N          119.35527252593636      110.31497503682201      105.27260091802295
C          120.76754388872192      110.21880346195054      104.96017220088922
H          118.74668917069266      109.64417536377169      104.82851862415647
O          114.86221983978746      111.23659961110201      109.77599164720054
C          121.15749487216029      108.80164151899619      104.56854359494127
H          121.00126583555347      110.89641399116198      104.13123995714159
H          121.33450784138859      110.55571066047099      105.83341807947713
C          122.62077333021870      108.74358185332314      104.13253472367062
H          120.99045529117411      108.12547030403911      105.40603569899359
H          120.51487018604020      108.47450624468766      103.74645517795619
C          123.03063555429722      107.33881334476450      103.69386027376196
H          122.77086726265443      109.43368287595113      103.30245618098466
H          123.25314944657264      109.08336344767754      104.95197791953670
C          124.26131293302596      107.31383331827712      102.78547275920539
H          123.21265410826456      106.71512331802333      104.57181960742525
H          122.20154713658398      106.88962288296179      103.14088728900896
C          125.55730727482785      107.76345741631850      103.45026757811461
N          125.68612601495254      109.20555458812876      103.50912910882893
H          125.62761490620746      107.35997457549806      104.46514402114461
H          126.41350628242560      107.36469469836373      102.88960860230426
C          126.76238625368855      109.78910144839901      104.07159382261797
H          125.01979004047202      109.77158269057041      103.00467638863446
O          119.52701246906649      112.40648252218517      106.08159158621720
C          126.81752401444911      111.29353005834801      103.89117173159121
C          126.49160825849856      112.03708257802447      105.18815855432163
H          127.83140761068984      111.55715070629802      103.58681299905471
H          126.11416334304786      111.58947809520164      103.11363401813027
C          125.07469358528292      111.75007485713884      105.66730918619044
H          127.19670211233883      111.74669484820240      105.96868865947748
H          126.61010507071963      113.10899313872351      105.01540867374970
C          124.72394773401831      112.56998278565460      106.90492582307560
H          124.36752732084634      111.95440552287548      104.86039799627245
H          124.98645124347247      110.69231434667832      105.91765956946571
C          123.46851829661064      112.06854490092961      107.59191400664098
H          125.53907266651287      112.46815851433750      107.62975951648554
H          124.61608254001519      113.62919690589136      106.66794509994584
N          122.85262190720529      112.98589904821320      108.34110293133253
C          121.72587829349030      112.68940271833360      109.19273742160125
H          123.17030579110366      113.95367021468157      108.33615125936376
H          124.40301091637342      106.29004910977525      102.43227739998757
H          124.07746815776643      107.94200748900829      101.91109978245444
O          127.61168537484684      109.15294287581899      104.67367522389003
O          123.08611740940096      110.90344179235328      107.50085621491517
C          120.58682180256660      113.68766321052239      109.02356746768598
H          121.38264832208587      111.68478969061867      108.93951572253999
H          122.05778887535971      112.69495833150873      110.23922619749059
C          119.44970580083481      113.35089436139083      109.98342877557077
H          120.95913033763320      114.69451631837748      109.21874412321911
H          120.22399937676579      113.64007936575436      107.99628922507391
C          118.29600508507600      114.34699124182204      109.89793848333872
H          119.07658571996913      112.35432884968094      109.73701393557783
H          119.82733525624703      113.31311220186672      111.00773764474405
C          117.05060420431687      113.79877406791346      110.58630380722076
H          118.58508489406744      115.29894691734309      110.34637992425813
H          118.06984495250134      114.52943116094380      108.84636545032028
C          115.82730626444634      114.68770667742476      110.38880232258083
H          116.81901996320440      112.81751422930984      110.16719262716258
H          117.23595987950277      113.65745411618413      111.65211121282927
N          114.64227127588224      113.95366235221874      110.77324605779398
H          115.88420823072747      115.59845633232243      110.98973134320390
H          115.75523759183301      114.98042252712790      109.33365797172402
C          113.59874872028186      114.47912037935208      111.41013564336882
H          114.63892787941350      112.96656162077012      110.52059981544475
C          112.51873827404667      113.47087672061296      111.76020786818501
C          111.80445651897629      112.97768800256600      110.50012454422867
H          112.97533312514240      112.62063237475014      112.26932469011041
H          111.80313761299749      113.93544814011945      112.44054698556509
C          110.59576207275232      112.11457258846133      110.85014322094199
H          111.47201882945970      113.83543943276450      109.91019123262041
H          112.50140985443134      112.39886402876782      109.89229136635450
C          109.84850317330363      111.65892364338566      109.59345563553499
H          110.92134922907815      111.24730184578827      111.42677268149299
H          109.91210866728331      112.68783404840029      111.47848285054688
C          110.64123105963814      110.63519937308713      108.81237960653368
H          108.88202997418382      111.23575071893332      109.87014471502656
H          109.66861603137281      112.52234202548658      108.95444449613488
N          110.74746446557542      109.44249727074961      109.41410645274472
C          111.53418064498807      108.35743252801676      108.87369725160592
H          110.24842408136023      109.28121035051403      110.28074170577557
O          113.50130864376884      115.67368624640585      111.68489010218124
C          112.36411008676572      107.66591274875556      109.95260267916633
H          110.87452591134624      107.62271581087596      108.39162624993416
H          112.18452487382508      108.78660915786290      108.10715713902917
C          113.24149947787795      106.57457667541972      109.34020829803106
H          112.98525787058152      108.40641223578518      110.45944777808833
H          111.68291039287024      107.23120713574934      110.68531366145157
C          113.94433889787130      105.67202091838884      110.35719879934234
H          112.62783446395483      105.95707053732325      108.68350768042473
H          114.00302093176828      107.05001372058186      108.72016967248844
C          113.00999813678645      104.91273338670669      111.30511040851400
H          114.53932531800476      104.94682382482902      109.80003666427922
H          114.63773993200036      106.26517280286697      110.95561225285589
C          111.88492926009457      104.19414848158775      110.56668520266565
H          113.60081279148071      104.17306084907277      111.84833882977765
H          112.57690888733701      105.59379120165660      112.03845435939385
N          111.11499930485141      103.32944959698183      111.43509573416304
H          111.20469867917275      104.92421723877118      110.11201464921861
H          112.29482476673509      103.55744754015903      109.77846785204214
O          111.14029669329739      110.86899233894933      107.71649876940450
C          110.80493126003556      102.07064733825905      111.07522145304675
H          110.79756553208054      103.71447999092398      112.31498579128414
C          109.91340225222093      101.31019547791874      112.03804605969512
C          110.75135149985374      100.39156322692220      112.93481030596045
H          109.31470000833403      101.99599930751228      112.63579125416237
H          109.24547628992291      100.69326474944592      111.43478813445314
C          111.53584227435127      101.14525764629204      114.00570671179490
H          110.09120217771780       99.66889418310002      113.41970560107346
H          111.44512495160632       99.83676257823798      112.30089248490781
C          110.61766637403645      101.78752426878359      115.04971028416568
H          112.19627747864104      100.44204657373380      114.51782074339491
H          112.15611993228651      101.91457711951234      113.54168994328937
C          111.43820034689723      102.31164614155918      116.20998416893127
H          110.04081126142889      102.60059062992143      114.61424734607924
H          109.93625202135466      101.02645754664559      115.43677635106459
N          111.43686566995488      103.64251404630873      116.34100010026312
O          111.21435805678779      101.56447017957804      110.04367030730042
C          112.19339667595929      104.34097570711977      117.35522295216474
H          111.03200483126683      104.20860630909853      115.60157846617470
C          112.98604966392969      105.50308181050904      116.76530430504681
H          111.50844098636883      104.73224248118051      118.11866892192548
H          112.85086044623934      103.61489990506911      117.83759684127466
C          113.96171358439484      105.08140502207473      115.66628772328035
H          112.28419316642140      106.23316555035956      116.35859306315147
H          113.53614269101863      105.98563073536080      117.57419005262794
C          114.97922155324940      104.04877102992255      116.15820238944156
H          113.40849005687271      104.68460100581112      114.81385280196072
H          114.48923933760548      105.97498471022257      115.32879979589852
C          116.36423214439193      104.20138905599956      115.53473425604548
H          115.09848225382204      104.16359879968873      117.23844242641029
H          114.60033288105126      103.04272211536129      115.97034921896676
C          116.42092222795284      104.01414323502348      114.02186431393093
H          116.76327679293911      105.18765082416752      115.77999967036494
H          117.02765631991259      103.45949886249920      115.98430397210994
N          117.81618746804536      103.92504562124046      113.63585686753264
H          115.89933441686637      103.09520548236111      113.72986762052534
H          115.94986573981093      104.85100946597547      113.49665978831115
C          118.28409398770272      103.83513052781672      112.39317597054034
H          118.48789783359398      104.01922996992664      114.39457030570554
O          112.03221164222764      101.55865260041037      116.97260720521021
C          119.79479021698927      103.76804147668258      112.32461638353202
C          120.40891517320107      105.12117906193035      111.94455962937204
H          120.17522952472947      103.47120102851892      113.30290632698384
H          120.09269492896954      103.02181490170487      111.58545022099908
C          121.90495804456452      105.11234764455062      112.26393965639294
H          120.25021919876680      105.29789789854529      110.88042765021461
H          119.89794807391650      105.92142153165713      112.48357314844088
C          122.68446523441207      106.20299724363412      111.52514679796130
H          122.04169031857116      105.23903559887175      113.33932793540519
H          122.31308717779422      104.13863551544068      111.98673903460035
C          124.08671550035336      106.37032173799983      112.07235268608575
H          122.73769936010012      105.97505739111165      110.46291373204188
H          122.16658862156527      107.15785647888873      111.65279739378568
N          125.07629863140572      106.31185896860924      111.17604956705446
C          126.46719647395790      106.46828040136681      111.55123561370218
H          124.85139808653797      106.16808634062650      110.19493932623402
O          117.56891192511385      103.77648706199955      111.39027429988325
C          127.35229075648540      105.39315843377200      110.92739451921521
H          126.82337662363425      107.46305549366679      111.25670549742379
H          126.51353648370809      106.40526079011262      112.64066677389896
C          127.03287466537932      103.99459179230583      111.47616993539297
H          127.21890596989253      105.41707409445173      109.84520891142985
H          128.39132456277579      105.65165424342952      111.13344268106674
C          126.89449566710533      102.92749831955190      110.38778254905471
H          127.81670048204082      103.68827062131808      112.17040169428145
H          126.10734773631508      104.03918537164577      112.05066188977017
C          125.70015718320712      103.14013310046053      109.45507966345609
H          127.80858734159486      102.91331839711648      109.79017838971332
H          126.79718881295618      101.94925097341586      110.86386604298531
C          124.35902789827165      102.96852091712555      110.16032868027146
H          125.73458350939343      104.14158993776373      109.02328550410354
H          125.76154059937720      102.42810397030352      108.63000812086568
N          123.27932491136059      103.41952231646376      109.31074772887821
H          124.17163808249485      101.91995280098433      110.40077208757224
H          124.35335736805386      103.53763439564982      111.09716929699977
C          122.04118454499040      102.90266659838642      109.37519311404087
H          123.44677979768268      104.26794379792013      108.78410885374129
O          124.30546303447241      106.56750610093886      113.26710002397910
C          121.05049846429340      103.55569336105300      108.42750781470828
C          119.94480286465154      102.58700688385633      108.01776304970825
H          120.61069423135297      104.40286034260238      108.95675501711335
H          121.57476681802736      103.94027032094485      107.55155075975847
C          118.86214701525836      103.24896792936728      107.16972054453045
H          120.39029855748964      101.76453031270130      107.45399873769078
H          119.49561448405319      102.16558660821097      108.91782559672093
C          118.01096284762293      104.23985216788748      107.97219417051227
H          119.32124720782359      103.77144223861472      106.32677960979912
H          118.20708173464070      102.47373414557642      106.76644222428179
C          116.98214676509399      104.84974540701384      107.05190540591842
H          117.53417325791143      103.73368119859032      108.80946194335077
H          118.63758681832877      105.04290994405484      108.35712576960987
N          115.77502230625036      104.29134732728662      107.10665955502306
O          121.73947360838065      101.99713153508128      110.13687694072735
C          114.64640126153758      104.67697595913118      106.28347228024832
H          115.61769926455544      103.55229755224234      107.78380394794917
C          113.60431832876792      103.56379622188290      106.28269236192425
H          114.21353265668689      105.60792487463384      106.66759307643885
H          114.99734385660261      104.86364096896722      105.26370768891773
C          112.36414116699878      103.90109265133772      105.45347369585863
H          114.06662326267359      102.66198107033685      105.87750700495714
H          113.30867457576663      103.34458797798358      107.31047606709612
C          111.48269517809371      104.97116446922008      106.10015125234078
H          112.67852082879976      104.22301104630735      104.45950007629344
H          111.77412917758204      102.98897674218099      105.34131988867637
C          110.09161729902111      105.06586167993552      105.47183442535233
H          111.35501089352837      104.71349717057421      107.15387227000006
H          111.96915949975379      105.94593962374742      106.04373045767825
C          110.10626147664516      105.62650700901322      104.04919288861718
H          109.63937245981022      104.07053176255353      105.45930931642441
H          109.46080977767045      105.71020253265269      106.08841358664876
N          108.77938452185701      105.60995359501675      103.47152161657964
H          110.43441374088474      106.66776919617345      104.04934042432384
H          110.77762668953760      105.03924585359383      103.41632918053436
C          108.10432485836954      106.71733628824938      103.10977143084850
H          108.33136224923382      104.71075293610279      103.39499275835200
O          117.27602592324892      105.77623454396580      106.29192153160371
C          106.68922407702662      106.47194110321072      102.61636962533173
C          105.71051920104193      106.80235895875865      103.75082737446127
H          106.51498838956748      107.14043523766588      101.77358541663912
H          106.55407104629043      105.44366206266933      102.27929751603648
C          104.27481973826967      107.03014043410379      103.27774810683928
H          105.72424572965311      105.98807186132207      104.47938082667274
H          106.05219625022380      107.70679059971172      104.25703478810784
C          104.11599013026927      108.34763159352147      102.51240517339957
H          103.94879233881137      106.19860661341595      102.64962999016197
H          103.62818830887618      107.07189843903400      104.15584402801643
C          104.50898785422739      109.51287406637844      103.40385360152510
H          104.70389556090662      108.33885155481556      101.59797929378800
H          103.06440053239044      108.47496039283243      102.24488448387082
N          105.45510088804824      110.35342991233972      102.98467114975308
C          106.19141091896408      110.38130557732524      101.73760865716844
H          105.71238812369670      111.08512502528994      103.65738880269639
O          108.56978322401027      107.83829130057053      103.19961132280214
C          107.01665331163750      111.66714369014296      101.67760040819653
H          106.85845415973331      109.51455863134323      101.66806233056650
H          105.49183254388251      110.35461790315462      100.89260745549734
C          107.41492213094496      112.06915171129037      100.25953013652097
H          106.42546716792579      112.47539266560230      102.11114156727025
H          107.90757179453360      111.53629914054979      102.29136943701745
C          108.12044475178898      113.42831095574000      100.23948457732938
H          108.06671153444515      111.31080409485698       99.82303429244614
H          106.51347449438555      112.12987826643747       99.64508753301497
C          109.56985050304725      113.34710378526287      100.71303595519279
H          108.10068686624386      113.83470291226432       99.22638860428223
H          107.56679437316363      114.11987287967911      100.87942918924563
C          110.15821620092194      114.72810632604498      101.00339695323335
H          109.64250415155075      112.74457248383779      101.61819420938595
H          110.17610833450190      112.85558906442306       99.95079903381517
N          111.50647976930925      114.58193862101230      101.49723310145046
H          110.14909135640484      115.33583960538765      100.09599477885078
H          109.53970665767923      115.23935221046777      101.75511369013738
C          112.57084095883931      115.35620335496851      101.26835800179673
H          111.66579610433106      113.74939994809651      102.07479352826277
O          103.96644663243310      109.68703836383658      104.49439734720451
C          112.35912058002940      116.61557176863575      100.44877051372551
C          113.64212805591085      117.43548393910221      100.36192846523022
H          112.03347906481598      116.32965763158226       99.44455789272729
H          111.56144079376837      117.20403110360668      100.90582573784313
C          113.48144030113652      118.63853612532743       99.44097465570994
H          113.92575298654003      117.75666998506570      101.36487397236053
H          114.44485526956989      116.79958968012650       99.98437970483718
C          114.78303014053310      119.43456589769436       99.32811704355201
H          113.19811370000888      118.29008043911200       98.44557093255791
H          112.69017173372256      119.29421345870712       99.81536395633647
C          114.61955592006684      120.55162322093918       98.31865508111079
H          115.05008650524316      119.86368533439945      100.29515455212315
H          115.58301048733047      118.77417676736050       98.99352615220715
N          114.65559992600816      120.14065823159443       97.04924192109959
O          113.67734026894502      115.04809442441433      101.69679016676434
C          114.54483586232216      121.03570329769998       95.92326667592387
H          114.82116256459355      119.15904300770688       96.85145861188361
C          115.81518543279539      121.03308997075312       95.07316137690258
H          113.68726816771529      120.73983098973684       95.30846563912792
H          114.36170166005155      122.03500196133669       96.32722812013726
C          117.04444943930159      121.42590496344624       95.89142815821170
H          115.95850593919521      120.03647151346405       94.65479843962557
H          115.67889711395189      121.73462274583042       94.24775508649792
C          118.26107356966433      121.73259908176210       95.01976037623368
H          116.80627320385827      122.30799409031191       96.49194764741858
H          117.28824121796096      120.61218083115239       96.57683359030941
C          118.72184287258915      120.52414928503485       94.20475363908301
H          118.02064886585426      122.56076972343183       94.34865077473187
H          119.08173497030644      122.05664883337644       95.66737626730072
C          120.08966329677568      120.74027585007117       93.55734900464147
H          118.77098001979472      119.65364934604310       94.86033735189498
H          118.00478852365104      120.31360801082128       93.41168079689270
N          119.97578511827210      121.63094990673972       92.40951748609254
H          120.79695666854067      121.11132762759159       94.31774288566591
H          120.46715339989545      119.78390506327220       93.18367188797770
H          120.87619858928554      121.73116460633864       91.95376216099372
H          119.68487001270761      122.55328369609508       92.71559801561459
O          114.43346259090737      121.71673670150838       98.65266013031415
C          106.83390249416829      122.02479935220774      125.69954267827238
C          107.96412772300896      122.83730493627799      126.29084932050493
C          106.65118284444027      122.37326631651587      124.21582433692177
C          107.72281185003676      121.72796445769637      123.34013066746351
H          105.66009587498547      122.04371110634160      123.89466037095843
H          106.68454874340654      123.45833937860884      124.09708674211623
C          107.37573209102190      121.79248923373368      121.85009313557434
H          108.67379700170025      122.22822705197470      123.52299349614502
H          107.84482469264165      120.68076267770142      123.62274757977210
C          108.40895487341086      121.03082582983870      121.03812291507644
H          106.40546467258137      121.31986592823885      121.68166546861458
H          107.31639335908841      122.82250272654788      121.50724752983527
N          109.06881158787758      121.76149266843116      120.13701879068086
O          107.51678545309841      123.90350632202401      126.92883399534581
O          109.13418186495343      122.56223939429486      126.18044386694240
H          108.25785368684251      124.42284361262786      127.36432956442945
H          105.92726318955108      122.25455908731435      126.25668746423788
H          107.06677280447880      120.96460780592022      125.80254062611377
C          110.12431303427957      121.19648543280161      119.31938854329917
H          108.91793991898952      122.76507371110273      120.10686385736263
C          110.50844308912330      122.09870241096742      118.15141467836729
H          111.00655829051463      121.01243680592843      119.94499374458640
H          109.77678173288113      120.22644049286478      118.94971246124653
C          110.86743692016439      123.51372972347033      118.59991268482786
H          111.36103992951259      121.64060039509279      117.64566985410895
H          109.68589385035320      122.14242222774722      117.43614194700088
C          111.54613677954440      124.34190245125974      117.51034463376268
H          109.96541532459068      124.03842615567358      118.91254652685240
H          111.53404703912466      123.46700709896061      119.46241509261412
C          111.48238219131187      125.82503394410581      117.87594150123159
H          112.58642567215917      124.03125782675137      117.40184753785707
H          111.04940372454294      124.17749561174605      116.55114716529582
C          112.49049779194814      126.67951505261748      117.12293192400604
H          110.47526181819633      126.19824482365530      117.68408922837017
H          111.67665708602621      125.93126432556123      118.94368422298623
N          113.80693816285313      126.55551307466482      117.71403042571472
H          112.54979294540826      126.38305170215625      116.07195466408571
H          112.18576361893952      127.73351998384874      117.15357546461567