      -----------------------------------------------------------      
     |                   =====================                   |     
     |                           x T B                           |     
     |                   =====================                   |     
     |                         S. Grimme                         |     
     |          Mulliken Center for Theoretical Chemistry        |     
     |                    University of Bonn                     |     
      -----------------------------------------------------------      

   * xtb version 6.6.1 (8d0f1dd) compiled by 'stahn@M-Bot' on 2023-08-01

   xtb is free software: you can redistribute it and/or modify it under
   the terms of the GNU Lesser General Public License as published by
   the Free Software Foundation, either version 3 of the License, or
   (at your option) any later version.
   
   xtb is distributed in the hope that it will be useful,
   but WITHOUT ANY WARRANTY; without even the implied warranty of
   MERCHANTABILITY or FITNESS FOR A PARTICULAR PURPOSE.  See the
   GNU Lesser General Public License for more details.
   
   Cite this work as:
   * C. Bannwarth, E. Caldeweyher, S. Ehlert, A. Hansen, P. Pracht,
     J. Seibert, S. Spicher, S. Grimme, WIREs Comput. Mol. Sci., 2020, 11,
     e01493. DOI: 10.1002/wcms.1493
   
   for GFN2-xTB:
   * C. Bannwarth, S. Ehlert and S. Grimme., J. Chem. Theory Comput., 2019,
     15, 1652-1671. DOI: 10.1021/acs.jctc.8b01176
   for GFN1-xTB:
   * S. Grimme, C. Bannwarth, P. Shushkov, J. Chem. Theory Comput., 2017,
     13, 1989-2009. DOI: 10.1021/acs.jctc.7b00118
   for GFN0-xTB:
   * P. Pracht, E. Caldeweyher, S. Ehlert, S. Grimme, ChemRxiv, 2019, preprint.
     DOI: 10.26434/chemrxiv.8326202.v1
   for GFN-FF:
   * S. Spicher and S. Grimme, Angew. Chem. Int. Ed., 2020, 59, 15665-15673.
     DOI: 10.1002/anie.202004239
   
   for ALPB and GBSA implicit solvation:
   * S. Ehlert, M. Stahn, S. Spicher, S. Grimme, J. Chem. Theory Comput.,
     2021, 17, 4250-4261. DOI: 10.1021/acs.jctc.1c00471
   
   for DFT-D4:
   * E. Caldeweyher, C. Bannwarth and S. Grimme, J. Chem. Phys., 2017,
     147, 034112. DOI: 10.1063/1.4993215
   * E. Caldeweyher, S. Ehlert, A. Hansen, H. Neugebauer, S. Spicher,
     C. Bannwarth and S. Grimme, J. Chem. Phys., 2019, 150, 154122.
     DOI: 10.1063/1.5090222
   * E. Caldeweyher, J.-M. Mewes, S. Ehlert and S. Grimme, Phys. Chem. Chem. Phys.
     2020, 22, 8499-8512. DOI: 10.1039/D0CP00502A
   
   for sTDA-xTB:
   * S. Grimme and C. Bannwarth, J. Chem. Phys., 2016, 145, 054103.
     DOI: 10.1063/1.4959605
   
   in the mass-spec context:
   * V. Asgeirsson, C. Bauer and S. Grimme, Chem. Sci., 2017, 8, 4879.
     DOI: 10.1039/c7sc00601b
   * J. Koopman and S. Grimme, ACS Omega 2019, 4, 12, 15120-15133.
     DOI: 10.1021/acsomega.9b02011
   
   for metadynamics refer to:
   * S. Grimme, J. Chem. Theory Comput., 2019, 155, 2847-2862
     DOI: 10.1021/acs.jctc.9b00143
   
   for SPH calculations refer to:
   * S. Spicher and S. Grimme, J. Chem. Theory Comput., 2021, 17, 1701-1714
     DOI: 10.1021/acs.jctc.0c01306
   
   with help from (in alphabetical order)
   P. Atkinson, C. Bannwarth, F. Bohle, G. Brandenburg, E. Caldeweyher
   M. Checinski, S. Dohm, S. Ehlert, S. Ehrlich, I. Gerasimov, C. Hölzer
   A. Katbashev, J. Koopman, C. Lavigne, S. Lehtola, F. März, M. Müller,
   F. Musil, H. Neugebauer, J. Pisarek, C. Plett, P. Pracht, F. Pultar,
   J. Seibert, P. Shushkov, S. Spicher, M. Stahn, M. Steiner, T. Strunk,
   J. Stückrath, T. Rose, and J. Unsleber
   
 * started run on 2024/06/21 at 13:22:39.498     

           -------------------------------------------------
          |                Calculation Setup                |
           -------------------------------------------------

          program call               : /home/abt-grimme/AK-bin/xtb input.xyz --input input.inp --opt --gbsa water
          hostname                   : boar040.thch.uni-bonn.de
          coordinate file            : input.xyz
          omp threads                :                     8

   ID    Z sym.   atoms
    1    6 C      1-90, 273-362, 545-634, 817-906, 1089-1178, 1361-1450,
                  1633-1722, 1905-1994, 2177-2266, 2449-2538, 2721-2810,
                  2993-3082, 3265-3354
    2    1 H      91-272, 363-544, 635-816, 907-1088, 1179-1360, 1451-1632,
                  1723-1904, 1995-2176, 2267-2448, 2539-2720, 2811-2992,
                  3083-3264, 3355-3536

molecular fragmentation (1/2 indicates fragments):
111111111111111111111111111111111111111111111111111111111111111111111111
111111111111111111111111111111111111111111111111111111111111111111111111
111111111111111111111111111111111111111111111111111111111111111111111111
111111111111111111111111111111111111111111111111111111112222222222222222
222222222222222222222222222222222222222222222222222222222222222222222222
222222222222222222222222222222222222222222222222222222222222222222222222
222222222222222222222222222222222222222222222222222222222222222222222222
222222222222222222222222222222222222222222222222222222222222222222222222
222222222222222222222222222222222222222222222222222222222222222222222222
222222222222222222222222222222222222222222222222222222222222222222222222
222222222222222222222222222222222222222222222222222222222222222222222222
222222222222222222222222222222222222222222222222222222222222222222222222
222222222222222222222222222222222222222222222222222222222222222222222222
222222222222222222222222222222222222222222222222222222222222222222222222
222222222222222222222222222222222222222222222222222222222222222222222222
222222222222222222222222222222222222222222222222222222222222222222222222
222222222222222222222222222222222222222222222222222222222222222222222222
222222222222222222222222222222222222222222222222222222222222222222222222
222222222222222222222222222222222222222222222222222222222222222222222222
222222222222222222222222222222222222222222222222222222222222222222222222
222222222222222222222222222222222222222222222222222222222222222222222222
222222222222222222222222222222222222222222222222222222222222222222222222
222222222222222222222222222222222222222222222222222222222222222222222222
222222222222222222222222222222222222222222222222222222222222222222222222
222222222222222222222222222222222222222222222222222222222222222222222222
222222222222222222222222222222222222222222222222222222222222222222222222
222222222222222222222222222222222222222222222222222222222222222222222222
222222222222222222222222222222222222222222222222222222222222222222222222
222222222222222222222222222222222222222222222222222222222222222222222222
222222222222222222222222222222222222222222222222222222222222222222222222
222222222222222222222222222222222222222222222222222222222222222222222222
222222222222222222222222222222222222222222222222222222222222222222222222
222222222222222222222222222222222222222222222222222222222222222222222222
222222222222222222222222222222222222222222222222222222222222222222222222
222222222222222222222222222222222222222222222222222222222222222222222222
222222222222222222222222222222222222222222222222222222222222222222222222
222222222222222222222222222222222222222222222222222222222222222222222222
222222222222222222222222222222222222222222222222222222222222222222222222
222222222222222222222222222222222222222222222222222222222222222222222222
222222222222222222222222222222222222222222222222222222222222222222222222
222222222222222222222222222222222222222222222222222222222222222222222222
222222222222222222222222222222222222222222222222222222222222222222222222
222222222222222222222222222222222222222222222222222222222222222222222222
222222222222222222222222222222222222222222222222222222222222222222222222
222222222222222222222222222222222222222222222222222222222222222222222222
222222222222222222222222222222222222222222222222222222222222222222222222
222222222222222222222222222222222222222222222222222222222222222222222222
222222222222222222222222222222222222222222222222222222222222222222222222
222222222222222222222222222222222222222222222222222222222222222222222222
22222222
# atoms in fragment 1/2:   272  3264
 fragment masses (1/2) :     1264.41    15172.94
CMA distance (Bohr)    :  13.891
constraining FC (au)   :  0.0500

           -------------------------------------------------
          |                 G F N 2 - x T B                 |
           -------------------------------------------------

        Reference                      10.1021/acs.jctc.8b01176
      * Hamiltonian:
        H0-scaling (s, p, d)           1.850000    2.230000    2.230000
        zeta-weighting                 0.500000
      * Dispersion:
        s8                             2.700000
        a1                             0.520000
        a2                             5.000000
        s9                             5.000000
      * Repulsion:
        kExp                           1.500000    1.000000
        rExp                           1.000000
      * Coulomb:
        alpha                          2.000000
        third order                    shell-resolved
        anisotropic                    true
        a3                             3.000000
        a5                             4.000000
        cn-shift                       1.200000
        cn-exp                         4.000000
        max-rad                        5.000000

      * Solvation model:               GBSA
        Solvent                        water
        Parameter file                 internal GFN2-xTB/GBSA
        Dielectric constant                8.0200E+01
        Reference state                gsolv [1 M gas/solution]
        Free energy shift                  1.8574E-03 Eh       1.1656E+00 kcal/mol
        Temperature                        2.9815E+02 K
        Density                            1.0000E+00 kg/L
        Solvent mass                       1.8000E+01 g/mol
        Interaction kernel             Still
        Born radius scaling (c1)           1.5524E+00
        Born radii integrator          GBOBC
        Born offset                        2.4628E-02 a0       4.6540E-02 AA
        H-bond correction              true
        Ion screening                  false
        Surface tension                    1.0000E-05 Eh       1.5569E+01 dyn/cm
        Grid points                               230 per atom
q/qsh data taken from xtbrestart
CAMM data taken from xtbrestart

          ...................................................
          :                      SETUP                      :
          :.................................................:
          :  # basis functions                7046          :
          :  # atomic orbitals                7046          :
          :  # shells                         4706          :
          :  # electrons                      7046          :
          :  max. iterations                   250          :
          :  Hamiltonian                  GFN2-xTB          :
          :  restarted?                       true          :
          :  GBSA solvation                   true          :
          :  PC potential                    false          :
          :  electronic temp.          300.0000000     K    :
          :  accuracy                    1.0000000          :
          :  -> integral cutoff          0.2500000E+02      :
          :  -> integral neglect         0.1000000E-07      :
          :  -> SCF convergence          0.1000000E-05 Eh   :
          :  -> wf. convergence          0.1000000E-03 e    :
          :  Broyden damping             0.4000000          :
          ...................................................

 iter      E             dE          RMSdq      gap      omega  full diag
   1  -3764.2144400 -0.376421E+04  0.335E-05   10.55       0.0  T
   2  -3764.2144400 -0.667114E-09  0.248E-05   10.55      67.7  T
   3  -3764.2144400 -0.773980E-09  0.122E-05   10.55     137.9  T

   *** convergence criteria satisfied after 3 iterations ***

         #    Occupation            Energy/Eh            Energy/eV
      -------------------------------------------------------------
         1        2.0000           -0.6175052             -16.8032
       ...           ...                  ...                  ...
      3517        2.0000           -0.3765680             -10.2469
      3518        2.0000           -0.3759063             -10.2289
      3519        2.0000           -0.3754819             -10.2174
      3520        2.0000           -0.3750379             -10.2053
      3521        2.0000           -0.3744646             -10.1897
      3522        2.0000           -0.3735922             -10.1660
      3523        2.0000           -0.3732559             -10.1568 (HOMO)
      3524                          0.0144428               0.3930 (LUMO)
      3525                          0.0163169               0.4440
      3526                          0.0166031               0.4518
      3527                          0.0175566               0.4777
      3528                          0.0175599               0.4778
       ...                                ...                  ...
      7046                          0.3683676              10.0238
      -------------------------------------------------------------
                  HL-Gap            0.3876987 Eh           10.5498 eV
             Fermi-level           -0.1794066 Eh           -4.8819 eV

 SCC (total)                   0 d,  0 h,  8 min, 10.253 sec
 SCC setup                      ...        0 min,  2.002 sec (  0.408%)
 Dispersion                     ...        0 min,  4.347 sec (  0.887%)
 classical contributions        ...        0 min,  0.138 sec (  0.028%)
 integral evaluation            ...        0 min,  7.009 sec (  1.430%)
 iterations                     ...        3 min, 46.637 sec ( 46.229%)
 molecular gradient             ...        3 min, 59.006 sec ( 48.752%)
 printout                       ...        0 min, 11.114 sec (  2.267%)

         :::::::::::::::::::::::::::::::::::::::::::::::::::::
         ::                     SUMMARY                     ::
         :::::::::::::::::::::::::::::::::::::::::::::::::::::
         :: total energy           -3715.380266317380 Eh    ::
         :: total w/o Gsasa/hb     -3715.269467521807 Eh    ::
         :: gradient norm              0.665570060786 Eh/a0 ::
         :: HOMO-LUMO gap             10.549818848295 eV    ::
         ::.................................................::
         :: SCC energy             -3764.214440014091 Eh    ::
         :: -> isotropic ES            0.440260121872 Eh    ::
         :: -> anisotropic ES          1.491074289818 Eh    ::
         :: -> anisotropic XC          2.304666527757 Eh    ::
         :: -> dispersion             -4.694674936972 Eh    ::
         :: -> Gsolv                  -0.048041013838 Eh    ::
         ::    -> Gelec                0.062757781735 Eh    ::
         ::    -> Gsasa               -0.106202843185 Eh    ::
         ::    -> Ghb                 -0.006453395515 Eh    ::
         ::    -> Gshift               0.001857443127 Eh    ::
         :: repulsion energy          48.112415671821 Eh    ::
         :: add. restraining           0.000000000000 Eh    ::
         :: total charge              -0.000000000007 e     ::
         :::::::::::::::::::::::::::::::::::::::::::::::::::::

      ----------------------------------------------------------- 
     |              Fast Inertial Relaxation Engine              |
      ----------------------------------------------------------- 

          ...................................................
          :                      SETUP                      :
          :.................................................:
          :   energy convergence        0.5000000E-05 Eh    :
          :   grad. convergence         0.1000000E-02 Eh/a0 :
          :   optimization log               true           :
          :   writing optlog all                1     steps :
          :   Hessian reset                    20     steps :
          :   time step scaling                 5     steps :
          :   maximium step len.        1.0000000     a0    :
          :   initial time step         0.2500000     fs    :
          :   maximum time step         1.2500000     fs    :
          :   power reset thr           0.0000000     au    :
          :   alpha parameter           0.1000000           :
          :   BFGS update                   false           :
          :   preconditioning               false           :
          ...................................................

........................................................................
.............................. CYCLE    1 ..............................
........................................................................

 iter      E             dE          RMSdq      gap      omega  full diag
   1  -3764.4770073 -0.376448E+04  0.759E-03   10.56       0.0  T
   2  -3764.4770506 -0.433167E-04  0.412E-03   10.56       1.0  T
   3  -3764.4770513 -0.678673E-06  0.178E-03   10.56       1.0  T
   4  -3764.4770518 -0.512975E-06  0.437E-04   10.56       3.8  T
   5  -3764.4770521 -0.263828E-06  0.174E-04   10.56       9.7  T
     SCC iter.                  ...        6 min,  9.282 sec
     gradient                   ...        3 min, 59.250 sec
 * total energy  : -3715.4306508 Eh     change    :  -0.5038449E-01 Eh
   gradient norm :     0.6331726 Eh/a0  converged?    E=F G=F D=F
   time step     :     0.2500000 fs     power     :   0.2607854E-05
   step length   :     0.0780034 a0     speed     :   0.7547247E-02

........................................................................
.............................. CYCLE    2 ..............................
........................................................................

 iter      E             dE          RMSdq      gap      omega  full diag
   1  -3764.8643832 -0.376486E+04  0.112E-02   10.58       0.0  T
   2  -3764.8644765 -0.933006E-04  0.605E-03   10.57       1.0  T
   3  -3764.8644780 -0.151074E-05  0.261E-03   10.57       1.0  T
   4  -3764.8644791 -0.110694E-05  0.648E-04   10.57       2.6  T
   5  -3764.8644796 -0.576006E-06  0.268E-04   10.57       6.3  T
   6  -3764.8644797 -0.424711E-07  0.121E-04   10.57      13.9  T
     SCC iter.                  ...        7 min, 21.726 sec
     gradient                   ...        3 min, 58.134 sec
 * total energy  : -3715.5006189 Eh     change    :  -0.6996814E-01 Eh
   gradient norm :     0.5871987 Eh/a0  converged?    E=F G=F D=F
   time step     :     0.2500000 fs     power     :   0.3569733E-05
   step length   :     0.1149639 a0     speed     :   0.1112338E-01

........................................................................
.............................. CYCLE    3 ..............................
........................................................................

 iter      E             dE          RMSdq      gap      omega  full diag
   1  -3765.3667055 -0.376537E+04  0.144E-02   10.59       0.0  T
   2  -3765.3668584 -0.152872E-03  0.780E-03   10.59       1.0  T
   3  -3765.3668609 -0.250818E-05  0.334E-03   10.59       1.0  T
   4  -3765.3668627 -0.179490E-05  0.833E-04   10.59       2.0  T
   5  -3765.3668636 -0.948360E-06  0.348E-04   10.59       4.8  T
   6  -3765.3668637 -0.685100E-07  0.153E-04   10.59      11.0  T
     SCC iter.                  ...        7 min, 19.059 sec
     gradient                   ...        3 min, 56.843 sec
 * total energy  : -3715.5836134 Eh     change    :  -0.8299444E-01 Eh
   gradient norm :     0.5292461 Eh/a0  converged?    E=F G=F D=F
   time step     :     0.2500000 fs     power     :   0.4164198E-05
   step length   :     0.1492543 a0     speed     :   0.1444115E-01

........................................................................
.............................. CYCLE    4 ..............................
........................................................................

 iter      E             dE          RMSdq      gap      omega  full diag
   1  -3765.9712924 -0.376597E+04  0.172E-02   10.61       0.0  T
   2  -3765.9715055 -0.213035E-03  0.930E-03   10.61       1.0  T
   3  -3765.9715091 -0.360920E-05  0.393E-03   10.61       1.0  T
   4  -3765.9715115 -0.245330E-05  0.983E-04   10.61       1.7  T
   5  -3765.9715128 -0.130595E-05  0.421E-04   10.61       4.0  T
   6  -3765.9715129 -0.975101E-07  0.180E-04   10.61       9.3  T
   7  -3765.9715130 -0.458508E-07  0.117E-04   10.60      14.3  T
     SCC iter.                  ...        8 min, 29.930 sec
     gradient                   ...        3 min, 59.713 sec
 * total energy  : -3715.6721077 Eh     change    :  -0.8849433E-01 Eh
   gradient norm :     0.4629435 Eh/a0  converged?    E=F G=F D=F
   time step     :     0.2500000 fs     power     :   0.4351401E-05
   step length   :     0.1800342 a0     speed     :   0.1741928E-01

........................................................................
.............................. CYCLE    5 ..............................
........................................................................

 iter      E             dE          RMSdq      gap      omega  full diag
   1  -3766.6627093 -0.376666E+04  0.195E-02   10.62       0.0  T
   2  -3766.6629728 -0.263528E-03  0.105E-02   10.62       1.0  T
   3  -3766.6629775 -0.464693E-05  0.436E-03   10.62       1.0  T
   4  -3766.6629804 -0.288327E-05  0.108E-03   10.62       1.6  T
   5  -3766.6629819 -0.154277E-05  0.472E-04   10.62       3.6  T
   6  -3766.6629820 -0.101594E-06  0.185E-04   10.62       9.1  T
   7  -3766.6629821 -0.456607E-07  0.120E-04   10.62      14.1  T
     SCC iter.                  ...        8 min, 35.311 sec
     gradient                   ...        3 min, 59.428 sec
 * total energy  : -3715.7585585 Eh     change    :  -0.8645076E-01 Eh
   gradient norm :     0.3936853 Eh/a0  converged?    E=F G=F D=F
   time step     :     0.2500000 fs     power     :   0.4145662E-05
   step length   :     0.2065835 a0     speed     :   0.1998807E-01

........................................................................
.............................. CYCLE    6 ..............................
........................................................................

 iter      E             dE          RMSdq      gap      omega  full diag
   1  -3767.5061799 -0.376751E+04  0.236E-02   10.63       0.0  T
   2  -3767.5065417 -0.361878E-03  0.127E-02   10.63       1.0  T
   3  -3767.5065488 -0.707124E-05  0.510E-03   10.63       1.0  T
   4  -3767.5065526 -0.375493E-05  0.125E-03   10.63       1.4  T
   5  -3767.5065545 -0.196130E-05  0.579E-04   10.63       2.9  T
   6  -3767.5065547 -0.139833E-06  0.211E-04   10.63       8.0  T
   7  -3767.5065547 -0.573773E-07  0.138E-04   10.63      12.2  T
     SCC iter.                  ...        8 min, 33.025 sec
     gradient                   ...        3 min, 57.806 sec
 * total energy  : -3715.8439608 Eh     change    :  -0.8540235E-01 Eh
   gradient norm :     0.3225068 Eh/a0  converged?    E=F G=F D=F
   time step     :     0.2750000 fs     power     :   0.3540300E-05
   step length   :     0.2535420 a0     speed     :   0.2230141E-01

........................................................................
.............................. CYCLE    7 ..............................
........................................................................

 iter      E             dE          RMSdq      gap      omega  full diag
   1  -3768.4979815 -0.376850E+04  0.274E-02   10.64       0.0  T
   2  -3768.4984258 -0.444268E-03  0.147E-02   10.63       1.0  T
   3  -3768.4984363 -0.104549E-04  0.565E-03   10.63       1.0  T
   4  -3768.4984405 -0.424676E-05  0.134E-03   10.63       1.3  T
   5  -3768.4984425 -0.199571E-05  0.686E-04   10.63       2.5  T
   6  -3768.4984427 -0.179680E-06  0.223E-04   10.63       7.5  T
   7  -3768.4984428 -0.630203E-07  0.151E-04   10.63      11.2  T
     SCC iter.                  ...        8 min, 38.302 sec
     gradient                   ...        3 min, 59.074 sec
 * total energy  : -3715.9188762 Eh     change    :  -0.7491533E-01 Eh
   gradient norm :     0.2655267 Eh/a0  converged?    E=F G=F D=F
   time step     :     0.3025000 fs     power     :   0.2589885E-05
   step length   :     0.3018753 a0     speed     :   0.2413889E-01

........................................................................
.............................. CYCLE    8 ..............................
........................................................................

 iter      E             dE          RMSdq      gap      omega  full diag
   1  -3769.6036772 -0.376960E+04  0.306E-02   10.64       0.0  T
   2  -3769.6041396 -0.462387E-03  0.163E-02   10.64       1.0  T
   3  -3769.6041545 -0.148584E-04  0.579E-03   10.64       1.0  T
   4  -3769.6041584 -0.393869E-05  0.132E-03   10.64       1.3  T
   5  -3769.6041597 -0.123448E-05  0.757E-04   10.64       2.2  T
   6  -3769.6041599 -0.212576E-06  0.211E-04   10.64       8.0  T
   7  -3769.6041599 -0.548976E-07  0.150E-04   10.64      11.2  T
     SCC iter.                  ...        8 min, 38.867 sec
     gradient                   ...        3 min, 58.331 sec
 * total energy  : -3715.9750848 Eh     change    :  -0.5620865E-01 Eh
   gradient norm :     0.2427654 Eh/a0  converged?    E=F G=F D=F
   time step     :     0.3327500 fs     power     :   0.1498883E-05
   step length   :     0.3461885 a0     speed     :   0.2516573E-01

........................................................................
.............................. CYCLE    9 ..............................
........................................................................

 iter      E             dE          RMSdq      gap      omega  full diag
   1  -3770.7407487 -0.377074E+04  0.325E-02   10.65       0.0  T
   2  -3770.7411297 -0.381002E-03  0.175E-02   10.65       1.0  T
   3  -3770.7411484 -0.187016E-04  0.539E-03   10.65       1.0  T
   4  -3770.7411518 -0.333027E-05  0.129E-03   10.65       1.3  T
   5  -3770.7411522 -0.481009E-06  0.746E-04   10.65       2.3  T
   6  -3770.7411524 -0.201239E-06  0.165E-04   10.65      10.2  T
     SCC iter.                  ...        7 min, 21.427 sec
     gradient                   ...        3 min, 57.839 sec
 * total energy  : -3716.0099315 Eh     change    :  -0.3484670E-01 Eh
   gradient norm :     0.2507783 Eh/a0  converged?    E=F G=F D=F
   time step     :     0.3660250 fs     power     :   0.5710657E-06
   step length   :     0.3788539 a0     speed     :   0.2503665E-01

........................................................................
.............................. CYCLE   10 ..............................
........................................................................

 iter      E             dE          RMSdq      gap      omega  full diag
   1  -3771.7957214 -0.377180E+04  0.334E-02   10.67       0.0  T
   2  -3771.7959670 -0.245604E-03  0.185E-02   10.67       1.0  T
   3  -3771.7959829 -0.159301E-04  0.474E-03   10.66       1.0  T
   4  -3771.7959912 -0.826453E-05  0.145E-03   10.66       1.2  T
   5  -3771.7959923 -0.107956E-05  0.817E-04   10.66       2.1  T
   6  -3771.7959924 -0.132150E-06  0.137E-04   10.66      12.3  T
   7  -3771.7959924 -0.214004E-07  0.103E-04   10.66      16.3  T
     SCC iter.                  ...        8 min, 33.569 sec
     gradient                   ...        3 min, 57.277 sec
 * total energy  : -3716.0270888 Eh     change    :  -0.1715734E-01 Eh
   gradient norm :     0.2605408 Eh/a0  converged?    E=F G=F D=F
   time step     :     0.4026275 fs     power     :  -0.3627757E-07
   step length   :     0.3972121 a0     speed     :   0.2386350E-01

........................................................................
.............................. CYCLE   11 ..............................
........................................................................
 * reset velocities

 iter      E             dE          RMSdq      gap      omega  full diag
   1  -3771.7771749 -0.377178E+04  0.105E-03   10.66       0.0  T
   2  -3771.7771758 -0.840588E-06  0.643E-04   10.66       2.6  T
   3  -3771.7771758 -0.113409E-07  0.270E-04   10.66       6.2  T
     SCC iter.                  ...        3 min, 41.399 sec
     gradient                   ...        3 min, 58.077 sec
 * total energy  : -3716.0296370 Eh     change    :  -0.2548143E-02 Eh
   gradient norm :     0.2543173 Eh/a0  converged?    E=F G=F D=F
   time step     :     0.2013138 fs     power     :   0.1659480E-06
   step length   :     0.0098999 a0     speed     :   0.1189526E-02

........................................................................
.............................. CYCLE   12 ..............................
........................................................................

 iter      E             dE          RMSdq      gap      omega  full diag
   1  -3771.7400185 -0.377174E+04  0.210E-03   10.66       0.0  T
   2  -3771.7400217 -0.315344E-05  0.129E-03   10.66       1.3  T
   3  -3771.7400217 -0.278810E-07  0.521E-04   10.66       3.2  T
   4  -3771.7400218 -0.799291E-07  0.135E-04   10.66      12.5  T
     SCC iter.                  ...        5 min,  0.792 sec
     gradient                   ...        3 min, 58.756 sec
 * total energy  : -3716.0344930 Eh     change    :  -0.4855971E-02 Eh
   gradient norm :     0.2421820 Eh/a0  converged?    E=F G=F D=F
   time step     :     0.2013138 fs     power     :   0.3122116E-06
   step length   :     0.0195632 a0     speed     :   0.2350614E-02

........................................................................
.............................. CYCLE   13 ..............................
........................................................................

 iter      E             dE          RMSdq      gap      omega  full diag
   1  -3771.6854716 -0.377169E+04  0.302E-03   10.67       0.0  T
   2  -3771.6854787 -0.709502E-05  0.186E-03   10.67       1.0  T
   3  -3771.6854788 -0.101037E-06  0.785E-04   10.67       2.1  T
   4  -3771.6854790 -0.180484E-06  0.206E-04   10.67       8.2  T
     SCC iter.                  ...        5 min,  1.975 sec
     gradient                   ...        4 min,  0.067 sec
 * total energy  : -3716.0412033 Eh     change    :  -0.6710372E-02 Eh
   gradient norm :     0.2246098 Eh/a0  converged?    E=F G=F D=F
   time step     :     0.2013138 fs     power     :   0.4254194E-06
   step length   :     0.0287637 a0     speed     :   0.3456106E-02

........................................................................
.............................. CYCLE   14 ..............................
........................................................................

 iter      E             dE          RMSdq      gap      omega  full diag
   1  -3771.6149695 -0.377161E+04  0.390E-03   10.67       0.0  T
   2  -3771.6149814 -0.118645E-04  0.240E-03   10.67       1.0  T
   3  -3771.6149815 -0.174145E-06  0.102E-03   10.67       1.7  T
   4  -3771.6149819 -0.300744E-06  0.267E-04   10.67       6.3  T
   5  -3771.6149819 -0.892715E-07  0.653E-05   10.67      25.8  T
     SCC iter.                  ...        6 min, 13.617 sec
     gradient                   ...        3 min, 57.468 sec
 * total energy  : -3716.0491516 Eh     change    :  -0.7948300E-02 Eh
   gradient norm :     0.2023666 Eh/a0  converged?    E=F G=F D=F
   time step     :     0.2013138 fs     power     :   0.4958926E-06
   step length   :     0.0372904 a0     speed     :   0.4480625E-02

........................................................................
.............................. CYCLE   15 ..............................
........................................................................

 iter      E             dE          RMSdq      gap      omega  full diag
   1  -3771.5304539 -0.377153E+04  0.467E-03   10.67       0.0  T
   2  -3771.5304710 -0.171248E-04  0.288E-03   10.67       1.0  T
   3  -3771.5304713 -0.256103E-06  0.122E-03   10.67       1.4  T
   4  -3771.5304717 -0.419339E-06  0.320E-04   10.67       5.3  T
   5  -3771.5304718 -0.127407E-06  0.776E-05   10.67      21.7  T
     SCC iter.                  ...        6 min, 10.750 sec
     gradient                   ...        3 min, 57.849 sec
 * total energy  : -3716.0576274 Eh     change    :  -0.8475816E-02 Eh
   gradient norm :     0.1765002 Eh/a0  converged?    E=F G=F D=F
   time step     :     0.2013138 fs     power     :   0.5186514E-06
   step length   :     0.0449538 a0     speed     :   0.5401420E-02

........................................................................
.............................. CYCLE   16 ..............................
........................................................................

 iter      E             dE          RMSdq      gap      omega  full diag
   1  -3771.4344312 -0.377143E+04  0.531E-03   10.68       0.0  T
   2  -3771.4344534 -0.222107E-04  0.327E-03   10.68       1.0  T
   3  -3771.4344538 -0.336513E-06  0.138E-03   10.68       1.2  T
   4  -3771.4344543 -0.533090E-06  0.364E-04   10.68       4.6  T
   5  -3771.4344545 -0.164316E-06  0.886E-05   10.68      19.0  T
     SCC iter.                  ...        6 min,  7.207 sec
     gradient                   ...        3 min, 59.411 sec
 * total energy  : -3716.0659078 Eh     change    :  -0.8280402E-02 Eh
   gradient norm :     0.1485851 Eh/a0  converged?    E=F G=F D=F
   time step     :     0.2013138 fs     power     :   0.4943562E-06
   step length   :     0.0515876 a0     speed     :   0.6198500E-02

........................................................................
.............................. CYCLE   17 ..............................
........................................................................

 iter      E             dE          RMSdq      gap      omega  full diag
   1  -3771.3186209 -0.377132E+04  0.642E-03   10.68       0.0  T
   2  -3771.3186535 -0.326153E-04  0.397E-03   10.68       1.0  T
   3  -3771.3186540 -0.497654E-06  0.167E-03   10.68       1.0  T
   4  -3771.3186547 -0.763349E-06  0.441E-04   10.68       3.8  T
   5  -3771.3186550 -0.239003E-06  0.106E-04   10.68      15.9  T
     SCC iter.                  ...        6 min, 11.350 sec
     gradient                   ...        4 min,  0.395 sec
 * total energy  : -3716.0740600 Eh     change    :  -0.8152168E-02 Eh
   gradient norm :     0.1181949 Eh/a0  converged?    E=F G=F D=F
   time step     :     0.2214451 fs     power     :   0.4205630E-06
   step length   :     0.0633610 a0     speed     :   0.6921030E-02

........................................................................
.............................. CYCLE   18 ..............................
........................................................................

 iter      E             dE          RMSdq      gap      omega  full diag
   1  -3771.1852460 -0.377119E+04  0.746E-03   10.69       0.0  T
   2  -3771.1852901 -0.440933E-04  0.463E-03   10.69       1.0  T
   3  -3771.1852908 -0.672635E-06  0.194E-03   10.69       1.0  T
   4  -3771.1852918 -0.100953E-05  0.513E-04   10.69       3.3  T
   5  -3771.1852921 -0.320829E-06  0.122E-04   10.69      13.7  T
   6  -3771.1852921 -0.112955E-07  0.833E-05   10.69      20.2  T
     SCC iter.                  ...        7 min, 24.384 sec
     gradient                   ...        3 min, 58.826 sec
 * total energy  : -3716.0810973 Eh     change    :  -0.7037319E-02 Eh
   gradient norm :     0.0914568 Eh/a0  converged?    E=F G=F D=F
   time step     :     0.2435896 fs     power     :   0.3007739E-06
   step length   :     0.0755723 a0     speed     :   0.7504451E-02

........................................................................
.............................. CYCLE   19 ..............................
........................................................................

 iter      E             dE          RMSdq      gap      omega  full diag
   1  -3771.0427826 -0.377104E+04  0.818E-03   10.70       0.0  T
   2  -3771.0428349 -0.523663E-04  0.511E-03   10.70       1.0  T
   3  -3771.0428357 -0.758538E-06  0.211E-03   10.70       1.0  T
   4  -3771.0428369 -0.119318E-05  0.559E-04   10.70       3.0  T
   5  -3771.0428373 -0.377150E-06  0.126E-04   10.70      13.4  T
   6  -3771.0428373 -0.983755E-08  0.813E-05   10.70      20.7  T
     SCC iter.                  ...        7 min, 22.380 sec
     gradient                   ...        3 min, 58.640 sec
 * total energy  : -3716.0861036 Eh     change    :  -0.5006263E-02 Eh
   gradient norm :     0.0815972 Eh/a0  converged?    E=F G=F D=F
   time step     :     0.2679486 fs     power     :   0.1594885E-06
   step length   :     0.0868360 a0     speed     :   0.7839054E-02

........................................................................
.............................. CYCLE   20 ..............................
........................................................................

 iter      E             dE          RMSdq      gap      omega  full diag
   1  -3770.9095648 -0.377091E+04  0.821E-03   10.71       0.0  T
   2  -3770.9096147 -0.499319E-04  0.518E-03   10.71       1.0  T
   3  -3770.9096153 -0.612849E-06  0.206E-03   10.71       1.0  T
   4  -3770.9096166 -0.123282E-05  0.550E-04   10.71       3.1  T
   5  -3770.9096169 -0.361742E-06  0.126E-04   10.71      13.4  T
   6  -3770.9096169 -0.814407E-08  0.756E-05   10.71      22.3  T
     SCC iter.                  ...        7 min, 21.120 sec
     gradient                   ...        3 min, 59.301 sec
 * total energy  : -3716.0888879 Eh     change    :  -0.2784261E-02 Eh
   gradient norm :     0.0949272 Eh/a0  converged?    E=F G=F D=F
   time step     :     0.2947435 fs     power     :   0.4802164E-07
   step length   :     0.0945534 a0     speed     :   0.7759760E-02
 * RMSD in coord.:     0.0375016 a0     energy gain  -0.7086215E+00 Eh

........................................................................
.............................. CYCLE   21 ..............................
........................................................................

 iter      E             dE          RMSdq      gap      omega  full diag
   1  -3770.8288457 -0.377083E+04  0.584E-03   10.72       0.0  T
   2  -3770.8288673 -0.216610E-04  0.372E-03   10.72       1.0  T
   3  -3770.8288675 -0.132131E-06  0.135E-03   10.72       1.2  T
   4  -3770.8288682 -0.691531E-06  0.364E-04   10.72       4.6  T
   5  -3770.8288683 -0.160078E-06  0.915E-05   10.72      18.4  T
     SCC iter.                  ...        6 min, 14.033 sec
     gradient                   ...        3 min, 57.818 sec
 * total energy  : -3716.0902051 Eh     change    :  -0.1317275E-02 Eh
   gradient norm :     0.1113367 Eh/a0  converged?    E=F G=F D=F
   time step     :     0.2500000 fs     power     :   0.2806976E-07
   step length   :     0.0750162 a0     speed     :   0.7258219E-02

........................................................................
.............................. CYCLE   22 ..............................
........................................................................

 iter      E             dE          RMSdq      gap      omega  full diag
   1  -3770.7832356 -0.377078E+04  0.483E-03   10.73       0.0  T
   2  -3770.7832457 -0.101383E-04  0.308E-03   10.73       1.0  T
   3  -3770.7832456  0.103839E-06  0.871E-04   10.73       1.9  T
   4  -3770.7832461 -0.535685E-06  0.249E-04   10.73       6.7  T
     SCC iter.                  ...        4 min, 55.884 sec
     gradient                   ...        3 min, 57.684 sec
 * total energy  : -3716.0918011 Eh     change    :  -0.1595934E-02 Eh
   gradient norm :     0.1232345 Eh/a0  converged?    E=F G=F D=F
   time step     :     0.2500000 fs     power     :   0.6120023E-07
   step length   :     0.0698202 a0     speed     :   0.6755479E-02

........................................................................
.............................. CYCLE   23 ..............................
........................................................................

 iter      E             dE          RMSdq      gap      omega  full diag
   1  -3770.7720561 -0.377077E+04  0.422E-03   10.73       0.0  T
   2  -3770.7720592 -0.310555E-05  0.264E-03   10.73       1.0  T
   3  -3770.7720591  0.112041E-06  0.395E-04   10.73       4.3  T
   4  -3770.7720594 -0.322209E-06  0.148E-04   10.73      11.3  T
     SCC iter.                  ...        4 min, 52.096 sec
     gradient                   ...        3 min, 57.932 sec
 * total energy  : -3716.0943452 Eh     change    :  -0.2544098E-02 Eh
   gradient norm :     0.1281238 Eh/a0  converged?    E=F G=F D=F
   time step     :     0.2500000 fs     power     :   0.1220366E-06
   step length   :     0.0662539 a0     speed     :   0.6410421E-02

........................................................................
.............................. CYCLE   24 ..............................
........................................................................

 iter      E             dE          RMSdq      gap      omega  full diag
   1  -3770.7928911 -0.377079E+04  0.413E-03   10.74       0.0  T
   2  -3770.7928916 -0.489689E-06  0.248E-03   10.74       1.0  T
   3  -3770.7928917 -0.952705E-07  0.178E-04   10.74       9.4  T
   4  -3770.7928917 -0.413547E-07  0.999E-05   10.74      16.8  T
     SCC iter.                  ...        4 min, 54.925 sec
     gradient                   ...        3 min, 57.205 sec
 * total energy  : -3716.0980437 Eh     change    :  -0.3698511E-02 Eh
   gradient norm :     0.1259235 Eh/a0  converged?    E=F G=F D=F
   time step     :     0.2500000 fs     power     :   0.1866309E-06
   step length   :     0.0648986 a0     speed     :   0.6279291E-02

........................................................................
.............................. CYCLE   25 ..............................
........................................................................

 iter      E             dE          RMSdq      gap      omega  full diag
   1  -3770.8423917 -0.377084E+04  0.446E-03   10.75       0.0  T
   2  -3770.8423930 -0.128836E-05  0.259E-03   10.75       1.0  T
   3  -3770.8423930 -0.270793E-07  0.356E-04   10.75       4.7  T
   4  -3770.8423931 -0.145066E-06  0.114E-04   10.75      14.7  T
     SCC iter.                  ...        4 min, 51.057 sec
     gradient                   ...        3 min, 56.888 sec
 * total energy  : -3716.1027358 Eh     change    :  -0.4692171E-02 Eh
   gradient norm :     0.1176044 Eh/a0  converged?    E=F G=F D=F
   time step     :     0.2500000 fs     power     :   0.2373495E-06
   step length   :     0.0655820 a0     speed     :   0.6345408E-02

........................................................................
.............................. CYCLE   26 ..............................
........................................................................

 iter      E             dE          RMSdq      gap      omega  full diag
   1  -3770.9256701 -0.377093E+04  0.553E-03   10.76       0.0  T
   2  -3770.9256756 -0.549176E-05  0.315E-03   10.76       1.0  T
   3  -3770.9256755  0.110477E-06  0.754E-04   10.76       2.2  T
   4  -3770.9256760 -0.453334E-06  0.170E-04   10.76       9.9  T
     SCC iter.                  ...        5 min,  0.685 sec
     gradient                   ...        3 min, 57.405 sec
 * total energy  : -3716.1085986 Eh     change    :  -0.5862740E-02 Eh
   gradient norm :     0.1032700 Eh/a0  converged?    E=F G=F D=F
   time step     :     0.2750000 fs     power     :   0.2637605E-06
   step length   :     0.0750213 a0     speed     :   0.6598832E-02

........................................................................
.............................. CYCLE   27 ..............................
........................................................................

 iter      E             dE          RMSdq      gap      omega  full diag
   1  -3771.0442520 -0.377104E+04  0.682E-03   10.76       0.0  T
   2  -3771.0442650 -0.130714E-04  0.386E-03   10.76       1.0  T
   3  -3771.0442649  0.161125E-06  0.113E-03   10.76       1.5  T
   4  -3771.0442656 -0.765864E-06  0.245E-04   10.76       6.9  T
   5  -3771.0442657 -0.948271E-07  0.117E-04   10.76      14.4  T
     SCC iter.                  ...        6 min, 11.672 sec
     gradient                   ...        3 min, 57.889 sec
 * total energy  : -3716.1151041 Eh     change    :  -0.6505466E-02 Eh
   gradient norm :     0.0852790 Eh/a0  converged?    E=F G=F D=F
   time step     :     0.3025000 fs     power     :   0.2556743E-06
   step length   :     0.0872081 a0     speed     :   0.6973434E-02

........................................................................
.............................. CYCLE   28 ..............................
........................................................................

 iter      E             dE          RMSdq      gap      omega  full diag
   1  -3771.1957214 -0.377120E+04  0.809E-03   10.77       0.0  T
   2  -3771.1957437 -0.223085E-04  0.456E-03   10.77       1.0  T
   3  -3771.1957436  0.149173E-06  0.142E-03   10.77       1.2  T
   4  -3771.1957446 -0.996977E-06  0.312E-04   10.77       5.4  T
   5  -3771.1957447 -0.156885E-06  0.130E-04   10.77      12.9  T
     SCC iter.                  ...        6 min,  8.166 sec
     gradient                   ...        3 min, 58.502 sec
 * total energy  : -3716.1214568 Eh     change    :  -0.6352740E-02 Eh
   gradient norm :     0.0701521 Eh/a0  converged?    E=F G=F D=F
   time step     :     0.3327500 fs     power     :   0.2136039E-06
   step length   :     0.1014691 a0     speed     :   0.7376170E-02

........................................................................
.............................. CYCLE   29 ..............................
........................................................................

 iter      E             dE          RMSdq      gap      omega  full diag
   1  -3771.3688245 -0.377137E+04  0.895E-03   10.78       0.0  T
   2  -3771.3688521 -0.275956E-04  0.502E-03   10.77       1.0  T
   3  -3771.3688520  0.900591E-07  0.153E-03   10.77       1.1  T
   4  -3771.3688530 -0.102569E-05  0.348E-04   10.77       4.8  T
   5  -3771.3688532 -0.190605E-06  0.140E-04   10.77      12.1  T
   6  -3771.3688533 -0.177643E-07  0.817E-05   10.77      20.6  T
     SCC iter.                  ...        7 min, 24.445 sec
     gradient                   ...        3 min, 58.246 sec
 * total energy  : -3716.1269797 Eh     change    :  -0.5522893E-02 Eh
   gradient norm :     0.0674540 Eh/a0  converged?    E=F G=F D=F
   time step     :     0.3660250 fs     power     :   0.1572295E-06
   step length   :     0.1162881 a0     speed     :   0.7684923E-02

........................................................................
.............................. CYCLE   30 ..............................
........................................................................

 iter      E             dE          RMSdq      gap      omega  full diag
   1  -3771.5397140 -0.377154E+04  0.900E-03   10.78       0.0  T
   2  -3771.5397364 -0.224043E-04  0.503E-03   10.78       1.0  T
   3  -3771.5397365 -0.317914E-07  0.133E-03   10.78       1.3  T
   4  -3771.5397371 -0.696374E-06  0.303E-04   10.78       5.6  T
   5  -3771.5397373 -0.137929E-06  0.129E-04   10.78      13.1  T
     SCC iter.                  ...        6 min, 11.471 sec
     gradient                   ...        4 min,  1.260 sec
 * total energy  : -3716.1317391 Eh     change    :  -0.4759418E-02 Eh
   gradient norm :     0.0756301 Eh/a0  converged?    E=F G=F D=F
   time step     :     0.4026275 fs     power     :   0.1211839E-06
   step length   :     0.1294612 a0     speed     :   0.7777702E-02

........................................................................
.............................. CYCLE   31 ..............................
........................................................................

 iter      E             dE          RMSdq      gap      omega  full diag
   1  -3771.6809687 -0.377168E+04  0.840E-03   10.79       0.0  T
   2  -3771.6809790 -0.102883E-04  0.473E-03   10.79       1.0  T
   3  -3771.6809793 -0.298261E-06  0.856E-04   10.79       2.0  T
   4  -3771.6809795 -0.209798E-06  0.199E-04   10.79       8.5  T
     SCC iter.                  ...        4 min, 57.016 sec
     gradient                   ...        3 min, 58.272 sec
 * total energy  : -3716.1366430 Eh     change    :  -0.4903861E-02 Eh
   gradient norm :     0.0817272 Eh/a0  converged?    E=F G=F D=F
   time step     :     0.4428903 fs     power     :   0.1218192E-06
   step length   :     0.1414803 a0     speed     :   0.7727073E-02

........................................................................
.............................. CYCLE   32 ..............................
........................................................................

 iter      E             dE          RMSdq      gap      omega  full diag
   1  -3771.7697377 -0.377177E+04  0.777E-03   10.79       0.0  T
   2  -3771.7697404 -0.273449E-05  0.455E-03   10.79       1.0  T
   3  -3771.7697403  0.137029E-06  0.623E-04   10.79       2.7  T
   4  -3771.7697410 -0.694031E-06  0.187E-04   10.79       9.0  T
     SCC iter.                  ...        4 min, 59.220 sec
     gradient                   ...        3 min, 59.296 sec
 * total energy  : -3716.1425852 Eh     change    :  -0.5942279E-02 Eh
   gradient norm :     0.0775005 Eh/a0  converged?    E=F G=F D=F
   time step     :     0.4871793 fs     power     :   0.1401953E-06
   step length   :     0.1555908 a0     speed     :   0.7725207E-02

........................................................................
.............................. CYCLE   33 ..............................
........................................................................

 iter      E             dE          RMSdq      gap      omega  full diag
   1  -3771.7913655 -0.377179E+04  0.776E-03   10.80       0.0  T
   2  -3771.7913758 -0.103511E-04  0.486E-03   10.80       1.0  T
   3  -3771.7913744  0.139711E-05  0.113E-03   10.80       1.5  T
   4  -3771.7913770 -0.256998E-05  0.221E-04   10.80       7.6  T
   5  -3771.7913770 -0.318059E-07  0.121E-04   10.80      13.8  T
   6  -3771.7913770 -0.587806E-08  0.481E-05   10.80      34.9  T
     SCC iter.                  ...        7 min, 26.085 sec
     gradient                   ...        3 min, 58.574 sec
 * total energy  : -3716.1494207 Eh     change    :  -0.6835495E-02 Eh
   gradient norm :     0.0646106 Eh/a0  converged?    E=F G=F D=F
   time step     :     0.5358972 fs     power     :   0.1407060E-06
   step length   :     0.1741276 a0     speed     :   0.7859614E-02

........................................................................
.............................. CYCLE   34 ..............................
........................................................................

 iter      E             dE          RMSdq      gap      omega  full diag
   1  -3771.7487195 -0.377175E+04  0.836E-03   10.81       0.0  T
   2  -3771.7487493 -0.297476E-04  0.544E-03   10.81       1.0  T
   3  -3771.7487486  0.631838E-06  0.166E-03   10.81       1.0  T
   4  -3771.7487509 -0.232212E-05  0.391E-04   10.81       4.3  T
   5  -3771.7487512 -0.208593E-06  0.150E-04   10.81      11.2  T
   6  -3771.7487512 -0.136056E-07  0.758E-05   10.81      22.2  T
     SCC iter.                  ...        7 min, 16.366 sec
     gradient                   ...        3 min, 58.845 sec
 * total energy  : -3716.1559399 Eh     change    :  -0.6519202E-02 Eh
   gradient norm :     0.0574865 Eh/a0  converged?    E=F G=F D=F
   time step     :     0.5894869 fs     power     :   0.1094117E-06
   step length   :     0.1962918 a0     speed     :   0.8054583E-02

........................................................................
.............................. CYCLE   35 ..............................
........................................................................

 iter      E             dE          RMSdq      gap      omega  full diag
   1  -3771.6804299 -0.377168E+04  0.889E-03   10.82       0.0  T
   2  -3771.6804642 -0.342889E-04  0.570E-03   10.82       1.0  T
   3  -3771.6804641  0.972414E-07  0.158E-03   10.82       1.1  T
   4  -3771.6804656 -0.152940E-05  0.486E-04   10.82       3.5  T
   5  -3771.6804659 -0.288093E-06  0.171E-04   10.82       9.8  T
   6  -3771.6804660 -0.138866E-07  0.725E-05   10.82      23.2  T
     SCC iter.                  ...        7 min, 29.428 sec
     gradient                   ...        3 min, 58.985 sec
 * total energy  : -3716.1615985 Eh     change    :  -0.5658531E-02 Eh
   gradient norm :     0.0635657 Eh/a0  converged?    E=F G=F D=F
   time step     :     0.6484356 fs     power     :   0.8225001E-07
   step length   :     0.2178392 a0     speed     :   0.8126138E-02

........................................................................
.............................. CYCLE   36 ..............................
........................................................................

 iter      E             dE          RMSdq      gap      omega  full diag
   1  -3771.6482435 -0.377165E+04  0.993E-03   10.84       0.0  T
   2  -3771.6482587 -0.151704E-04  0.597E-03   10.84       1.0  T
   3  -3771.6482595 -0.827908E-06  0.876E-04   10.84       1.9  T
   4  -3771.6482599 -0.388081E-06  0.315E-04   10.84       5.3  T
     SCC iter.                  ...        5 min,  0.335 sec
     gradient                   ...        4 min,  1.122 sec
 * total energy  : -3716.1675468 Eh     change    :  -0.5948320E-02 Eh
   gradient norm :     0.0633730 Eh/a0  converged?    E=F G=F D=F
   time step     :     0.7132792 fs     power     :   0.8497318E-07
   step length   :     0.2382955 a0     speed     :   0.8081116E-02

........................................................................
.............................. CYCLE   37 ..............................
........................................................................

 iter      E             dE          RMSdq      gap      omega  full diag
   1  -3771.6979769 -0.377170E+04  0.120E-02   10.86       0.0  T
   2  -3771.6979849 -0.804422E-05  0.695E-03   10.86       1.0  T
   3  -3771.6979847  0.183202E-06  0.123E-03   10.86       1.4  T
   4  -3771.6979868 -0.205604E-05  0.347E-04   10.86       4.8  T
   5  -3771.6979868 -0.149666E-07  0.122E-04   10.86      13.8  T
   6  -3771.6979868 -0.575483E-08  0.317E-05   10.86      53.0  T
     SCC iter.                  ...        7 min, 20.277 sec
     gradient                   ...        3 min, 57.494 sec
 * total energy  : -3716.1740483 Eh     change    :  -0.6501536E-02 Eh
   gradient norm :     0.0515996 Eh/a0  converged?    E=F G=F D=F
   time step     :     0.7846071 fs     power     :   0.7813662E-07
   step length   :     0.2631181 a0     speed     :   0.8111731E-02

........................................................................
.............................. CYCLE   38 ..............................
........................................................................

 iter      E             dE          RMSdq      gap      omega  full diag
   1  -3771.8281676 -0.377183E+04  0.132E-02   10.89       0.0  T
   2  -3771.8281906 -0.229856E-04  0.763E-03   10.89       1.0  T
   3  -3771.8281895  0.107123E-05  0.169E-03   10.89       1.0  T
   4  -3771.8281928 -0.326617E-05  0.356E-04   10.89       4.7  T
   5  -3771.8281929 -0.103775E-06  0.176E-04   10.89       9.6  T
   6  -3771.8281929 -0.850969E-08  0.565E-05   10.89      29.8  T
     SCC iter.                  ...        7 min, 23.704 sec
     gradient                   ...        3 min, 58.023 sec
 * total energy  : -3716.1793793 Eh     change    :  -0.5330998E-02 Eh
   gradient norm :     0.0533403 Eh/a0  converged?    E=F G=F D=F
   time step     :     0.8630678 fs     power     :   0.4372904E-07
   step length   :     0.2906169 a0     speed     :   0.8145000E-02

........................................................................
.............................. CYCLE   39 ..............................
........................................................................

 iter      E             dE          RMSdq      gap      omega  full diag
   1  -3771.9622120 -0.377196E+04  0.118E-02   10.91       0.0  T
   2  -3771.9622257 -0.137601E-04  0.682E-03   10.91       1.0  T
   3  -3771.9622262 -0.424798E-06  0.997E-04   10.91       1.7  T
   4  -3771.9622269 -0.713663E-06  0.270E-04   10.91       6.2  T
     SCC iter.                  ...        4 min, 53.536 sec
     gradient                   ...        3 min, 57.711 sec
 * total energy  : -3716.1842031 Eh     change    :  -0.4823753E-02 Eh
   gradient norm :     0.0581955 Eh/a0  converged?    E=F G=F D=F
   time step     :     0.9493746 fs     power     :   0.4038932E-07
   step length   :     0.3133994 a0     speed     :   0.7985015E-02

........................................................................
.............................. CYCLE   40 ..............................
........................................................................

 iter      E             dE          RMSdq      gap      omega  full diag
   1  -3772.0311949 -0.377203E+04  0.114E-02   10.92       0.0  T
   2  -3772.0312100 -0.151137E-04  0.684E-03   10.92       1.0  T
   3  -3772.0312081  0.186883E-05  0.156E-03   10.92       1.1  T
   4  -3772.0312126 -0.442174E-05  0.333E-04   10.92       5.0  T
   5  -3772.0312126 -0.347895E-07  0.178E-04   10.92       9.5  T
   6  -3772.0312126 -0.156219E-07  0.670E-05   10.93      25.1  T
     SCC iter.                  ...        7 min, 21.050 sec
     gradient                   ...        4 min,  1.401 sec
 * total energy  : -3716.1899423 Eh     change    :  -0.5739175E-02 Eh
   gradient norm :     0.0492287 Eh/a0  converged?    E=F G=F D=F
   time step     :     1.0443120 fs     power     :   0.4284508E-07
   step length   :     0.3406145 a0     speed     :   0.7889472E-02

........................................................................
.............................. CYCLE   41 ..............................
........................................................................

 iter      E             dE          RMSdq      gap      omega  full diag
   1  -3772.0523785 -0.377205E+04  0.125E-02   10.95       0.0  T
   2  -3772.0524082 -0.297793E-04  0.771E-03   10.95       1.0  T
   3  -3772.0524064  0.188590E-05  0.173E-03   10.95       1.0  T
   4  -3772.0524112 -0.483136E-05  0.421E-04   10.95       4.0  T
   5  -3772.0524113 -0.158011E-06  0.223E-04   10.95       7.6  T
   6  -3772.0524114 -0.309956E-07  0.989E-05   10.95      17.0  T
     SCC iter.                  ...        7 min, 21.146 sec
     gradient                   ...        3 min, 57.985 sec
 * total energy  : -3716.1948066 Eh     change    :  -0.4864310E-02 Eh
   gradient norm :     0.0499508 Eh/a0  converged?    E=F G=F D=F
   time step     :     1.1487432 fs     power     :   0.2020536E-07
   step length   :     0.3725235 a0     speed     :   0.7844147E-02

........................................................................
.............................. CYCLE   42 ..............................
........................................................................

 iter      E             dE          RMSdq      gap      omega  full diag
   1  -3772.1190369 -0.377212E+04  0.139E-02   10.98       0.0  T
   2  -3772.1190446 -0.774126E-05  0.808E-03   10.98       1.0  T
   3  -3772.1190450 -0.382503E-06  0.963E-04   10.98       1.7  T
   4  -3772.1190460 -0.104473E-05  0.319E-04   10.98       5.3  T
   5  -3772.1190461 -0.272826E-07  0.155E-04   10.98      10.9  T
     SCC iter.                  ...        6 min, 15.894 sec
     gradient                   ...        3 min, 59.917 sec
 * total energy  : -3716.1987701 Eh     change    :  -0.3963556E-02 Eh
   gradient norm :     0.0470518 Eh/a0  converged?    E=F G=F D=F
   time step     :     1.2500000 fs     power     :   0.8513562E-08
   step length   :     0.3957674 a0     speed     :   0.7658524E-02
 * RMSD in coord.:     0.0594984 a0     energy gain  -0.1098823E+00 Eh

........................................................................
.............................. CYCLE   43 ..............................
........................................................................

 iter      E             dE          RMSdq      gap      omega  full diag
   1  -3772.1325869 -0.377213E+04  0.235E-03   10.98       0.0  T
   2  -3772.1325872 -0.262054E-06  0.136E-03   10.98       1.2  T
   3  -3772.1325872  0.883620E-08  0.198E-04   10.98       8.5  T
   4  -3772.1325872 -0.533691E-07  0.532E-05   10.98      31.6  T
     SCC iter.                  ...        4 min, 56.977 sec
     gradient                   ...        4 min,  1.640 sec
 * total energy  : -3716.1993373 Eh     change    :  -0.5671829E-03 Eh
   gradient norm :     0.0473088 Eh/a0  converged?    E=F G=F D=F
   time step     :     0.2500000 fs     power     :   0.2589568E-07
   step length   :     0.0724863 a0     speed     :   0.7013438E-02

........................................................................
.............................. CYCLE   44 ..............................
........................................................................

 iter      E             dE          RMSdq      gap      omega  full diag
   1  -3772.1452972 -0.377215E+04  0.226E-03   10.99       0.0  T
   2  -3772.1452977 -0.512280E-06  0.133E-03   10.99       1.3  T
   3  -3772.1452977  0.225527E-07  0.234E-04   10.99       7.2  T
   4  -3772.1452978 -0.679524E-07  0.490E-05   10.99      34.3  T
     SCC iter.                  ...        4 min, 56.195 sec
     gradient                   ...        4 min,  1.676 sec
 * total energy  : -3716.2001703 Eh     change    :  -0.8329626E-03 Eh
   gradient norm :     0.0439030 Eh/a0  converged?    E=F G=F D=F
   time step     :     0.2500000 fs     power     :   0.3994803E-07
   step length   :     0.0673972 a0     speed     :   0.6521043E-02

........................................................................
.............................. CYCLE   45 ..............................
........................................................................

 iter      E             dE          RMSdq      gap      omega  full diag
   1  -3772.1555739 -0.377216E+04  0.241E-03   10.99       0.0  T
   2  -3772.1555748 -0.803043E-06  0.145E-03   10.99       1.2  T
   3  -3772.1555747  0.109249E-07  0.258E-04   10.99       6.5  T
   4  -3772.1555748 -0.708960E-07  0.603E-05   10.99      27.9  T
     SCC iter.                  ...        4 min, 59.338 sec
     gradient                   ...        3 min, 59.657 sec
 * total energy  : -3716.2011484 Eh     change    :  -0.9780976E-03 Eh
   gradient norm :     0.0379003 Eh/a0  converged?    E=F G=F D=F
   time step     :     0.2500000 fs     power     :   0.4616793E-07
   step length   :     0.0636664 a0     speed     :   0.6160065E-02

........................................................................
.............................. CYCLE   46 ..............................
........................................................................

 iter      E             dE          RMSdq      gap      omega  full diag
   1  -3772.1617549 -0.377216E+04  0.265E-03   11.00       0.0  T
   2  -3772.1617559 -0.976534E-06  0.161E-03   11.00       1.0  T
   3  -3772.1617559 -0.773070E-08  0.267E-04   11.00       6.3  T
   4  -3772.1617560 -0.728401E-07  0.717E-05   11.00      23.5  T
     SCC iter.                  ...        4 min, 56.796 sec
     gradient                   ...        4 min,  0.075 sec
 * total energy  : -3716.2021141 Eh     change    :  -0.9657012E-03 Eh
   gradient norm :     0.0309559 Eh/a0  converged?    E=F G=F D=F
   time step     :     0.2500000 fs     power     :   0.4368357E-07
   step length   :     0.0609242 a0     speed     :   0.5894744E-02

........................................................................
.............................. CYCLE   47 ..............................
........................................................................

 iter      E             dE          RMSdq      gap      omega  full diag
   1  -3772.1621922 -0.377216E+04  0.284E-03   11.00       0.0  T
   2  -3772.1621931 -0.955993E-06  0.172E-03   11.00       1.0  T
   3  -3772.1621932 -0.240220E-07  0.262E-04   11.00       6.4  T
   4  -3772.1621932 -0.776022E-07  0.807E-05   11.00      20.8  T
     SCC iter.                  ...        4 min, 59.634 sec
     gradient                   ...        3 min, 58.535 sec
 * total energy  : -3716.2029345 Eh     change    :  -0.8204863E-03 Eh
   gradient norm :     0.0254805 Eh/a0  converged?    E=F G=F D=F
   time step     :     0.2500000 fs     power     :   0.3477535E-07
   step length   :     0.0587146 a0     speed     :   0.5680950E-02

........................................................................
.............................. CYCLE   48 ..............................
........................................................................

 iter      E             dE          RMSdq      gap      omega  full diag
   1  -3772.1549653 -0.377215E+04  0.317E-03   11.00       0.0  T
   2  -3772.1549662 -0.937866E-06  0.190E-03   11.00       1.0  T
   3  -3772.1549662 -0.276077E-07  0.286E-04   11.00       5.9  T
   4  -3772.1549664 -0.113769E-06  0.958E-05   11.00      17.6  T
     SCC iter.                  ...        5 min,  3.955 sec
     gradient                   ...        3 min, 57.102 sec
 * total energy  : -3716.2035991 Eh     change    :  -0.6645676E-03 Eh
   gradient norm :     0.0239640 Eh/a0  converged?    E=F G=F D=F
   time step     :     0.2750000 fs     power     :   0.2266191E-07
   step length   :     0.0621925 a0     speed     :   0.5470418E-02

........................................................................
.............................. CYCLE   49 ..............................
........................................................................

 iter      E             dE          RMSdq      gap      omega  full diag
   1  -3772.1393090 -0.377214E+04  0.327E-03   11.00       0.0  T
   2  -3772.1393098 -0.832453E-06  0.193E-03   11.00       1.0  T
   3  -3772.1393098 -0.382397E-08  0.319E-04   11.00       5.3  T
   4  -3772.1393100 -0.164004E-06  0.103E-04   11.00      16.4  T
     SCC iter.                  ...        4 min, 59.507 sec
     gradient                   ...        3 min, 59.104 sec
 * total energy  : -3716.2040939 Eh     change    :  -0.4947539E-03 Eh
   gradient norm :     0.0268566 Eh/a0  converged?    E=F G=F D=F
   time step     :     0.3025000 fs     power     :   0.1369491E-07
   step length   :     0.0649637 a0     speed     :   0.5194703E-02

........................................................................
.............................. CYCLE   50 ..............................
........................................................................

 iter      E             dE          RMSdq      gap      omega  full diag
   1  -3772.1173457 -0.377212E+04  0.315E-03   11.01       0.0  T
   2  -3772.1173466 -0.821993E-06  0.182E-03   11.01       1.0  T
   3  -3772.1173465  0.148780E-07  0.337E-04   11.01       5.0  T
   4  -3772.1173467 -0.175810E-06  0.964E-05   11.01      17.4  T
     SCC iter.                  ...        4 min, 58.935 sec
     gradient                   ...        3 min, 58.035 sec
 * total energy  : -3716.2045249 Eh     change    :  -0.4309957E-03 Eh
   gradient norm :     0.0306368 Eh/a0  converged?    E=F G=F D=F
   time step     :     0.3327500 fs     power     :   0.1152572E-07
   step length   :     0.0669057 a0     speed     :   0.4863624E-02

........................................................................
.............................. CYCLE   51 ..............................
........................................................................

 iter      E             dE          RMSdq      gap      omega  full diag
   1  -3772.0925027 -0.377209E+04  0.301E-03   11.01       0.0  T
   2  -3772.0925037 -0.939744E-06  0.172E-03   11.01       1.0  T
   3  -3772.0925037  0.133496E-07  0.332E-04   11.01       5.1  T
   4  -3772.0925038 -0.140037E-06  0.825E-05   11.01      20.4  T
     SCC iter.                  ...        5 min,  3.662 sec
     gradient                   ...        3 min, 58.473 sec
 * total energy  : -3716.2050418 Eh     change    :  -0.5168938E-03 Eh
   gradient norm :     0.0324613 Eh/a0  converged?    E=F G=F D=F
   time step     :     0.3660250 fs     power     :   0.1485449E-07
   step length   :     0.0688695 a0     speed     :   0.4551257E-02

........................................................................
.............................. CYCLE   52 ..............................
........................................................................

 iter      E             dE          RMSdq      gap      omega  full diag
   1  -3772.0687429 -0.377207E+04  0.305E-03   11.01       0.0  T
   2  -3772.0687440 -0.108199E-05  0.175E-03   11.01       1.0  T
   3  -3772.0687440  0.534601E-08  0.312E-04   11.01       5.4  T
   4  -3772.0687440 -0.948935E-07  0.685E-05   11.01      24.5  T
     SCC iter.                  ...        4 min, 58.479 sec
     gradient                   ...        3 min, 58.788 sec
 * total energy  : -3716.2057435 Eh     change    :  -0.7017824E-03 Eh
   gradient norm :     0.0313134 Eh/a0  converged?    E=F G=F D=F
   time step     :     0.4026275 fs     power     :   0.1976180E-07
   step length   :     0.0717290 a0     speed     :   0.4309295E-02

........................................................................
.............................. CYCLE   53 ..............................
........................................................................

 iter      E             dE          RMSdq      gap      omega  full diag
   1  -3772.0505616 -0.377205E+04  0.334E-03   11.01       0.0  T
   2  -3772.0505627 -0.109217E-05  0.194E-03   11.01       1.0  T
   3  -3772.0505627 -0.640784E-08  0.282E-04   11.01       6.0  T
   4  -3772.0505628 -0.691757E-07  0.606E-05   11.01      27.8  T
     SCC iter.                  ...        4 min, 54.528 sec
     gradient                   ...        3 min, 58.974 sec
 * total energy  : -3716.2066196 Eh     change    :  -0.8760473E-03 Eh
   gradient norm :     0.0276512 Eh/a0  converged?    E=F G=F D=F
   time step     :     0.4428903 fs     power     :   0.2216466E-07
   step length   :     0.0760210 a0     speed     :   0.4151955E-02

........................................................................
.............................. CYCLE   54 ..............................
........................................................................

 iter      E             dE          RMSdq      gap      omega  full diag
   1  -3772.0427700 -0.377204E+04  0.373E-03   11.02       0.0  T
   2  -3772.0427709 -0.898443E-06  0.220E-03   11.02       1.0  T
   3  -3772.0427709 -0.991486E-08  0.265E-04   11.02       6.3  T
   4  -3772.0427710 -0.898467E-07  0.743E-05   11.02      22.6  T
     SCC iter.                  ...        4 min, 56.837 sec
     gradient                   ...        3 min, 57.850 sec
 * total energy  : -3716.2075477 Eh     change    :  -0.9281381E-03 Eh
   gradient norm :     0.0234952 Eh/a0  converged?    E=F G=F D=F
   time step     :     0.4871793 fs     power     :   0.1991032E-07
   step length   :     0.0817475 a0     speed     :   0.4058830E-02

........................................................................
.............................. CYCLE   55 ..............................
........................................................................

 iter      E             dE          RMSdq      gap      omega  full diag
   1  -3772.0490202 -0.377205E+04  0.397E-03   11.02       0.0  T
   2  -3772.0490209 -0.757392E-06  0.235E-03   11.02       1.0  T
   3  -3772.0490209  0.183782E-07  0.306E-04   11.02       5.5  T
   4  -3772.0490211 -0.171653E-06  0.992E-05   11.02      17.0  T
     SCC iter.                  ...        4 min, 58.809 sec
     gradient                   ...        3 min, 58.543 sec
 * total energy  : -3716.2083760 Eh     change    :  -0.8282330E-03 Eh
   gradient norm :     0.0218754 Eh/a0  converged?    E=F G=F D=F
   time step     :     0.5358972 fs     power     :   0.1439848E-07
   step length   :     0.0881936 a0     speed     :   0.3980802E-02

........................................................................
.............................. CYCLE   56 ..............................
........................................................................

 iter      E             dE          RMSdq      gap      omega  full diag
   1  -3772.0680597 -0.377207E+04  0.386E-03   11.02       0.0  T
   2  -3772.0680608 -0.111417E-05  0.228E-03   11.02       1.0  T
   3  -3772.0680608  0.199848E-07  0.359E-04   11.02       4.7  T
   4  -3772.0680610 -0.195267E-06  0.111E-04   11.02      15.1  T
     SCC iter.                  ...        4 min, 58.657 sec
     gradient                   ...        3 min, 57.743 sec
 * total energy  : -3716.2090644 Eh     change    :  -0.6884822E-03 Eh
   gradient norm :     0.0235897 Eh/a0  converged?    E=F G=F D=F
   time step     :     0.5894869 fs     power     :   0.1000035E-07
   step length   :     0.0941638 a0     speed     :   0.3863893E-02

........................................................................
.............................. CYCLE   57 ..............................
........................................................................

 iter      E             dE          RMSdq      gap      omega  full diag
   1  -3772.0922959 -0.377209E+04  0.353E-03   11.02       0.0  T
   2  -3772.0922975 -0.159450E-05  0.208E-03   11.02       1.0  T
   3  -3772.0922975 -0.212326E-07  0.376E-04   11.02       4.5  T
   4  -3772.0922976 -0.121398E-06  0.105E-04   11.02      16.1  T
     SCC iter.                  ...        4 min, 59.092 sec
     gradient                   ...        3 min, 58.371 sec
 * total energy  : -3716.2097530 Eh     change    :  -0.6885431E-03 Eh
   gradient norm :     0.0259945 Eh/a0  converged?    E=F G=F D=F
   time step     :     0.6484356 fs     power     :   0.1002786E-07
   step length   :     0.0995818 a0     speed     :   0.3714737E-02

........................................................................
.............................. CYCLE   58 ..............................
........................................................................

 iter      E             dE          RMSdq      gap      omega  full diag
   1  -3772.1115375 -0.377211E+04  0.338E-03   11.03       0.0  T
   2  -3772.1115388 -0.135003E-05  0.198E-03   11.02       1.0  T
   3  -3772.1115389 -0.462041E-07  0.327E-04   11.02       5.1  T
   4  -3772.1115390 -0.700320E-07  0.893E-05   11.02      18.8  T
     SCC iter.                  ...        5 min,  1.844 sec
     gradient                   ...        3 min, 57.199 sec
 * total energy  : -3716.2106556 Eh     change    :  -0.9026291E-03 Eh
   gradient norm :     0.0259900 Eh/a0  converged?    E=F G=F D=F
   time step     :     0.7132792 fs     power     :   0.1367606E-07
   step length   :     0.1061405 a0     speed     :   0.3599455E-02

........................................................................
.............................. CYCLE   59 ..............................
........................................................................

 iter      E             dE          RMSdq      gap      omega  full diag
   1  -3772.1163857 -0.377212E+04  0.371E-03   11.03       0.0  T
   2  -3772.1163865 -0.766282E-06  0.217E-03   11.03       1.0  T
   3  -3772.1163866 -0.659884E-07  0.290E-04   11.03       5.8  T
   4  -3772.1163866 -0.823943E-07  0.998E-05   11.03      16.9  T
     SCC iter.                  ...        5 min,  5.874 sec
     gradient                   ...        3 min, 56.955 sec
 * total energy  : -3716.2118319 Eh     change    :  -0.1176274E-02 Eh
   gradient norm :     0.0224023 Eh/a0  converged?    E=F G=F D=F
   time step     :     0.7846071 fs     power     :   0.1614767E-07
   step length   :     0.1157152 a0     speed     :   0.3567411E-02

........................................................................
.............................. CYCLE   60 ..............................
........................................................................

 iter      E             dE          RMSdq      gap      omega  full diag
   1  -3772.1014359 -0.377210E+04  0.433E-03   11.03       0.0  T
   2  -3772.1014373 -0.141433E-05  0.252E-03   11.03       1.0  T
   3  -3772.1014374 -0.886921E-07  0.401E-04   11.03       4.2  T
   4  -3772.1014375 -0.135353E-06  0.121E-04   11.03      13.9  T
     SCC iter.                  ...        4 min, 58.654 sec
     gradient                   ...        3 min, 58.514 sec
 * total energy  : -3716.2130494 Eh     change    :  -0.1217550E-02 Eh
   gradient norm :     0.0200094 Eh/a0  converged?    E=F G=F D=F
   time step     :     0.8630678 fs     power     :   0.1344166E-07
   step length   :     0.1283869 a0     speed     :   0.3598245E-02

........................................................................
.............................. CYCLE   61 ..............................
........................................................................

 iter      E             dE          RMSdq      gap      omega  full diag
   1  -3772.0717895 -0.377207E+04  0.449E-03   11.03       0.0  T
   2  -3772.0717919 -0.240253E-05  0.259E-03   11.03       1.0  T
   3  -3772.0717920 -0.965360E-07  0.492E-04   11.03       3.4  T
   4  -3772.0717921 -0.139902E-06  0.122E-04   11.03      13.8  T
     SCC iter.                  ...        5 min,  4.660 sec
     gradient                   ...        3 min, 58.054 sec
 * total energy  : -3716.2141852 Eh     change    :  -0.1135770E-02 Eh
   gradient norm :     0.0227737 Eh/a0  converged?    E=F G=F D=F
   time step     :     0.9493746 fs     power     :   0.1129130E-07
   step length   :     0.1415129 a0     speed     :   0.3605568E-02

........................................................................
.............................. CYCLE   62 ..............................
........................................................................

 iter      E             dE          RMSdq      gap      omega  full diag
   1  -3772.0452111 -0.377205E+04  0.424E-03   11.04       0.0  T
   2  -3772.0452128 -0.174809E-05  0.243E-03   11.04       1.0  T
   3  -3772.0452129 -0.934256E-07  0.439E-04   11.04       3.8  T
   4  -3772.0452130 -0.123312E-06  0.117E-04   11.04      14.4  T
     SCC iter.                  ...        4 min, 51.718 sec
     gradient                   ...        3 min, 57.703 sec
 * total energy  : -3716.2155556 Eh     change    :  -0.1370350E-02 Eh
   gradient norm :     0.0214513 Eh/a0  converged?    E=F G=F D=F
   time step     :     1.0443120 fs     power     :   0.1385336E-07
   step length   :     0.1555059 a0     speed     :   0.3601900E-02

........................................................................
.............................. CYCLE   63 ..............................
........................................................................

 iter      E             dE          RMSdq      gap      omega  full diag
[...]
  3287   6 C     3288   6 C                                       1.5290696
  3287   6 C     3289   6 C                                       1.5324774
  3289   6 C     3290   6 C                                       1.5372908
  3290   6 C     3291   6 C                                       1.5274501
  3290   6 C     3292   6 C                                       1.5333004
  3292   6 C     3293   6 C                                       1.5379987
  3293   6 C     3294   6 C                                       1.5311968
  3293   6 C     3295   6 C                                       1.5395161
  3295   6 C     3296   6 C                                       1.5383823
  3296   6 C     3297   6 C                                       1.5258513
  3296   6 C     3298   6 C                                       1.5355701
  3298   6 C     3299   6 C                                       1.5374829
  3299   6 C     3300   6 C                                       1.5286040
  3299   6 C     3301   6 C                                       1.5344339
  3301   6 C     3302   6 C                                       1.5373610
  3302   6 C     3303   6 C                                       1.5280231
  3302   6 C     3304   6 C                                       1.5331930
  3304   6 C     3305   6 C                                       1.5395532
  3305   6 C     3306   6 C                                       1.5307186
  3305   6 C     3307   6 C                                       1.5332505
  3307   6 C     3308   6 C                                       1.5365299
  3308   6 C     3309   6 C                                       1.5297822
  3308   6 C     3310   6 C                                       1.5340365
  3310   6 C     3311   6 C                                       1.5363792
  3311   6 C     3312   6 C                                       1.5268939
  3311   6 C     3313   6 C                                       1.5333760
  3313   6 C     3314   6 C                                       1.5349867
  3314   6 C     3315   6 C                                       1.5286106
  3314   6 C     3316   6 C                                       1.5340187
  3316   6 C     3317   6 C                                       1.5359994
  3317   6 C     3318   6 C                                       1.5280353
  3317   6 C     3319   6 C                                       1.5342509
  3320   6 C     3321   6 C                                       1.5301413
  3320   6 C     3322   6 C                                       1.5350057
  3322   6 C     3323   6 C                                       1.5354962
  3323   6 C     3324   6 C                                       1.5263064
  3323   6 C     3325   6 C                                       1.5348548
  3325   6 C     3326   6 C                                       1.5362770
  3326   6 C     3327   6 C                                       1.5290343
  3326   6 C     3328   6 C                                       1.5347437
  3328   6 C     3329   6 C                                       1.5363038
  3329   6 C     3330   6 C                                       1.5281843
  3329   6 C     3331   6 C                                       1.5327252
  3331   6 C     3332   6 C                                       1.5369242
  3332   6 C     3333   6 C                                       1.5292853
  3332   6 C     3334   6 C                                       1.5334282
  3334   6 C     3335   6 C                                       1.5359344
  3335   6 C     3336   6 C                                       1.5294688
  3335   6 C     3337   6 C                                       1.5337801
  3338   6 C     3339   6 C                                       1.5291968
  3338   6 C     3340   6 C                                       1.5348715
  3340   6 C     3341   6 C                                       1.5327950
  3341   6 C     3342   6 C                                       1.5288433
  3341   6 C     3343   6 C                                       1.5370979
  3343   6 C     3344   6 C                                       1.5329694
  3344   6 C     3345   6 C                                       1.5289449
  3344   6 C     3346   6 C                                       1.5353450
  3346   6 C     3347   6 C                                       1.5328666
  3347   6 C     3348   6 C                                       1.5286552
  3347   6 C     3349   6 C                                       1.5364533
  3349   6 C     3350   6 C                                       1.5327438
  3350   6 C     3351   6 C                                       1.5283642
  3350   6 C     3352   6 C                                       1.5360615
  3352   6 C     3353   6 C                                       1.5271563
  3353   6 C     3354   6 C                                       1.5242344
  3265   6 C     3355   1 H                                       1.0880936
  3265   6 C     3356   1 H                                       1.0871985
  3265   6 C     3357   1 H                                       1.0883280
  3354   6 C     3358   1 H                                       1.0880587
  3354   6 C     3359   1 H                                       1.0881433
  3354   6 C     3360   1 H                                       1.0878789
  3352   6 C     3361   1 H                                       1.0931432
  3352   6 C     3362   1 H                                       1.0936106
  3349   6 C     3363   1 H                                       1.0917152
  3349   6 C     3364   1 H                                       1.0935047
  3347   6 C     3365   1 H                                       1.0937739
  3348   6 C     3366   1 H                                       1.0877452
  3348   6 C     3367   1 H                                       1.0882547
  3348   6 C     3368   1 H                                       1.0864119
  3346   6 C     3369   1 H                                       1.0922356
  3346   6 C     3370   1 H                                       1.0934896
  3343   6 C     3371   1 H                                       1.0917118
  3343   6 C     3372   1 H                                       1.0936753
  3350   6 C     3373   1 H                                       1.0953322
  3351   6 C     3374   1 H                                       1.0882288
  3351   6 C     3375   1 H                                       1.0865848
  3351   6 C     3376   1 H                                       1.0882963
  3344   6 C     3377   1 H                                       1.0916220
  3345   6 C     3378   1 H                                       1.0882978
  3345   6 C     3379   1 H                                       1.0886298
  3345   6 C     3380   1 H                                       1.0859319
  3341   6 C     3381   1 H                                       1.0917647
  3342   6 C     3382   1 H                                       1.0885509
  3342   6 C     3383   1 H                                       1.0887352
  3342   6 C     3384   1 H                                       1.0872297
  3340   6 C     3385   1 H                                       1.0905990
  3340   6 C     3386   1 H                                       1.0940409
  3338   6 C     3387   1 H                                       1.0943333
  3339   6 C     3388   1 H                                       1.0877445
  3339   6 C     3389   1 H                                       1.0881251
  3339   6 C     3390   1 H                                       1.0884065
  3337   6 C     3391   1 H                                       1.0896675
  3337   6 C     3392   1 H                                       1.0915763
  3335   6 C     3393   1 H                                       1.0937644
  3336   6 C     3394   1 H                                       1.0882624
  3336   6 C     3395   1 H                                       1.0875783
  3336   6 C     3396   1 H                                       1.0885203
  3334   6 C     3397   1 H                                       1.0912978
  3334   6 C     3398   1 H                                       1.0938638
  3332   6 C     3399   1 H                                       1.0932970
  3333   6 C     3400   1 H                                       1.0884049
  3333   6 C     3401   1 H                                       1.0867983
  3333   6 C     3402   1 H                                       1.0885769
  3331   6 C     3403   1 H                                       1.0913925
  3331   6 C     3404   1 H                                       1.0937919
  3329   6 C     3405   1 H                                       1.0915764
  3330   6 C     3406   1 H                                       1.0874447
  3330   6 C     3407   1 H                                       1.0867459
  3330   6 C     3408   1 H                                       1.0885238
  3328   6 C     3409   1 H                                       1.0924868
  3328   6 C     3410   1 H                                       1.0937938
  3326   6 C     3411   1 H                                       1.0939895
  3327   6 C     3412   1 H                                       1.0887426
  3327   6 C     3413   1 H                                       1.0863405
  3327   6 C     3414   1 H                                       1.0883933
  3325   6 C     3415   1 H                                       1.0930478
  3325   6 C     3416   1 H                                       1.0939544
  3323   6 C     3417   1 H                                       1.0926197
  3324   6 C     3418   1 H                                       1.0885370
  3324   6 C     3419   1 H                                       1.0870931
  3324   6 C     3420   1 H                                       1.0870385
  3322   6 C     3421   1 H                                       1.0923251
  3322   6 C     3422   1 H                                       1.0935242
  3320   6 C     3423   1 H                                       1.0943403
  3321   6 C     3424   1 H                                       1.0884517
  3321   6 C     3425   1 H                                       1.0884720
  3321   6 C     3426   1 H                                       1.0873349
  3319   6 C     3427   1 H                                       1.0902266
  3319   6 C     3428   1 H                                       1.0924728
  3317   6 C     3429   1 H                                       1.0952176
  3318   6 C     3430   1 H                                       1.0883516
  3318   6 C     3431   1 H                                       1.0871589
  3318   6 C     3432   1 H                                       1.0884858
  3316   6 C     3433   1 H                                       1.0918615
  3316   6 C     3434   1 H                                       1.0931302
  3314   6 C     3435   1 H                                       1.0940367
  3315   6 C     3436   1 H                                       1.0886724
  3315   6 C     3437   1 H                                       1.0881316
  3315   6 C     3438   1 H                                       1.0872855
  3313   6 C     3439   1 H                                       1.0922743
  3313   6 C     3440   1 H                                       1.0930914
  3311   6 C     3441   1 H                                       1.0942276
  3312   6 C     3442   1 H                                       1.0868987
  3312   6 C     3443   1 H                                       1.0869154
  3312   6 C     3444   1 H                                       1.0883919
  3310   6 C     3445   1 H                                       1.0915955
  3310   6 C     3446   1 H                                       1.0926990
  3308   6 C     3447   1 H                                       1.0936561
  3309   6 C     3448   1 H                                       1.0883090
  3309   6 C     3449   1 H                                       1.0871370
  3309   6 C     3450   1 H                                       1.0880704
  3307   6 C     3451   1 H                                       1.0908050
  3307   6 C     3452   1 H                                       1.0938358
  3305   6 C     3453   1 H                                       1.0937079
  3306   6 C     3454   1 H                                       1.0884538
  3306   6 C     3455   1 H                                       1.0869096
  3306   6 C     3456   1 H                                       1.0887095
  3304   6 C     3457   1 H                                       1.0915338
  3304   6 C     3458   1 H                                       1.0945875
  3302   6 C     3459   1 H                                       1.0926424
  3303   6 C     3460   1 H                                       1.0868770
  3303   6 C     3461   1 H                                       1.0886699
  3303   6 C     3462   1 H                                       1.0883067
  3301   6 C     3463   1 H                                       1.0930373
  3301   6 C     3464   1 H                                       1.0938388
  3299   6 C     3465   1 H                                       1.0945745
  3300   6 C     3466   1 H                                       1.0870096
  3300   6 C     3467   1 H                                       1.0887280
  3300   6 C     3468   1 H                                       1.0858301
  3298   6 C     3469   1 H                                       1.0932667
  3298   6 C     3470   1 H                                       1.0942095
  3296   6 C     3471   1 H                                       1.0954641
  3297   6 C     3472   1 H                                       1.0869319
  3297   6 C     3473   1 H                                       1.0871710
  3297   6 C     3474   1 H                                       1.0885129
  3295   6 C     3475   1 H                                       1.0903058
  3295   6 C     3476   1 H                                       1.0924433
  3293   6 C     3477   1 H                                       1.0934270
  3294   6 C     3478   1 H                                       1.0862540
  3294   6 C     3479   1 H                                       1.0890976
  3294   6 C     3480   1 H                                       1.0888608
  3292   6 C     3481   1 H                                       1.0926206
  3292   6 C     3482   1 H                                       1.0944020
  3290   6 C     3483   1 H                                       1.0926006
  3291   6 C     3484   1 H                                       1.0855684
  3291   6 C     3485   1 H                                       1.0882318
  3291   6 C     3486   1 H                                       1.0884047
  3289   6 C     3487   1 H                                       1.0921185
  3289   6 C     3488   1 H                                       1.0940184
  3287   6 C     3489   1 H                                       1.0939828
  3288   6 C     3490   1 H                                       1.0860668
  3288   6 C     3491   1 H                                       1.0882381
  3288   6 C     3492   1 H                                       1.0879616
  3286   6 C     3493   1 H                                       1.0911442
  3286   6 C     3494   1 H                                       1.0933238
  3284   6 C     3495   1 H                                       1.0935912
  3285   6 C     3496   1 H                                       1.0886153
  3285   6 C     3497   1 H                                       1.0867769
  3285   6 C     3498   1 H                                       1.0884745
  3283   6 C     3499   1 H                                       1.0923596
  3283   6 C     3500   1 H                                       1.0943276
  3281   6 C     3501   1 H                                       1.0930142
  3282   6 C     3502   1 H                                       1.0881042
  3282   6 C     3503   1 H                                       1.0858598
  3282   6 C     3504   1 H                                       1.0883639
  3280   6 C     3505   1 H                                       1.0926908
  3280   6 C     3506   1 H                                       1.0926236
  3278   6 C     3507   1 H                                       1.0947573
  3279   6 C     3508   1 H                                       1.0861794
  3279   6 C     3509   1 H                                       1.0873293
  3279   6 C     3510   1 H                                       1.0883196
  3277   6 C     3511   1 H                                       1.0915137
  3277   6 C     3512   1 H                                       1.0939355
  3275   6 C     3513   1 H                                       1.0919144
  3276   6 C     3514   1 H                                       1.0869247
  3276   6 C     3515   1 H                                       1.0884818
  3276   6 C     3516   1 H                                       1.0882655
  3274   6 C     3517   1 H                                       1.0937411
  3274   6 C     3518   1 H                                       1.0938926
  3272   6 C     3519   1 H                                       1.0937130
  3273   6 C     3520   1 H                                       1.0868635
  3273   6 C     3521   1 H                                       1.0869859
  3273   6 C     3522   1 H                                       1.0882808
  3271   6 C     3523   1 H                                       1.0938447
  3271   6 C     3524   1 H                                       1.0941219
  3269   6 C     3525   1 H                                       1.0938797
  3270   6 C     3526   1 H                                       1.0864768
  3270   6 C     3527   1 H                                       1.0884638
  3270   6 C     3528   1 H                                       1.0880393
  3268   6 C     3529   1 H                                       1.0920650
  3268   6 C     3530   1 H                                       1.0932659
  3266   6 C     3531   1 H                                       1.0947238
  3267   6 C     3532   1 H                                       1.0870139
  3267   6 C     3533   1 H                                       1.0880100
  3267   6 C     3534   1 H                                       1.0877501
  3353   6 C     3535   1 H                                       1.0924382
  3353   6 C     3536   1 H                                       1.0910731

 * 2 distinct bonds (by element types)

   Z      Z             #   av. dist./Å        max./Å        min./Å
   1 H    6 C        2366     1.0903148     1.0981431     1.0843218
   6 C    6 C        1116     1.5324680     1.5400445     1.5227852


optimized geometry written to: xtbopt.xyz


           -------------------------------------------------
          | TOTAL ENERGY            -3716.279495127975 Eh   |
          | GRADIENT NORM               0.000918236819 Eh/α |
          | HOMO-LUMO GAP              11.176867945990 eV   |
           -------------------------------------------------

------------------------------------------------------------------------
 * finished run on 2024/06/25 at 18:22:08.702     
------------------------------------------------------------------------
 total:
 * wall-time:     4 d,  4 h, 59 min, 29.202 sec
 *  cpu-time:    23 d, 18 h, 26 min, 46.452 sec
 * ratio c/w:     5.648 speedup
 SCF:
 * wall-time:     0 d,  0 h,  8 min, 10.412 sec
 *  cpu-time:     0 d,  0 h, 45 min, 44.080 sec
 * ratio c/w:     5.595 speedup
 ANC optimizer:
 * wall-time:     4 d,  4 h, 49 min, 50.974 sec
 *  cpu-time:    23 d, 17 h, 39 min, 17.472 sec
 * ratio c/w:     5.650 speedup

