3536
 energy: -3716.276030010374 gnorm: 0.000828184348 xtb: 6.6.1 (8d0f1dd)
C           61.20939059181375       69.08122962626997       60.03921257559285
C           62.24047251511816       67.95416331336165       59.97257169189167
C           61.88700265008936       67.00029329570700       58.83455092080263
C           62.28514314994799       67.23568995598227       61.32586764641903
C           63.38370439704866       66.17781266026142       61.50401890982344
C           63.08139461419436       65.35659875717360       62.75646233920344
C           64.76341296364632       66.83986327312859       61.58861005571046
C           65.96105860353482       65.89070158952001       61.73453770664196
C           67.20358438977685       66.71699146792631       62.07141111793871
C           66.19300283682151       65.06582730993814       60.46237179782919
C           67.05813744826497       63.81683106529145       60.68247616866071
C           67.65709300343525       63.35398899470864       59.35503152363827
C           66.24791153981487       62.68077089580770       61.32308446552499
C           67.10878107673143       61.70391749406038       62.14184735126008
C           66.41633996452964       60.34687667719454       62.22411443514555
C           67.37647718267171       62.31237816671120       63.52771030831795
C           68.61058725147279       61.83915708003130       64.31887421265340
C           69.85510711069476       61.73795251325587       63.43388867020478
C           68.44324647872779       60.52588445205813       65.09568066446715
C           67.36340127074443       60.48178500089393       66.19036349917144
C           67.55604203013168       61.59436295915548       67.21696356148624
C           67.43695887451189       59.09003566663923       66.84012109502477
C           66.57459705620983       58.81637141802017       68.08140651833190
C           66.92948291626624       57.41832760646098       68.59269794375371
C           65.07389953034759       58.92398264234729       67.78681500328896
C           64.18811506231161       58.93220775045368       69.04222801511432
C           62.75738393823773       58.52840907413033       68.68885528259767
C           64.19377144129740       60.30203376647572       69.73926299656503
C           64.04080716371617       60.20038537471319       71.26372026742089
C           63.55184317706811       61.52603212879700       71.84488658691014
C           65.37840202508464       59.80001500660282       71.90122345225421
C           65.27009640388862       59.09261496414378       73.25990953855209
C           66.61704598827795       59.19019565137611       73.97669814757450
C           64.86286364178781       57.62664752442952       73.06379064025347
C           64.52400283157932       56.85815747398172       74.35522566081151
C           65.22900708266926       55.49985210219361       74.35092515210792
C           63.01443653975675       56.64728514085918       74.53802197638846
C           62.19595062186319       57.91344399218013       74.80926345845978
C           62.60278138444104       58.56907666852659       76.13018552481742
C           60.69331744016673       57.59764741757905       74.87550427597148
C           60.02636059760127       57.07834152009796       73.59154333197745
C           60.32689775855535       58.00944082238857       72.41751550009839
C           58.50875486202887       56.95235309944299       73.83493939588070
C           57.81934345994903       55.73603504813991       73.19797332424068
C           57.91780216091600       55.76254977791989       71.67657286473009
C           56.34627700414531       55.71804383185884       73.63663818977668
C           55.59256113391420       54.40064474780750       73.39339497632382
C           54.08743229415981       54.66633346052365       73.42299839767499
C           55.98384703662357       53.36175112998252       74.45060917578449
C           55.54393093256706       51.91430603616526       74.17673267790036
C           55.69880647370753       51.10468659523752       75.46335040109203
C           56.36959812698012       51.30657292568602       73.03664094918481
C           56.08419358757553       49.84169809780479       72.66696164782725
C           57.12897449348271       49.40415624311049       71.64176416756165
C           54.65075403398934       49.65844345737231       72.15052946839489
C           54.28864882492812       48.21817308019308       71.73268361906921
C           54.38212434449218       48.06546705020029       70.21219554567507
C           52.87244559711731       47.80420169914565       72.17953209656010
C           52.78783737924151       46.95865103600590       73.45754875575042
C           51.38185619957292       46.36771577626421       73.56147836873289
C           53.15394854309075       47.77910109592946       74.69841494465147
C           53.17714499534677       46.97556370869552       76.01204505402566
C           51.92719888898615       47.25326108402963       76.84897802155299
C           54.41778217127528       47.30642438644826       76.85372610277825
C           55.73923664052831       46.75441086151511       76.29845894807364
C           55.85310171471512       45.25741792181800       76.57804204722702
C           56.90355909566919       47.53030234601766       76.92839323094803
C           58.31423954333882       47.19771947474744       76.42261295748349
C           59.32468531965497       47.93967622648726       77.29876629268936
C           58.48698117946754       47.57319582480109       74.94678531621742
C           59.83124567731418       47.12407513311483       74.34163942654068
C           60.70078832692457       48.33272002386303       73.99678821658387
C           59.63175408634699       46.25571458334161       73.09173747186279
C           59.06405926215785       44.86014670484553       73.37782858243668
C           60.14081657564061       43.95469317780390       73.97745917343485
C           58.51789946192009       44.20769557371069       72.09847726916041
C           57.17484413931547       44.74820642184392       71.59479579389364
C           56.03960238649869       44.39293979349363       72.55552220553191
C           56.83590230025895       44.17496231094619       70.21063001256225
C           57.74741693021773       44.59015798333467       69.05003260427075
C           57.81451952115658       46.11148587991728       68.91170024280092
C           57.23215999965408       44.00713000875488       67.72674616032988
C           57.20090635347183       42.47982264072339       67.57819474232767
C           58.58927195763682       41.87253691250297       67.75252179111456
C           56.63116251551534       42.16273637236730       66.18717406767205
C           56.32512211026648       40.69178956743248       65.87369918129127
C           55.92963435341837       40.58272417727841       64.40064960233155
C           55.21929062277766       40.15820608498835       66.79116194396541
C           54.78380284662251       38.71551103096922       66.53021374965282
C           55.90941485871567       37.70428782572873       66.71484598228992
H           60.22488756271691       68.67829877275956       60.27151384398260
H           61.47327816163075       69.80180632249426       60.81072210142363
H           61.14948637940950       69.60820794079227       59.08879823499579
H           56.35921372130809       37.81037660597415       67.70022137239913
H           55.52661884586232       36.69004992850893       66.62131301742393
H           56.68564953443773       37.84216204760878       65.96649096264473
H           55.55838070225120       40.22393673399188       67.82714634747676
H           54.34418533757943       40.80566125171153       66.69105017862367
H           55.70695254864806       42.73078119303408       66.05122959838114
H           57.34564550239584       42.52674802120558       65.44533555037623
H           56.53467557013597       42.06566086545568       68.34017995520340
H           58.97846646906297       42.06657880310319       68.74853213043680
H           58.56287542581055       40.79460868531105       67.61402444103157
H           59.27800545680062       42.29631560324102       67.02501773106322
H           56.21333869216200       44.37358065081406       67.57881218778842
H           57.84734144213006       44.40860474077392       66.91738300203522
H           56.83822968650500       43.08543819696107       70.29136931125340
H           55.81604573849322       44.48024577076249       69.95959144606771
H           57.23187412389892       40.10001286837591       66.02955511271568
H           54.98306781149498       41.08797891579304       64.22266663899954
H           56.68587140031492       41.04674324891155       63.77112079418632
H           55.82983691556462       39.54631348033463       64.09051732467523
H           58.76037726953195       44.21737701291442       69.22520502414497
H           56.81341593993656       46.53188578907751       68.85195505173321
H           58.33163549054772       46.56186818593042       69.75363959667213
H           58.35328999855631       46.38763090631321       68.00833643227955
H           57.22357088817920       45.83784176761608       71.52374509658699
H           55.97375258869380       43.31436039026273       72.68818432579131
H           56.18588076870444       44.84724758240094       73.53181439557022
H           55.08832452421393       44.74418681249280       72.16028144617397
H           59.27014975073588       44.32698907256341       71.31615450004608
H           58.40215389167402       43.13455407567515       72.27489735462231
H           58.25472817723394       44.94780884848856       74.10744484328254
H           60.94921738333922       43.80170587597264       73.26452496895106
H           60.56219545484069       44.38793748848411       74.88135699468012
H           59.72421414140616       42.98280183816495       74.23515151186669
H           58.97006815503209       46.78981413808022       72.40721238943576
H           60.59407238655206       46.13289004151743       72.58810881806932
H           60.37012676787242       46.52734476653750       75.08416141835785
H           60.25690509952382       48.89882843546248       73.18008003329632
H           60.80413375139590       48.99159618889427       74.85529704450367
H           61.69683314624213       48.01957076299765       73.69078616182357
H           57.67524399057086       47.12474986971480       74.37438816003197
H           58.38556021191597       48.65642708667878       74.85188739560012
H           58.49343552329945       46.12318571819409       76.53516156629394
H           60.34563906369756       47.73023378258384       76.99032360717879
H           59.15868829324503       49.01384572117546       77.23700292353497
H           59.21962403455905       47.64056379280399       78.33989331513865
H           56.73601518901403       48.59843488991369       76.76920272953492
H           56.87555703418131       47.35649996624354       78.00792371979568
H           55.74936430435352       46.90688458047055       75.21512815729676
H           55.91186368053171       45.07540465859226       77.64958812617240
H           54.98883804542714       44.72474533984373       76.18825232468589
H           56.74076706369353       44.83634813095604       76.11229012758542
H           54.48682402289674       48.39352698984838       76.94301765796028
H           54.27864248865131       46.91059378512352       77.86298206365045
H           53.19871755964827       45.90774327103789       75.77222603053316
H           51.92366635910909       48.28902412284269       77.18418471713781
H           51.02189173133259       47.07752363185897       76.27489296521736
H           51.90321095112070       46.61195751012482       77.72828281010531
H           54.13988040202697       48.21030100375175       74.52752838052089
H           52.44941242780532       48.60851011637753       74.79586776473150
H           53.50086011900153       46.12922534778712       73.37357956772576
H           50.64350957769806       47.16174686984014       73.65489623870015
H           51.14562687144848       45.78984466805080       72.66982152503665
H           51.29302122244863       45.70596215524967       74.41855009447821
H           52.24945040654710       48.69119870498936       72.30829658636020
H           52.42220697108321       47.21410794262253       71.37760963489761
H           55.00277714294103       47.52699424123821       72.19352639990953
H           53.60889244276224       48.66329225569194       69.73207195546458
H           55.34502134016869       48.39490805719159       69.83570106436849
H           54.24045824465689       47.02509843154978       69.92294882952807
H           53.96886269931072       49.98344886948760       72.93710619822521
H           54.49795182255703       50.32384598530498       71.29685506530629
H           56.21371296639265       49.21750463740852       73.55704643600490
H           57.03435431621333       49.98789018704256       70.72795007054788
H           58.13035024198449       49.55723101415686       72.04092917893804
H           57.02492927727834       48.35159902005555       71.39436963645522
H           56.22661074940300       51.91131871505074       72.13792405103297
H           57.42509858258818       51.38318519432620       73.31359190687135
H           54.48594823669163       51.91473098882268       73.89904210653140
H           56.74926162852439       51.03214787895534       75.74003273561540
H           55.16266250789500       51.58200033563959       76.28191674349817
H           55.29916902695448       50.10172005848751       75.34503940669471
H           57.06899541854563       53.36647503463206       74.57185800421155
H           55.55262715373259       53.68055998528459       75.40420497305225
H           55.85196087505968       54.02049001317839       72.40190885779225
H           53.79329821909684       55.06970025288387       74.39061097034177
H           53.80769852596715       55.38460212003136       72.65526871932451
H           53.52219655710337       53.75481144079252       73.24749354861613
H           56.28533750130265       55.94881439087453       74.70401630730645
H           55.83258126263100       56.52311421252060       73.10582852238865
H           58.31536714989276       54.83065461090874       73.56696717322514
H           57.49955016604106       56.68845397850914       71.28786150036706
H           58.95200795103538       55.68183157287584       71.35561067572687
H           57.36934996460833       54.93270485778344       71.23946084998218
H           58.33337757133790       56.89846687676790       74.91301305112788
H           58.01557172862118       57.85580506480737       73.47178877335878
H           60.42251230189547       56.08230582077648       73.36950838485060
H           59.69713108817739       57.78266159234946       71.56363322513535
H           60.14859973947713       59.04349694812694       72.70382266650262
H           61.36377448845681       57.91373473240218       72.10410599887699
H           60.53482882833045       56.86421696612791       75.67192778323900
H           60.17441121235015       58.51444854141215       75.17035703136510
H           62.37054811771029       58.63353104566816       74.00619479564781
H           63.63524279096831       58.90794154038679       76.10623592616832
H           61.97371457294484       59.43357326070227       76.33404309534534
H           62.49236953398661       57.86630030778427       76.95424144681081
H           62.63017298548993       56.16334883921208       73.63951082014123
H           62.85885832128756       55.95769647753215       75.37289278600851
H           64.90116521492840       57.41379131509257       75.21721063940488
H           66.30864815735045       55.62872608900481       74.30563538855002
H           64.99269046332759       54.93699014115649       75.25221857175467
H           64.91936187833380       54.91197921726345       73.48870314318359
H           64.00545397209225       57.58098459155320       72.39001624296738
H           65.69155830321080       57.12445530721732       72.55707973067666
H           64.51518414442721       59.59836652458257       73.86965418012475
H           66.87353788055138       60.23042776899762       74.16788868068930
H           66.60217233954373       58.66787842712300       74.93010944859601
H           67.40178203664529       58.75197115769284       73.36239988418271
H           65.92464534047336       59.14055147923418       71.22365826774559
H           65.97987601006474       60.70542309450946       72.01825530596534
H           63.28924761093052       59.43615796109854       71.48569876990825
H           62.56162281160039       61.77327703193367       71.46803990653015
H           63.49707263337597       61.47613815180263       72.93016918697113
H           64.23126788771289       62.33299000733707       71.57470248265146
H           65.12372677848377       60.83318098243395       69.52610351651947
H           63.38110462508213       60.90751963433389       69.33086732027527
H           64.57253750013084       58.18554683191491       69.74221257275205
H           62.11928508184468       58.56981055930177       69.56851131867685
H           62.34332682386722       59.20023627229632       67.93963459508686
H           62.73097852876543       57.51410952172179       68.29769131224344
H           64.87796918488083       59.83672869066591       67.22168867860941
H           64.79249094234872       58.07699425234455       67.15669344893833
H           66.84211756499752       59.53546894774524       68.86151909009448
H           66.70370312631688       56.67133761656394       67.83395041076862
H           67.99028513367402       57.35495122818918       68.82902925049470
H           66.37223472324045       57.16622619267228       69.49068048735045
H           67.18166913907146       58.34705869159890       66.07933794477393
H           68.47891047189434       58.91250468621524       67.12415931108691
H           66.38064974779813       60.60242907877391       65.72435690848580
H           66.77709948307577       61.55839670840729       67.97361036692634
H           68.52222849341470       61.49690457376980       67.70871989171624
H           67.50558374204600       62.57161445774327       66.74398394473313
H           68.25668155415438       59.71176407412420       64.39366639763151
H           69.40598900378100       60.31641245208386       65.57322757818518
H           68.81557000560149       62.62528441647327       65.05519459488103
H           70.74728119383185       61.64195083236061       64.05002529588114
H           69.80431425955865       60.86777942383817       62.78378738834299
H           69.96341041902730       62.62832550016864       62.81817494538084
H           67.49880840115785       63.39004537913912       63.38974772763994
H           66.48709793249907       62.17573008921887       64.14626869115111
H           68.05652766191542       61.57051076521704       61.61487332175560
H           67.03081812606156       59.62407849580159       62.75083206521942
H           65.46557598549123       60.43317157145944       62.74489243213828
H           66.22355093065352       59.95898895764044       61.22525349522585
H           65.47541840906220       63.09229430886477       61.97534638369969
H           65.73805330370763       62.13547933895313       60.52722971144818
H           67.88730503645878       64.07957692298473       61.34728112923253
H           68.23353125649805       62.44150708960007       59.48632393357306
H           66.86780251693924       63.15675187557902       58.63197897496840
H           68.31703666211720       64.11404434459956       58.94171627113169
H           65.23692090226828       64.74534805402774       60.04604713060366
H           66.67049657332167       65.70991249506343       59.71939444201340
H           65.77635086610053       65.21366807502241       62.57257306263994
H           67.39081919329242       67.45753027899761       61.29540036040013
H           67.07254648260971       67.24007042305023       63.01681035553780
H           68.08515483329704       66.08624057200637       62.15715960833661
H           64.92406812323162       67.44690647619929       60.69445787225466
H           64.75952995031548       67.52055210062152       62.44539090658428
H           63.36226480172576       65.50359126256443       60.64424260877747
H           63.20671833620666       65.96448489230777       63.64917326231393
H           62.05679459341824       64.99269913201051       62.72947932980605
H           63.73845716366253       64.49456920853163       62.82912425003728
H           62.39988554788023       67.98645343672234       62.11286759291360
H           61.31563015227604       66.75393830384665       61.47436626020416
H           63.21789458156371       68.40208463015475       59.76274063877137
H           60.93924515869877       66.50512361008730       59.03618592479449
H           61.79702896544181       67.54924822411886       57.89884790621217
H           62.65337719530448       66.24132750189835       58.70277602781372
H           53.97862980658503       38.47540407543600       67.22992185255548
H           54.37237966625295       38.62439513835165       65.52414598803405
C           64.06990541447249       68.92676253534680       67.07781437929251
C           63.69485241940482       67.45064556053218       66.96039385113566
C           64.81146879540925       66.69517244410078       66.23896835897344
C           62.37193700035209       67.25219235024069       66.20928964120445
C           61.14097899113030       67.91406780149867       66.83809079498677
C           60.85758814734125       67.34520546035490       68.22889717734088
C           59.89277342856589       67.71282537205147       65.96490413383528
C           59.96084700855629       68.25155632277206       64.52974297050783
C           60.45731966956844       69.69722353579081       64.48364018544422
C           58.57841635016577       68.20109018689399       63.86093973955447
C           57.89504010708786       66.82990659623982       63.79929823445784
C           58.75115585708454       65.81271705957499       63.05025712301892
C           56.51931044314293       66.96213975044886       63.12236381351126
C           55.45307309898946       66.01174157969490       63.68965947807207
C           54.32925922664033       65.81868305080476       62.67444400223906
C           54.90567208306599       66.57850376641160       65.00527472089028
C           54.06019329422030       65.61886785510860       65.85576824259105
C           53.26226393897560       66.44085371061459       66.86798925776267
C           54.95321833914274       64.59112318956971       66.56257921921942
C           54.21632534215050       63.45665247719713       67.29669304371689
C           54.93917984849349       63.13708084195459       68.60670551766738
C           54.12077033832315       62.16537272016574       66.47517913909869
C           53.27494426479839       62.21002129524055       65.19732078564365
C           51.80992300755472       62.49162247634239       65.52261734553581
C           53.41567343163897       60.87622986646905       64.43519175785011
C           54.22972134032540       60.96039228717483       63.13652363764187
C           54.21471644069958       59.59958182511085       62.44403046036267
C           55.66160445845768       61.41739932552316       63.42544032478344
C           56.57930706581153       61.62227405919633       62.21391926647591
C           57.98524222220750       61.91280640746666       62.73386713341329
C           56.09460734551194       62.76577704548185       61.31729480276505
C           56.70871310759253       62.77604885925352       59.91191782805533
C           56.40258538369469       64.11316266481739       59.23924598141082
C           56.19553043156901       61.60126390396087       59.05881990803766
C           57.30171935258763       60.70786064636174       58.47951792511866
C           58.12280426773168       61.45783658627610       57.43161906346270
C           56.69921056659739       59.41228360878115       57.89895965247232
C           57.37995047608761       58.12525940481988       58.38575299670826
C           58.66092760331556       57.85670790747884       57.59802325589823
C           56.43132957997661       56.91991214584039       58.28724390749251
C           55.34539554237563       56.87194632828535       59.36993621703604
C           55.96111083953706       56.66446376634854       60.75341029827393
C           54.34368160426082       55.73300953202481       59.12923937143331
C           53.48414840819864       55.80611400452179       57.86259463722020
C           52.79173161867843       57.16186445488874       57.72920915795185
C           52.41029716561191       54.70635682188299       57.87546697656784
C           52.91540662155268       53.26900674364752       58.03926500750328
C           53.97523703168834       52.92523921801702       56.99469581278775
C           51.76785977775572       52.25856461875339       57.90288999115223
C           50.57476739169014       52.42834103091443       58.84889208695684
C           51.00982052613418       52.46831003765195       60.31250613554402
C           49.57564012531987       51.27563515498390       58.66626706922686
C           48.98322649549951       51.11532580521852       57.26276935421180
C           48.21849333699453       52.37245834007928       56.84970236224810
C           48.04600202380457       49.90100400397325       57.18433871812798
C           48.67661707236221       48.52677382716139       57.46499924923324
C           49.93456797410742       48.32117974511569       56.62392757569500
C           47.64182287739421       47.42238724035153       57.17160554852502
C           47.64114620104948       46.24114746018230       58.15116323746361
C           48.94425795797381       45.44874515031353       58.11493559547445
C           46.46320424094370       45.30164146174745       57.84659098070046
C           45.11743167641228       45.79755188831872       58.38596563438684
C           45.02218120760853       45.52818886876021       59.88676889842130
C           43.92990134691615       45.11812497142839       57.69180996199977
C           43.69554655089692       45.50027791274908       56.22358732077423
C           43.16902271087586       46.92686420609540       56.10270018285231
C           42.71858707796496       44.49066126699573       55.60285116157407
C           42.28872328738224       44.75471055960344       54.15267498962460
C           41.23257677890623       43.72124564159088       53.75828464602674
C           43.49132741467562       44.70116141454371       53.20433741531130
C           43.23573941378330       45.17895954401441       51.76682790548515
C           44.42584018813947       44.77505183668993       50.89778606883759
C           43.01093062170446       46.69558030815526       51.73626624202279
C           42.77142788592622       47.32465516791583       50.35546378804542
C           42.59636003751640       48.83299997144522       50.52746238956633
C           41.55333656562741       46.69276571027071       49.66900808324583
C           41.09438796382160       47.35171863499452       48.36005254173681
C           39.79251360303777       46.69225643706091       47.90415171342440
C           42.17605056953742       47.24105529044929       47.28082358957619
C           41.94756362271775       48.06873675032904       46.00676833740197
C           43.00563375652802       47.66910715487898       44.97939912890154
C           42.00042425144493       49.56930976269372       46.32472587647989
C           41.97812422112366       50.53530468023322       45.13036784215824
C           42.05933354444047       51.96613135387634       45.66336171642696
C           40.72165324079006       50.33550461456218       44.27523957473953
C           40.64983336703566       51.15553549404465       42.97785725445672
C           39.24786228555205       51.01963693080283       42.38299936090765
C           41.71869304702530       50.70637441377252       41.97552624511724
C           41.80786874887882       51.58551441312130       40.72871821708787
C           43.03852765732238       51.25001872764238       39.89408100111972
H           64.10666426747676       69.38900221505861       66.09270330698972
H           63.35393522998686       69.47110095699109       67.68805638776263
H           65.05027232623334       69.03133641938106       67.53860433824676
H           43.06685221264516       51.85576425130670       38.99086274912203
H           43.94679213580097       51.43916930941943       40.46193444734558
H           43.02736154486116       50.20127726981436       39.60368136485760
H           42.69267726256260       50.72408682321814       42.46818930025866
H           41.52183371624307       49.67321440844303       41.67671955420742
H           40.63634951917917       49.28220988063049       44.00192432157928
H           39.85203557952038       50.58370183996495       44.89028330808740
H           42.86722371060826       50.34992923360382       44.52351529035191
H           42.92628388855309       52.08349259303110       46.31009766299070
H           42.15010570134910       52.68549523090648       44.85432892534535
H           41.16884417097135       52.20684382903944       46.24109845919082
H           41.15557779521112       49.82021968797972       46.97008804927095
H           42.91704752210655       49.76020547831605       46.88996958591709
H           43.13565774419130       47.54573622897528       47.70144585139163
H           42.26386960804427       46.18751727199933       46.99983031096127
H           40.81567428070972       52.21267017014205       43.20925615607063
H           38.49585001572923       51.31711183845156       43.11098674096230
H           39.13192746747671       51.64928759645240       41.50498752320779