3864
 energy: -5104.233424220297 gnorm: 0.000861658059 xtb: 6.6.1 (8d0f1dd)
C           62.87910227665363       52.55883343627006       54.16306175254508
C           62.44789783671827       51.25846854692758       54.39871467949002
C           62.08813673242686       50.90820576442314       55.69524212704417
C           62.14074960155471       51.83179821547930       56.72359800529142
C           62.57970114797872       53.12095484330167       56.47705839378858
C           62.95351103369508       53.47896072500748       55.19322861386803
C           62.44461917735520       50.25535543608593       53.27129852388222
C           63.69402988129378       49.37688281886421       53.39855719159074
C           61.19057822252906       49.37481000093934       53.24162671631749
C           59.88768475288113       50.18502969223407       53.12657425142708
C           59.75732327459738       50.75399638841852       51.73211736315400
C           59.21120719104239       50.01793106410049       50.68774717161895
C           59.10078291179414       50.55366072384953       49.41716378655010
C           59.55582078186840       51.83485039761857       49.16015226704496
C           60.11306405576887       52.57625961952984       50.18769606355625
C           60.20286613882588       52.04298180253511       51.46201559669558
C           58.62995264660060       49.40267983392069       53.57146907945175
C           58.60780888833406       47.86856071900726       53.33748007611079
C           57.25514008566515       47.50152503269470       52.77516034985369
C           56.09998106054600       47.63375738579042       53.53832623574207
C           54.85482972498468       47.39698661337307       52.98585032534449
C           54.73677266426805       47.05227118994735       51.64989829709633
C           55.87866645609114       46.90961650947425       50.88212667176162
C           57.12452584017192       47.11431708382769       51.44718054982373
C           58.92411379554273       47.11626153057637       54.64031557705795
C           59.48805258400213       45.69535816170810       54.46193348986828
C           59.95370029040276       45.23031427066656       55.82067614014101
C           59.04771074503374       44.96533736684231       56.84238173325956
C           59.48375354580217       44.63262404933014       58.11172032745334
C           60.83949019866817       44.54729575355724       58.38031407989778
C           61.75256933359738       44.79242806633994       57.36932036820022
C           61.31068808761314       45.13588128451001       56.10277411419758
C           58.47614092652714       44.73518890787398       53.83068032751002
C           59.00532017563141       43.29671786414368       53.71908877459961
C           60.28867685936166       43.23285618601863       52.93267909901640
C           60.33574561992787       43.61094710421983       51.59649351555127
C           61.50795530602779       43.51153998505877       50.86941866449774
C           62.66101619259143       43.03754798188816       51.47177474663417
C           62.62981669890833       42.66677586192392       52.80529290146657
C           61.45285830347795       42.76209452721798       53.52715641943821
C           57.91825688781151       42.41061678288283       53.08462814104168
C           58.41670335795109       41.03569931364070       52.62806276312861
C           59.25835395276404       40.32278387050031       53.65905273210419
C           60.39602357094701       39.62726406900750       53.26937309999241
C           61.12300413115189       38.88306507208560       54.18107978175355
C           60.72137283343017       38.82103829232555       55.50453904676409
C           59.58906011380100       39.50930304072579       55.90545252675952
C           58.86250501585831       40.24806916957740       54.98903775084723
C           57.27178285914083       40.05932924477699       52.30538291462780
C           56.34015611800366       40.41311464442001       51.13913364607148
C           55.39590427563496       41.53332853048774       51.48490248391721
C           54.53816949932006       41.43895388231706       52.57416188317855
C           53.70260441230825       42.48662846623930       52.91360629418088
C           53.70343027676714       43.64727683376417       52.16020247739689
C           54.52525664977998       43.73838538352828       51.05139696455083
C           55.36208245231757       42.69026372077466       50.71839818774598
C           55.54670588909306       39.15444010317930       50.74120859108422
C           54.69924798314687       39.32509097309944       49.47052794075729
C           53.68489678197144       38.21429564708117       49.35562755546548
C           52.33351380227681       38.50601584731897       49.21858846986560
C           51.39559721643344       37.49783019975301       49.08306084728187
C           51.79781876909403       36.17355214015794       49.08904329240669
C           53.14110398684718       35.86849361947210       49.23460492918873
C           54.07582439271318       36.87947116695017       49.36474840862668
C           55.60600854064602       39.34313145076437       48.23535864157768
C           54.88142501066717       39.50678045239975       46.89006941951835
C           55.92689542588829       39.36611855844361       45.81254616272218
C           55.91649732226992       38.27090273296457       44.95942188897126
C           56.91601423747910       38.09770753883657       44.01755493410514
C           57.95744163483358       39.00453414840569       43.93348019139480
C           57.97358593572348       40.10682770071951       44.77055575710411
C           56.96189571726503       40.28737444633503       45.69414956724675
C           54.13341635590686       40.84281528828366       46.81223383154219
C           53.61736947734188       41.17658712288068       45.40490111774027
C           52.70768558952102       40.08953594246724       44.89192253024751
C           53.03660258760788       39.36697515763948       43.75122654375203
C           52.19073170074756       38.39145376942466       43.25249907933603
C           50.99787833274760       38.11423565776884       43.89847602896756
C           50.67032616411435       38.80432360481960       45.05404389964487
C           51.51780390725782       39.78144829923750       45.54308473105226
C           52.89570313429886       42.53190607595726       45.44473371606226
C           52.52483782004248       43.09241137145003       44.06320491334768
C           51.56754332066025       44.24585799888393       44.25357340311270
C           50.24535384958431       44.14942538439604       43.84193291066072
C           49.36784917668373       45.20723818039117       44.01301680754159
C           49.80042802817870       46.37915439227018       44.60628921439893
C           51.11495904930172       46.48562527236935       45.02808046471310
C           51.99037259057138       45.42999168869355       44.85083152549180
C           53.76401727338750       43.55072206647970       43.26744418769957
C           54.19209383666368       42.61962171274870       42.12087844106746
C           55.68718976260183       42.65888723514588       41.92378792483123
C           56.33966203281707       43.87177680274198       41.73345976687910
C           57.69971110258949       43.91704998826258       41.49126071933362
C           58.42724078860128       42.74254983591841       41.40753491899195
C           57.78742119540139       41.52979448472804       41.58582665794732
C           56.43041425223743       41.48939804487973       41.85484571618674
C           53.55586536433183       43.00320761414888       40.77416423030645
C           52.07465579432441       42.63193372028292       40.60823344473149
C           51.52948677594189       43.38201679099476       39.41955107749914
C           50.55748341771788       44.35948704000966       39.59763055791472
C           50.04702451048753       45.05966122564462       38.51839260964034
C           50.51472992882412       44.80003535713054       37.24225780392722
C           51.49890092043976       43.84491109352903       37.05268979578489
C           51.99884074321002       43.14040617050387       38.13327435251795
C           51.91789649680691       41.10922092711516       40.46408425950158
C           50.54981431762941       40.68103325681126       39.92002169008882
C           49.42816124708992       41.21351961723929       40.77955916376697
C           48.48380540591602       42.08411116881584       40.24919036870956
C           47.44452015611787       42.56795271232816       41.02391893929151
C           47.32810396529914       42.18062840115191       42.34717101864093
C           48.26159682701021       41.31352094987127       42.89026146673847
C           49.30376867953876       40.83923615509512       42.11333154049056
C           50.42021292953233       39.15089261971168       39.81966909806303
C           51.52521661581720       38.41206210364029       39.04681408735823
C           51.20366861615416       36.93703256393061       39.08263406460447
C           50.07770901104523       36.42987544178180       38.44404764854746
C           49.77544200623343       35.08205486182183       38.49968632161244
C           50.59130979987147       34.21480982472715       39.20646382974572
C           51.70778592488496       34.70706952827444       39.85963074295172
C           52.00645398769765       36.05679328969957       39.79739797312741
C           51.70166525850146       38.92567038529111       37.61179675700027
C           52.91816164618935       38.30092237265964       36.90349592637121
C           54.14537105573636       38.45030021709256       37.76499697095291
C           54.74477231469989       37.32498805694087       38.31658640539784
C           55.82390698983213       37.44437991410067       39.17369840428549
C           56.32037679082994       38.69411136157238       39.49771038533991
C           55.74955025742246       39.82252890019691       38.93299350500346
C           54.67682990894464       39.69923319174431       38.06929661173681
C           53.09744844425572       38.94131072954470       35.51848778891210
C           54.39653858594703       38.52503466028261       34.81480232720685
C           54.41691522505891       37.03969466287248       34.55146138441395
C           55.34752310200430       36.22153789215601       35.17993209673343
C           55.38554422879419       34.86186986956584       34.92601976775126
C           54.49657895980814       34.29692758104120       34.02829574937955
C           53.56549348380304       35.10122291499780       33.39381039926814
C           53.52454688792970       36.45823383592190       33.65774435849063
C           54.58883521658954       39.28529685139875       33.49017416411637
C           55.06293673055692       40.74055314143987       33.64897967702023
C           54.71724954390551       41.52183628329617       32.40294719210794
C           53.86500309912664       42.61685641027254       32.45921004878309
C           53.57163637279962       43.35273012031033       31.32541097856382
C           54.12174300698319       42.99851279886146       30.10745014886743
C           54.95980449510470       41.89873658019732       30.03169803125989
C           55.25359178085784       41.16949540610961       31.16899040723213
C           56.57220997227719       40.82611463037425       33.92036910341092
C           57.04321343807928       42.28077747803114       34.10129726274104
H           62.51018709474081       50.80525782214077       52.32580233966183
H           61.28057119171817       48.69502988399977       52.39179259378495
H           61.16467503148720       48.76956294127651       54.14710451733731
H           59.97974360602377       51.03642783364521       53.81226556929243
H           58.47705725327655       49.58086428596364       54.63795151027288
H           57.77430123652698       49.85424452391182       53.06251699428101
H           59.37115636975280       47.60119034897965       52.60290386625287
H           59.66855564205637       47.68295351403368       55.20462290507781
H           58.02761396417883       47.06358580752512       55.25910129051724
H           60.36288517245073       45.74927084301702       53.80283046149582
H           58.22142268417686       45.10067435665145       52.83602529980028
H           59.21889045019861       42.92848257647393       54.72864566607272
H           57.10334554276776       42.28981501105022       53.80075635351352
H           57.50390601077047       42.92708778400944       52.21857485314118
H           59.02474142190539       41.17083547218925       51.72754079314333
H           57.74430594449246       39.10285444474147       52.07195039531484
H           56.67728096131062       39.92057892047050       53.20784874412572
H           56.96308451769659       40.72202408319573       50.29476842937724
H           56.24117810959758       38.32387152434738       50.59438927531300
H           54.87978110864386       38.88863911554496       51.56454609190530
H           54.16197469495545       40.27554649194417       49.54381471644422
H           54.15330470290199       38.69447553943598       46.78040777469448
H           53.28979426104672       40.81264764277045       47.50246375011939
H           54.79534002497647       41.64764758584298       47.13213631602400
H           54.47927746820577       41.25812138189938       44.73502987233667
H           51.97668687903032       42.42274033669442       46.02374449110086
H           53.53115470566083       43.25492816413770       45.96086105730662
H           52.00380699701987       42.30021654443570       43.51650265488855
H           53.55828956960182       44.53800093651896       42.84853418358842
H           54.60307733599373       43.66376648250773       43.95798173745321
H           53.90547629927885       41.59476995206136       42.36270567683165
H           53.66620874662349       44.08036641286013       40.62999303932236
H           54.12058323051370       42.51385105009730       39.97564412780160
H           51.51793895527601       42.96690348401191       41.48681966359199
H           52.69397352398733       40.73950255858359       39.79251778964840
H           52.07481817015643       40.63899771632276       41.43642489339543
H           50.42859777251622       41.10536977126691       38.91777362727789
H           50.40123454077735       38.73028058361706       40.82823926712523
H           49.46117756202937       38.91990889293538       39.35175382707111
H           52.47062558247602       38.55824472409384       39.57759695459826
H           50.80120248879295       38.72345985817640       37.02848438934053
H           51.83812771876789       40.00717698099336       37.63926038380649
H           52.72920978538477       37.22928425210127       36.76804038802833
H           52.24412625001059       38.65654446921393       34.89885191933548
H           53.08620456463667       40.02819616685017       35.61994793712444
H           55.23438319941250       38.76501187242719       35.47659636390104
H           55.31493949188877       38.74087778700953       32.88131962391626
H           53.64430783337917       39.28654932480993       32.94123455009898
H           63.17388296105846       52.85106070167640       53.16461523324994
H           63.31405132291419       54.47734273273835       54.98934798479984
H           62.63733493818583       53.83735563931456       57.28456969554553
H           61.84222465411850       51.53829545820523       57.72048711799822
H           61.76568305443522       49.90252915776693       55.91888669084540
H           58.85053516588179       49.01991318728278       50.87080258829904
H           58.64697663940350       49.97602886082847       48.62450531426965
H           59.46499642259790       52.24953970236119       48.16652772427754
H           60.46687212771757       53.58088766839417       50.00417852087985
H           60.62174194222664       52.64150640743946       52.25971474524501
H           56.17008262659898       47.93855000324879       54.57335053561363
H           53.96533287793999       47.51055260927888       53.58972023185517
H           53.75924310969845       46.90655864470637       51.21293887170079
H           55.80444935900650       46.65099754146005       49.83540371144353
H           58.01003892018579       46.97515294668849       50.84086639133728
H           57.98706759372736       45.02556328064908       56.64847922423052
H           58.77254400382016       44.45225779184942       58.90447143403734
H           61.17821314548839       44.29372290734482       59.37530758221438
H           62.81343268828658       44.72469780131719       57.56919399481977
H           62.03223730862501       45.33311892944509       55.32116867765500
H           57.55583836799376       44.72819491326935       54.41795923004758
H           59.44581929987601       43.97836943497909       51.10949322181964
H           61.51685842683022       43.79798340131895       49.82819630308992
H           63.57891706281521       42.95422793938619       50.90700274249840
H           63.52526335035571       42.29573756093596       53.28564487327907
H           61.43806068825128       42.46257314025219       54.56688594910243
H           60.71742151581792       39.66466368065935       52.23833399597392
H           62.00471939728780       38.34612991144284       53.85958716488090
H           61.28700187529645       38.23849717361701       56.21855971341940
H           59.26877317304567       39.46310061209319       56.93708943095739
H           57.97752408406903       40.76993414384875       55.31928892592838
H           54.52100198747578       40.53989658443807       53.17305316689730
H           53.05449437100989       42.39677387802376       53.77215065826536
H           53.06689872036215       44.47658258807660       52.42942743374208
H           54.51946080939379       44.63351203203653       50.45186573468019
H           56.00839105356816       42.77816219622242       49.85673022092612
H           52.00228619419204       39.53434226432750       49.22307112441136
H           50.34990905077135       37.74967133917364       48.97175008136441
H           51.06904069774514       35.38152186654005       48.98344043041443
H           53.46597716501997       34.83695544166473       49.24572914973192
H           55.11765872429306       36.61356584700984       49.47063026145652
H           56.32311389388451       40.15820023620616       48.33648176832649
H           56.17073293409675       38.40767992877431       48.20805556443950
H           55.11633710503924       37.54618066291909       45.03931666341160
H           56.88612673441952       37.24944480296530       43.34918902570266
H           58.75280659966369       38.84509767380520       43.21943135840355
H           58.77915801982514       40.82391018692172       44.71343792498266
H           56.98924352766845       41.15442508557776       46.33581356826463
H           53.97400740357480       39.56064015344442       43.24808787912918
H           52.45658313736835       37.84661118375998       42.35701014686987
H           50.32899058110888       37.36161375249912       43.50250664055223
H           49.74777503092616       38.58181765064271       45.57238241137770
H           51.24167690215727       40.30246371142558       46.44790326068795
H           49.89251904567341       43.23629365251774       43.38205983153248
H           48.34409686322056       45.11114682293736       43.67759348205556
H           49.12359402370630       47.21055903110394       44.73912428117610
H           51.44936674999393       47.40153289146674       45.49430046097586
H           53.01639472399371       45.52370847728555       45.17736262562224
H           55.77177073316815       44.78822715581671       41.76695702013068
H           58.19524161603121       44.86580600991554       41.34260859099518
H           59.48601570425748       42.77919240448858       41.19833923773830
H           58.34269691642395       40.60674774367135       41.50199949756011
H           55.94485604251623       40.53372198194916       41.99772047226780
H           50.19087220421590       44.56624281407258       40.59435976063038
H           49.28087689370214       45.80829771464546       38.66451142978237
H           50.11644106751292       45.34766361015382       36.40254800950530
H           51.87603364792290       43.64860295372878       36.05808754480294
H           52.76842742623298       42.39928655064667       37.97375364268392
H           48.56575580604289       42.40315162738260       39.21977352710142
H           46.72949553184643       43.25122696845897       40.58721236364053
H           46.51849440054661       42.55758921186330       42.95675892756350
H           48.18658770887469       41.00628853175022       43.92407581955216
H           50.02685741994460       40.17329807550266       42.56200751313284
H           49.42260972568920       37.09209818170758       37.89724968862176
H           48.90062298418966       34.70419246025574       37.98886497963210
H           50.35621988831107       33.16073026643228       39.25005368859486
H           52.34601624040054       34.04149498349826       40.42373655465776
H           52.88254888414307       36.42601553194896       40.31242266755008
H           54.35490905918095       36.34478658420502       38.07695390885377
H           56.27048436046143       36.55108888460691       39.58748051921457
H           57.15336102303446       38.78765185915550       40.17796669459166
H           56.13720700635385       40.80324698870348       39.16766023752007
H           54.25471336852208       40.58920957563609       37.62500698254080
H           56.04811494154801       36.65263007429860       35.88087369185723
H           56.11287422319746       34.23812528313881       35.42711782805018
H           54.52900926516742       33.23622136749150       33.82398244077142
H           52.86370663360179       34.66922826971220       32.69471042171945
H           52.78604888632349       37.06643222918903       33.15651356052823
H           55.90692129275271       40.31280404397308       31.09003424708695
H           55.38774704793418       41.60915608440061       29.08194731440057
H           53.89675501394667       43.57090324726725       29.21887238609836
H           52.91129180762449       44.20348108562662       31.39454105882997
H           53.41509667926445       42.89768390934134       33.40080317680784
H           64.58933123478187       49.99530293907998       53.39008179277264
H           63.67525244525899       48.81976367885827       54.33344292805699
H           63.75180912568518       48.66762010792814       52.57538263200475
H           54.53644089610047       41.19523313749653       34.49335518268512
H           56.82260491018700       40.25274314820751       34.81522645390550
H           57.10641922447900       40.37629162322681       33.08220017490014
C           58.52709453758276       42.45050991643200       33.74604654872599
C           56.75990360213763       42.75538058113369       35.50505105689064
C           55.61418924501604       43.49332118951106       35.77326856594279
C           55.33736499352796       43.93671640743922       37.05444730778872
C           56.21411568122022       43.66190177393737       38.08845402945283
C           57.36174093804284       42.93118480459451       37.83383011914177
C           57.62598634420984       42.47336143175673       36.55508364558406
H           54.94043500356931       43.73631014943952       34.96359664110178
H           54.43946944069426       44.50483285781789       37.24394903960759
H           56.00796032036080       44.01508110064876       39.08719362083384
H           58.05387684265948       42.72650242370129       38.63871679358925
H           58.51783599059483       41.89334888421803       36.36863476751517
C           58.76606235243713       42.54261093449642       32.23449391799310
H           58.89610180727790       43.37210390321531       34.20296907179792
H           59.11421880307595       41.62221498962892       34.14793643156497
C           60.19812643171739       42.90000929850374       31.96115148615292
C           60.60385849878512       44.22953500149180       31.98034481864599
C           61.92523703358362       44.57021564854224       31.75374400089006
C           62.86420799275704       43.58321725815114       31.50647577829105
C           62.47418614406661       42.25441271368763       31.49831455104871
C           61.15124197472578       41.91748562018048       31.72697288334234
H           59.87468204065091       45.00649620628742       32.16531692268720
H           62.22380658935447       45.60912620785646       31.76119133071168
H           63.89417126746569       43.85135577353888       31.31953502800238
H           63.20139116722354       41.47668354527008       31.30845631339397
H           60.85549353545531       40.87769684549698       31.71472360430336
H           56.46502766924007       42.90607954715976       33.41148385160220
H           58.52054516608181       41.59292814387487       31.75666809816710
H           58.10837808125041       43.30824945242461       31.81636005067332
C           49.31661794792724       50.57553688151319       71.04019406300310
C           48.23223820950069       50.74469036191889       70.18230613655189
C           47.31316105890657       51.74089368558158       70.48026040381033
C           47.45971602359612       52.52556841049740       71.61244424263198
C           48.54266328567417       52.34865768407298       72.45311849606941
C           49.47935639026613       51.37280135284343       72.15679944204102
C           48.11451418443507       49.84173071080479       68.97369932845974
C           46.71986847999043       49.83715622009089       68.35350514388972
C           49.19031668123002       50.25864007964096       67.95538220220753
C           49.26017347271925       49.41748261684831       66.67002626096829
C           50.36057613529376       49.96797360883067       65.79396368210109
C           50.05916340700119       50.53108600714914       64.56005280352872
C           51.05377000669736       51.05061511583036       63.74985970127351
C           52.37123082563056       51.03418717139956       64.17329472460258
C           52.68443067646442       50.48972436584415       65.40646236681373
C           51.68930208114218       49.95326659549126       66.20348974309093
C           49.45649154763272       47.92204730162140       66.94893503235400
C           49.39521699381783       47.06596610907941       65.67488137177048
C           48.11024403020975       47.29780231121265       64.92032953494048
C           46.88126612457567       46.94931704702853       65.47047687525080
C           45.70842812125453       47.14626795582237       64.76358349690855
C           45.74400663459737       47.70992616337214       63.49930519393438
C           46.95935589564628       48.06903015427203       62.94464836640127
C           48.13176715440929       47.85001286701059       63.64623970537456
C           49.53587869606399       45.57273169495682       66.02499921348104
C           50.99619360668503       45.09039854675558       66.05756958993786
C           51.12130544033813       43.87797068339646       66.94446567934206
C           51.87649193082055       43.93221246779888       68.10898279958846
C           51.99531644663082       42.82707367228117       68.93344190259673
C           51.35424803264581       41.64493011949948       68.60645545505828
C           50.58962318457997       41.58070895960243       67.45387395355871
C           50.47320150206980       42.68763239422278       66.63334867536690
C           51.48003939471396       44.78733062661781       64.63591041348990
C           52.94704863265288       44.34071077130660       64.57219774172823
C           53.85352339952519       45.40471583777439       65.13195531688933
C           54.58127413476259       45.16065989236151       66.28945451506658
C           55.39353747208354       46.13887825676744       66.83577862385772
C           55.49651092501342       47.37575597707585       66.22355691394705
C           54.78867111127191       47.62590099872771       65.06057813063308
C           53.96976154812953       46.64969969509605       64.52459672945574
C           53.30581863347958       43.98718983837381       63.12391207005959
C           54.76345625144007       43.54478042856027       62.94211985664670
C           55.10131600854475       42.38517405763577       63.84208977763120
C           56.10066897559905       42.51178743018457       64.79858233443404
C           56.42562910100636       41.45576690288841       65.63123406535594
C           55.75552745549303       40.24971204263440       65.51813051164996
C           54.75830197791499       40.11097607717297       64.56824880993540
C           54.43453541689647       41.16977582644763       63.74047301186032
C           55.00024418212799       43.18808042822830       61.46807043657611
C           56.42349642806587       42.69481787848924       61.19156623715269
C           57.46015268851491       43.68897729342446       61.65431086525365
C           57.43064010005511       45.01267371411632       61.22886080114763
C           58.40643389824744       45.90844509445206       61.62538684588765
C           59.43067866515272       45.49671093349514       62.46021412998425
C           59.47124404959810       44.18209601975316       62.89241152368994
C           58.49543058187821       43.28717682601958       62.48849078195754
C           56.64900013181734       42.42078266558327       59.69569022460083
C           55.71811434441368       41.36023484190536       59.08520549157102
C           55.75513337281631       40.08509920241079       59.88713739712939
C           56.94113052065360       39.37486010143791       60.03958072833439
C           56.98349462685512       38.21188089903124       60.78580778865516