      -----------------------------------------------------------      
     |                   =====================                   |     
     |                           x T B                           |     
     |                   =====================                   |     
     |                         S. Grimme                         |     
     |          Mulliken Center for Theoretical Chemistry        |     
     |                    University of Bonn                     |     
      -----------------------------------------------------------      

   * xtb version 6.6.1 (8d0f1dd) compiled by 'stahn@M-Bot' on 2023-08-01

   xtb is free software: you can redistribute it and/or modify it under
   the terms of the GNU Lesser General Public License as published by
   the Free Software Foundation, either version 3 of the License, or
   (at your option) any later version.
   
   xtb is distributed in the hope that it will be useful,
   but WITHOUT ANY WARRANTY; without even the implied warranty of
   MERCHANTABILITY or FITNESS FOR A PARTICULAR PURPOSE.  See the
   GNU Lesser General Public License for more details.
   
   Cite this work as:
   * C. Bannwarth, E. Caldeweyher, S. Ehlert, A. Hansen, P. Pracht,
     J. Seibert, S. Spicher, S. Grimme, WIREs Comput. Mol. Sci., 2020, 11,
     e01493. DOI: 10.1002/wcms.1493
   
   for GFN2-xTB:
   * C. Bannwarth, S. Ehlert and S. Grimme., J. Chem. Theory Comput., 2019,
     15, 1652-1671. DOI: 10.1021/acs.jctc.8b01176
   for GFN1-xTB:
   * S. Grimme, C. Bannwarth, P. Shushkov, J. Chem. Theory Comput., 2017,
     13, 1989-2009. DOI: 10.1021/acs.jctc.7b00118
   for GFN0-xTB:
   * P. Pracht, E. Caldeweyher, S. Ehlert, S. Grimme, ChemRxiv, 2019, preprint.
     DOI: 10.26434/chemrxiv.8326202.v1
   for GFN-FF:
   * S. Spicher and S. Grimme, Angew. Chem. Int. Ed., 2020, 59, 15665-15673.
     DOI: 10.1002/anie.202004239
   
   for ALPB and GBSA implicit solvation:
   * S. Ehlert, M. Stahn, S. Spicher, S. Grimme, J. Chem. Theory Comput.,
     2021, 17, 4250-4261. DOI: 10.1021/acs.jctc.1c00471
   
   for DFT-D4:
   * E. Caldeweyher, C. Bannwarth and S. Grimme, J. Chem. Phys., 2017,
     147, 034112. DOI: 10.1063/1.4993215
   * E. Caldeweyher, S. Ehlert, A. Hansen, H. Neugebauer, S. Spicher,
     C. Bannwarth and S. Grimme, J. Chem. Phys., 2019, 150, 154122.
     DOI: 10.1063/1.5090222
   * E. Caldeweyher, J.-M. Mewes, S. Ehlert and S. Grimme, Phys. Chem. Chem. Phys.
     2020, 22, 8499-8512. DOI: 10.1039/D0CP00502A
   
   for sTDA-xTB:
   * S. Grimme and C. Bannwarth, J. Chem. Phys., 2016, 145, 054103.
     DOI: 10.1063/1.4959605
   
   in the mass-spec context:
   * V. Asgeirsson, C. Bauer and S. Grimme, Chem. Sci., 2017, 8, 4879.
     DOI: 10.1039/c7sc00601b
   * J. Koopman and S. Grimme, ACS Omega 2019, 4, 12, 15120-15133.
     DOI: 10.1021/acsomega.9b02011
   
   for metadynamics refer to:
   * S. Grimme, J. Chem. Theory Comput., 2019, 155, 2847-2862
     DOI: 10.1021/acs.jctc.9b00143
   
   for SPH calculations refer to:
   * S. Spicher and S. Grimme, J. Chem. Theory Comput., 2021, 17, 1701-1714
     DOI: 10.1021/acs.jctc.0c01306
   
   with help from (in alphabetical order)
   P. Atkinson, C. Bannwarth, F. Bohle, G. Brandenburg, E. Caldeweyher
   M. Checinski, S. Dohm, S. Ehlert, S. Ehrlich, I. Gerasimov, C. Hölzer
   A. Katbashev, J. Koopman, C. Lavigne, S. Lehtola, F. März, M. Müller,
   F. Musil, H. Neugebauer, J. Pisarek, C. Plett, P. Pracht, F. Pultar,
   J. Seibert, P. Shushkov, S. Spicher, M. Stahn, M. Steiner, T. Strunk,
   J. Stückrath, T. Rose, and J. Unsleber
   
 * started run on 2024/10/04 at 19:21:29.408     

           -------------------------------------------------
          |                Calculation Setup                |
           -------------------------------------------------

          program call               : /home/abt-grimme/AK-bin/xtb input.xyz --input input.inp --opt
          hostname                   : boar077.thch.uni-bonn.de
          coordinate file            : input.xyz
          omp threads                :                     8

   ID    Z sym.   atoms
    1    6 C      1-146, 294-300, 306, 309-314, 323-468, 616-622, 628,
                  631-636, 645-790, 938-944, 950, 953-958, 967-1112,
                  1260-1266, 1272, 1275-1280, 1289-1434, 1582-1588, 1594,
                  1597-1602, 1611-1756, 1904-1910, 1916, 1919-1924,
                  1933-2078, 2226-2232, 2238, 2241-2246, 2255-2400,
                  2548-2554, 2560, 2563-2568, 2577-2722, 2870-2876, 2882,
                  2885-2890, 2899-3044, 3192-3198, 3204, 3207-3212,
                  3221-3366, 3514-3520, 3526, 3529-3534, 3543-3688,
                  3836-3842, 3848, 3851-3856
    2    1 H      147-293, 301-305, 307, 308, 315-322, 469-615, 623-627, 629,
                  630, 637-644, 791-937, 945-949, 951, 952, 959-966,
                  1113-1259, 1267-1271, 1273, 1274, 1281-1288, 1435-1581,
                  1589-1593, 1595, 1596, 1603-1610, 1757-1903, 1911-1915,
                  1917, 1918, 1925-1932, 2079-2225, 2233-2237, 2239, 2240,
                  2247-2254, 2401-2547, 2555-2559, 2561, 2562, 2569-2576,
                  2723-2869, 2877-2881, 2883, 2884, 2891-2898, 3045-3191,
                  3199-3203, 3205, 3206, 3213-3220, 3367-3513, 3521-3525,
                  3527, 3528, 3535-3542, 3689-3835, 3843-3847, 3849, 3850,
                  3857-3864

molecular fragmentation (1/2 indicates fragments):
111111111111111111111111111111111111111111111111111111111111111111111111
111111111111111111111111111111111111111111111111111111111111111111111111
111111111111111111111111111111111111111111111111111111111111111111111111
111111111111111111111111111111111111111111111111111111111111111111111111
111111111111111111111111111111111122222222222222222222222222222222222222
222222222222222222222222222222222222222222222222222222222222222222222222
222222222222222222222222222222222222222222222222222222222222222222222222
222222222222222222222222222222222222222222222222222222222222222222222222
222222222222222222222222222222222222222222222222222222222222222222222222
222222222222222222222222222222222222222222222222222222222222222222222222
222222222222222222222222222222222222222222222222222222222222222222222222
222222222222222222222222222222222222222222222222222222222222222222222222
222222222222222222222222222222222222222222222222222222222222222222222222
222222222222222222222222222222222222222222222222222222222222222222222222
222222222222222222222222222222222222222222222222222222222222222222222222
222222222222222222222222222222222222222222222222222222222222222222222222
222222222222222222222222222222222222222222222222222222222222222222222222
222222222222222222222222222222222222222222222222222222222222222222222222
222222222222222222222222222222222222222222222222222222222222222222222222
222222222222222222222222222222222222222222222222222222222222222222222222
222222222222222222222222222222222222222222222222222222222222222222222222
222222222222222222222222222222222222222222222222222222222222222222222222
222222222222222222222222222222222222222222222222222222222222222222222222
222222222222222222222222222222222222222222222222222222222222222222222222
222222222222222222222222222222222222222222222222222222222222222222222222
222222222222222222222222222222222222222222222222222222222222222222222222
222222222222222222222222222222222222222222222222222222222222222222222222
222222222222222222222222222222222222222222222222222222222222222222222222
222222222222222222222222222222222222222222222222222222222222222222222222
222222222222222222222222222222222222222222222222222222222222222222222222
222222222222222222222222222222222222222222222222222222222222222222222222
222222222222222222222222222222222222222222222222222222222222222222222222
222222222222222222222222222222222222222222222222222222222222222222222222
222222222222222222222222222222222222222222222222222222222222222222222222
222222222222222222222222222222222222222222222222222222222222222222222222
222222222222222222222222222222222222222222222222222222222222222222222222
222222222222222222222222222222222222222222222222222222222222222222222222
222222222222222222222222222222222222222222222222222222222222222222222222
222222222222222222222222222222222222222222222222222222222222222222222222
222222222222222222222222222222222222222222222222222222222222222222222222
222222222222222222222222222222222222222222222222222222222222222222222222
222222222222222222222222222222222222222222222222222222222222222222222222
222222222222222222222222222222222222222222222222222222222222222222222222
222222222222222222222222222222222222222222222222222222222222222222222222
222222222222222222222222222222222222222222222222222222222222222222222222
222222222222222222222222222222222222222222222222222222222222222222222222
222222222222222222222222222222222222222222222222222222222222222222222222
222222222222222222222222222222222222222222222222222222222222222222222222
222222222222222222222222222222222222222222222222222222222222222222222222
222222222222222222222222222222222222222222222222222222222222222222222222
222222222222222222222222222222222222222222222222222222222222222222222222
222222222222222222222222222222222222222222222222222222222222222222222222
222222222222222222222222222222222222222222222222222222222222222222222222
222222222222222222222222222222222222222222222222
# atoms in fragment 1/2:   322  3542
 fragment masses (1/2) :     2085.00    22935.05
CMA distance (Bohr)    :  24.157
constraining FC (au)   :  0.0500

           -------------------------------------------------
          |                 G F N 2 - x T B                 |
           -------------------------------------------------

        Reference                      10.1021/acs.jctc.8b01176
      * Hamiltonian:
        H0-scaling (s, p, d)           1.850000    2.230000    2.230000
        zeta-weighting                 0.500000
      * Dispersion:
        s8                             2.700000
        a1                             0.520000
        a2                             5.000000
        s9                             5.000000
      * Repulsion:
        kExp                           1.500000    1.000000
        rExp                           1.000000
      * Coulomb:
        alpha                          2.000000
        third order                    shell-resolved
        anisotropic                    true
        a3                             3.000000
        a5                             4.000000
        cn-shift                       1.200000
        cn-exp                         4.000000
        max-rad                        5.000000


          ...................................................
          :                      SETUP                      :
          :.................................................:
          :  # basis functions                9624          :
          :  # atomic orbitals                9624          :
          :  # shells                         5784          :
          :  # electrons                      9624          :
          :  max. iterations                   250          :
          :  Hamiltonian                  GFN2-xTB          :
          :  restarted?                      false          :
          :  GBSA solvation                  false          :
          :  PC potential                    false          :
          :  electronic temp.          300.0000000     K    :
          :  accuracy                    1.0000000          :
          :  -> integral cutoff          0.2500000E+02      :
          :  -> integral neglect         0.1000000E-07      :
          :  -> SCF convergence          0.1000000E-05 Eh   :
          :  -> wf. convergence          0.1000000E-03 e    :
          :  Broyden damping             0.4000000          :
          ...................................................

 iter      E             dE          RMSdq      gap      omega  full diag
   1  -5195.7077945 -0.519571E+04  0.368E+00    4.30       0.0  T
   2  -5198.2921918 -0.258440E+01  0.217E+00    4.31       1.0  T
   3  -5198.2326118  0.595800E-01  0.494E-01    4.13       1.0  T
   4  -5198.4324042 -0.199792E+00  0.239E-01    3.99       1.0  T
   5  -5198.5774209 -0.145017E+00  0.451E-02    4.08       1.0  T
   6  -5198.5789458 -0.152492E-02  0.276E-02    4.06       1.0  T
   7  -5198.5799605 -0.101472E-02  0.109E-02    4.08       1.0  T
   8  -5198.5802762 -0.315646E-03  0.293E-03    4.08       1.0  T
   9  -5198.5802956 -0.194209E-04  0.125E-03    4.08       1.3  T
  10  -5198.5802974 -0.179459E-05  0.533E-04    4.08       3.0  T
  11  -5198.5802976 -0.269663E-06  0.283E-04    4.08       5.7  T
  12  -5198.5802978 -0.172991E-06  0.988E-05    4.08      16.3  T

   *** convergence criteria satisfied after 12 iterations ***

         #    Occupation            Energy/Eh            Energy/eV
      -------------------------------------------------------------
         1        2.0000           -0.6504282             -17.6991
       ...           ...                  ...                  ...
      4806        2.0000           -0.3814299             -10.3792
      4807        2.0000           -0.3808276             -10.3628
      4808        2.0000           -0.3806814             -10.3589
      4809        2.0000           -0.3801334             -10.3440
      4810        2.0000           -0.3796917             -10.3319
      4811        2.0000           -0.3792350             -10.3195
      4812        2.0000           -0.3776947             -10.2776 (HOMO)
      4813                         -0.2278960              -6.2014 (LUMO)
      4814                         -0.2265032              -6.1635
      4815                         -0.2260217              -6.1504
      4816                         -0.2259298              -6.1479
      4817                         -0.2251054              -6.1254
       ...                                ...                  ...
      9624                          0.6824476              18.5703
      -------------------------------------------------------------
                  HL-Gap            0.1497987 Eh            4.0762 eV
             Fermi-level           -0.3027953 Eh           -8.2395 eV

 SCC (total)                   0 d,  0 h, 48 min, 53.475 sec
 SCC setup                      ...        0 min,  0.742 sec (  0.025%)
 Dispersion                     ...        0 min,  6.853 sec (  0.234%)
 classical contributions        ...        0 min,  0.243 sec (  0.008%)
 integral evaluation            ...        0 min, 14.236 sec (  0.485%)
 iterations                     ...       42 min, 15.562 sec ( 86.435%)
 molecular gradient             ...        5 min, 48.440 sec ( 11.878%)
 printout                       ...        0 min, 27.398 sec (  0.934%)

         :::::::::::::::::::::::::::::::::::::::::::::::::::::
         ::                     SUMMARY                     ::
         :::::::::::::::::::::::::::::::::::::::::::::::::::::
         :: total energy           -5104.084939484660 Eh    ::
         :: gradient norm              0.019749469136 Eh/a0 ::
         :: HOMO-LUMO gap              4.076230300783 eV    ::
         ::.................................................::
         :: SCC energy             -5198.580297816616 Eh    ::
         :: -> isotropic ES            0.264548995053 Eh    ::
         :: -> anisotropic ES          0.776992508952 Eh    ::
         :: -> anisotropic XC          3.254922290404 Eh    ::
         :: -> dispersion             -7.016961104557 Eh    ::
         :: repulsion energy          93.362172158558 Eh    ::
         :: add. restraining           0.000000000000 Eh    ::
         :: total charge              -0.000000000023 e     ::
         :::::::::::::::::::::::::::::::::::::::::::::::::::::

      ----------------------------------------------------------- 
     |              Fast Inertial Relaxation Engine              |
      ----------------------------------------------------------- 

          ...................................................
          :                      SETUP                      :
          :.................................................:
          :   energy convergence        0.5000000E-05 Eh    :
          :   grad. convergence         0.1000000E-02 Eh/a0 :
          :   optimization log               true           :
          :   writing optlog all                1     steps :
          :   Hessian reset                    20     steps :
          :   time step scaling                 5     steps :
          :   maximium step len.        1.0000000     a0    :
          :   initial time step         0.2500000     fs    :
          :   maximum time step         1.2500000     fs    :
          :   power reset thr           0.0000000     au    :
          :   alpha parameter           0.1000000           :
          :   BFGS update                   false           :
          :   preconditioning               false           :
          ...................................................

........................................................................
.............................. CYCLE    1 ..............................
........................................................................

 iter      E             dE          RMSdq      gap      omega  full diag
   1  -5198.5815868 -0.519858E+04  0.277E-04    4.08       0.0  T
   2  -5198.5815868 -0.133859E-07  0.172E-04    4.08       9.4  T
   3  -5198.5815868  0.263053E-07  0.795E-05    4.08      20.2  T
     SCC iter.                  ...       10 min, 38.701 sec
     gradient                   ...        5 min, 48.025 sec
 * total energy  : -5104.0849837 Eh     change    :  -0.4420081E-04 Eh
   gradient norm :     0.0184692 Eh/a0  converged?    E=F G=F D=F
   time step     :     0.2500000 fs     power     :   0.2267031E-08
   step length   :     0.0023146 a0     speed     :   0.2239496E-03

........................................................................
.............................. CYCLE    2 ..............................
........................................................................

 iter      E             dE          RMSdq      gap      omega  full diag
   1  -5198.5834895 -0.519858E+04  0.405E-04    4.08       0.0  T
   2  -5198.5834896 -0.254504E-07  0.250E-04    4.08       6.4  T
   3  -5198.5834895  0.383152E-07  0.966E-05    4.08      16.7  T
     SCC iter.                  ...       10 min, 36.730 sec
     gradient                   ...        5 min, 48.422 sec
 * total energy  : -5104.0850432 Eh     change    :  -0.5947324E-04 Eh
   gradient norm :     0.0166656 Eh/a0  converged?    E=F G=F D=F
   time step     :     0.2500000 fs     power     :   0.2990479E-08
   step length   :     0.0033962 a0     speed     :   0.3285972E-03

........................................................................
.............................. CYCLE    3 ..............................
........................................................................

 iter      E             dE          RMSdq      gap      omega  full diag
   1  -5198.5859751 -0.519859E+04  0.521E-04    4.08       0.0  T
   2  -5198.5859751 -0.392911E-07  0.321E-04    4.08       5.0  T
   3  -5198.5859750  0.579139E-07  0.116E-04    4.08      13.8  T
     SCC iter.                  ...       10 min, 36.930 sec
     gradient                   ...        5 min, 48.574 sec
 * total energy  : -5104.0851107 Eh     change    :  -0.6749258E-04 Eh
   gradient norm :     0.0145210 Eh/a0  converged?    E=F G=F D=F
   time step     :     0.2500000 fs     power     :   0.3315744E-08
   step length   :     0.0043686 a0     speed     :   0.4226812E-03

........................................................................
.............................. CYCLE    4 ..............................
........................................................................

 iter      E             dE          RMSdq      gap      omega  full diag
   1  -5198.5890060 -0.519859E+04  0.620E-04    4.08       0.0  T
   2  -5198.5890061 -0.522259E-07  0.383E-04    4.08       4.2  T
   3  -5198.5890060  0.865675E-07  0.138E-04    4.08      11.7  T
     SCC iter.                  ...       10 min, 36.509 sec
     gradient                   ...        5 min, 48.297 sec
 * total energy  : -5104.0851786 Eh     change    :  -0.6799528E-04 Eh
   gradient norm :     0.0122856 Eh/a0  converged?    E=F G=F D=F
   time step     :     0.2500000 fs     power     :   0.3249610E-08
   step length   :     0.0052047 a0     speed     :   0.5035797E-03

........................................................................
.............................. CYCLE    5 ..............................
........................................................................

 iter      E             dE          RMSdq      gap      omega  full diag
   1  -5198.5925359 -0.519859E+04  0.699E-04    4.08       0.0  T
   2  -5198.5925360 -0.618456E-07  0.433E-04    4.08       3.7  T
   3  -5198.5925358  0.123644E-06  0.159E-04    4.08      10.1  T
     SCC iter.                  ...       10 min, 38.264 sec
     gradient                   ...        5 min, 47.607 sec
 * total energy  : -5104.0852408 Eh     change    :  -0.6214250E-04 Eh
   gradient norm :     0.0102781 Eh/a0  converged?    E=F G=F D=F
   time step     :     0.2500000 fs     power     :   0.2872969E-08
   step length   :     0.0058827 a0     speed     :   0.5691866E-03

........................................................................
.............................. CYCLE    6 ..............................
........................................................................

 iter      E             dE          RMSdq      gap      omega  full diag
   1  -5198.5969369 -0.519860E+04  0.836E-04    4.08       0.0  T
   2  -5198.5969370 -0.821356E-07  0.523E-04    4.08       3.1  T
   3  -5198.5969367  0.223976E-06  0.207E-04    4.08       7.8  T
     SCC iter.                  ...       10 min, 40.630 sec
     gradient                   ...        5 min, 47.358 sec
 * total energy  : -5104.0852978 Eh     change    :  -0.5706042E-04 Eh
   gradient norm :     0.0087109 Eh/a0  converged?    E=F G=F D=F
   time step     :     0.2750000 fs     power     :   0.2254095E-08
   step length   :     0.0070822 a0     speed     :   0.6229454E-03

........................................................................
.............................. CYCLE    7 ..............................
........................................................................

 iter      E             dE          RMSdq      gap      omega  full diag
   1  -5198.6022260 -0.519860E+04  0.964E-04    4.08       0.0  T
   2  -5198.6022261 -0.988348E-07  0.608E-04    4.08       2.6  T
   3  -5198.6022257  0.367045E-06  0.259E-04    4.08       6.2  T
     SCC iter.                  ...       10 min, 34.882 sec
     gradient                   ...        5 min, 48.134 sec
 * total energy  : -5104.0853449 Eh     change    :  -0.4705672E-04 Eh
   gradient norm :     0.0079565 Eh/a0  converged?    E=F G=F D=F
   time step     :     0.3025000 fs     power     :   0.1544746E-08
   step length   :     0.0082291 a0     speed     :   0.6580216E-03

........................................................................
.............................. CYCLE    8 ..............................
........................................................................

 iter      E             dE          RMSdq      gap      omega  full diag
   1  -5198.6082435 -0.519861E+04  0.106E-03    4.08       0.0  T
   2  -5198.6082436 -0.110756E-06  0.678E-04    4.08       2.4  T
   3  -5198.6082431  0.521542E-06  0.308E-04    4.08       5.2  T
     SCC iter.                  ...       10 min, 36.428 sec
     gradient                   ...        5 min, 47.803 sec
 * total energy  : -5104.0853805 Eh     change    :  -0.3557425E-04 Eh
   gradient norm :     0.0078208 Eh/a0  converged?    E=F G=F D=F
   time step     :     0.3327500 fs     power     :   0.9274388E-09
   step length   :     0.0092003 a0     speed     :   0.6688017E-03

........................................................................
.............................. CYCLE    9 ..............................
........................................................................

 iter      E             dE          RMSdq      gap      omega  full diag
   1  -5198.6146218 -0.519861E+04  0.113E-03    4.08       0.0  T
   2  -5198.6146220 -0.121348E-06  0.724E-04    4.08       2.2  T
   3  -5198.6146214  0.603854E-06  0.340E-04    4.08       4.7  T
     SCC iter.                  ...       10 min, 35.525 sec
     gradient                   ...        5 min, 48.840 sec
 * total energy  : -5104.0854060 Eh     change    :  -0.2548917E-04 Eh
   gradient norm :     0.0077064 Eh/a0  converged?    E=F G=F D=F
   time step     :     0.3660250 fs     power     :   0.4764677E-09
   step length   :     0.0099485 a0     speed     :   0.6574458E-03

........................................................................
.............................. CYCLE   10 ..............................
........................................................................

 iter      E             dE          RMSdq      gap      omega  full diag
   1  -5198.6208248 -0.519862E+04  0.118E-03    4.08       0.0  T
   2  -5198.6208250 -0.130309E-06  0.743E-04    4.08       2.2  T
   3  -5198.6208244  0.579820E-06  0.346E-04    4.08       4.6  T
     SCC iter.                  ...       10 min, 35.037 sec
     gradient                   ...        5 min, 48.322 sec
 * total energy  : -5104.0854229 Eh     change    :  -0.1691061E-04 Eh
   gradient norm :     0.0074044 Eh/a0  converged?    E=F G=F D=F
   time step     :     0.4026275 fs     power     :   0.1320452E-09
   step length   :     0.0105038 a0     speed     :   0.6310446E-03

........................................................................
.............................. CYCLE   11 ..............................
........................................................................

 iter      E             dE          RMSdq      gap      omega  full diag
   1  -5198.6261756 -0.519863E+04  0.119E-03    4.08       0.0  T
   2  -5198.6261757 -0.126607E-06  0.732E-04    4.08       2.2  T
   3  -5198.6261752  0.452696E-06  0.316E-04    4.08       5.1  T
     SCC iter.                  ...       10 min, 37.493 sec
     gradient                   ...        5 min, 48.319 sec
 * total energy  : -5104.0854314 Eh     change    :  -0.8491747E-05 Eh
   gradient norm :     0.0073551 Eh/a0  converged?    E=F G=F D=F
   time step     :     0.4428903 fs     power     :  -0.1544607E-09
   step length   :     0.0108637 a0     speed     :   0.5933329E-03

........................................................................
.............................. CYCLE   12 ..............................
........................................................................
 * reset velocities

 iter      E             dE          RMSdq      gap      omega  full diag
   1  -5198.6259878 -0.519863E+04  0.522E-05    4.08       0.0  T
   2  -5198.6259878 -0.375621E-08  0.459E-05    4.08      35.0  T
   3  -5198.6259878 -0.835189E-08  0.173E-05    4.08      93.0  T
     SCC iter.                  ...       10 min, 36.478 sec
     gradient                   ...        5 min, 49.833 sec
 * total energy  : -5104.0854344 Eh     change    :  -0.3016439E-05 Eh
   gradient norm :     0.0072284 Eh/a0  converged?    E=T G=F D=T
   time step     :     0.2214451 fs     power     :   0.1464604E-09
   step length   :     0.0003382 a0     speed     :   0.3693835E-04

........................................................................
.............................. CYCLE   13 ..............................
........................................................................

 iter      E             dE          RMSdq      gap      omega  full diag
   1  -5198.6256067 -0.519863E+04  0.659E-05    4.08       0.0  T
   2  -5198.6256067 -0.944056E-09  0.463E-05    4.08      34.7  T
   3  -5198.6256067  0.173713E-08  0.204E-05    4.08      78.9  T
     SCC iter.                  ...       10 min, 39.926 sec
     gradient                   ...        5 min, 49.669 sec
 * total energy  : -5104.0854391 Eh     change    :  -0.4743280E-05 Eh
   gradient norm :     0.0069391 Eh/a0  converged?    E=T G=F D=T
   time step     :     0.2214451 fs     power     :   0.2786947E-09
   step length   :     0.0006705 a0     speed     :   0.7323900E-04

........................................................................
.............................. CYCLE   14 ..............................
........................................................................

 iter      E             dE          RMSdq      gap      omega  full diag
   1  -5198.6250388 -0.519863E+04  0.945E-05    4.08       0.0  T
   2  -5198.6250388 -0.211548E-08  0.670E-05    4.08      24.0  T
   3  -5198.6250388  0.337513E-08  0.292E-05    4.08      55.1  T
     SCC iter.                  ...       10 min, 37.216 sec
     gradient                   ...        5 min, 48.327 sec
 * total energy  : -5104.0854458 Eh     change    :  -0.6641937E-05 Eh
   gradient norm :     0.0065204 Eh/a0  converged?    E=F G=F D=T
   time step     :     0.2214451 fs     power     :   0.3860722E-09
   step length   :     0.0009894 a0     speed     :   0.1080791E-03

........................................................................
.............................. CYCLE   15 ..............................
........................................................................

 iter      E             dE          RMSdq      gap      omega  full diag
   1  -5198.6242939 -0.519862E+04  0.123E-04    4.08       0.0  T
   2  -5198.6242939 -0.351065E-08  0.868E-05    4.08      18.5  T
   3  -5198.6242939  0.581167E-08  0.375E-05    4.08      42.9  T
     SCC iter.                  ...       10 min, 35.817 sec
     gradient                   ...        5 min, 49.904 sec
 * total energy  : -5104.0854538 Eh     change    :  -0.8032665E-05 Eh
   gradient norm :     0.0059929 Eh/a0  converged?    E=F G=F D=F
   time step     :     0.2214451 fs     power     :   0.4610438E-09
   step length   :     0.0012889 a0     speed     :   0.1407850E-03

........................................................................
.............................. CYCLE   16 ..............................
........................................................................

 iter      E             dE          RMSdq      gap      omega  full diag
   1  -5198.6233852 -0.519862E+04  0.148E-04    4.08       0.0  T
   2  -5198.6233852 -0.479758E-08  0.105E-04    4.08      15.4  T
   3  -5198.6233852  0.878936E-08  0.450E-05    4.08      35.7  T
     SCC iter.                  ...       10 min, 35.549 sec
     gradient                   ...        5 min, 50.941 sec
 * total energy  : -5104.0854627 Eh     change    :  -0.8845444E-05 Eh
   gradient norm :     0.0053848 Eh/a0  converged?    E=F G=F D=F
   time step     :     0.2214451 fs     power     :   0.4995599E-09
   step length   :     0.0015632 a0     speed     :   0.1707550E-03

........................................................................
.............................. CYCLE   17 ..............................
........................................................................

 iter      E             dE          RMSdq      gap      omega  full diag
   1  -5198.6223290 -0.519862E+04  0.170E-04    4.08       0.0  T
   2  -5198.6223290 -0.623459E-08  0.120E-04    4.08      13.4  T
   3  -5198.6223290  0.121663E-07  0.516E-05    4.08      31.2  T
     SCC iter.                  ...       10 min, 35.683 sec
     gradient                   ...        5 min, 49.691 sec
 * total energy  : -5104.0854717 Eh     change    :  -0.9015371E-05 Eh
   gradient norm :     0.0047338 Eh/a0  converged?    E=F G=F D=F
   time step     :     0.2214451 fs     power     :   0.5015769E-09
   step length   :     0.0018078 a0     speed     :   0.1974685E-03

........................................................................
.............................. CYCLE   18 ..............................
........................................................................

 iter      E             dE          RMSdq      gap      omega  full diag
   1  -5198.6210129 -0.519862E+04  0.207E-04    4.08       0.0  T
   2  -5198.6210129 -0.900400E-08  0.147E-04    4.08      10.9  T
   3  -5198.6210129  0.192140E-07  0.637E-05    4.08      25.3  T
     SCC iter.                  ...       10 min, 35.420 sec
     gradient                   ...        5 min, 47.298 sec
 * total energy  : -5104.0854812 Eh     change    :  -0.9491107E-05 Eh
   gradient norm :     0.0040234 Eh/a0  converged?    E=F G=F D=F
   time step     :     0.2435896 fs     power     :   0.4661739E-09
   step length   :     0.0022439 a0     speed     :   0.2228201E-03

........................................................................
.............................. CYCLE   19 ..............................
........................................................................

 iter      E             dE          RMSdq      gap      omega  full diag
   1  -5198.6194175 -0.519862E+04  0.246E-04    4.08       0.0  T
   2  -5198.6194175 -0.119362E-07  0.174E-04    4.08       9.2  T
   3  -5198.6194175  0.288810E-07  0.760E-05    4.08      21.2  T
     SCC iter.                  ...       10 min, 35.810 sec
     gradient                   ...        5 min, 47.690 sec
 * total energy  : -5104.0854904 Eh     change    :  -0.9209885E-05 Eh
   gradient norm :     0.0033489 Eh/a0  converged?    E=F G=F D=F
   time step     :     0.2679486 fs     power     :   0.3931006E-09
   step length   :     0.0027172 a0     speed     :   0.2452941E-03

........................................................................
.............................. CYCLE   20 ..............................
........................................................................

 iter      E             dE          RMSdq      gap      omega  full diag
   1  -5198.6175502 -0.519862E+04  0.280E-04    4.08       0.0  T
   2  -5198.6175503 -0.141217E-07  0.199E-04    4.08       8.1  T
   3  -5198.6175502  0.414366E-07  0.876E-05    4.08      18.4  T
     SCC iter.                  ...       10 min, 36.205 sec
     gradient                   ...        6 min,  0.898 sec
 * total energy  : -5104.0854985 Eh     change    :  -0.8096048E-05 Eh
   gradient norm :     0.0028863 Eh/a0  converged?    E=F G=F D=F
   time step     :     0.2947435 fs     power     :   0.2932795E-09
   step length   :     0.0032014 a0     speed     :   0.2627343E-03
 * RMSD in coord.:     0.0010704 a0     energy gain  -0.5589795E-03 Eh

........................................................................
.............................. CYCLE   21 ..............................
........................................................................

 iter      E             dE          RMSdq      gap      omega  full diag
   1  -5198.6159700 -0.519862E+04  0.234E-04    4.08       0.0  T
   2  -5198.6159700 -0.827731E-08  0.164E-04    4.08       9.8  T
   3  -5198.6159700  0.313503E-07  0.726E-05    4.08      22.1  T
     SCC iter.                  ...       10 min, 38.542 sec
     gradient                   ...        5 min, 54.478 sec
 * total energy  : -5104.0855037 Eh     change    :  -0.5216843E-05 Eh
   gradient norm :     0.0027842 Eh/a0  converged?    E=F G=F D=F
   time step     :     0.2500000 fs     power     :   0.2201305E-09
   step length   :     0.0027723 a0     speed     :   0.2682303E-03

........................................................................
.............................. CYCLE   22 ..............................
........................................................................

 iter      E             dE          RMSdq      gap      omega  full diag
   1  -5198.6144742 -0.519861E+04  0.219E-04    4.08       0.0  T
   2  -5198.6144742 -0.605360E-08  0.152E-04    4.08      10.6  T
   3  -5198.6144741  0.304244E-07  0.697E-05    4.08      23.1  T
     SCC iter.                  ...       10 min, 37.510 sec
     gradient                   ...        5 min, 47.166 sec
 * total energy  : -5104.0855078 Eh     change    :  -0.4089883E-05 Eh
   gradient norm :     0.0028637 Eh/a0  converged?    E=T G=F D=F
   time step     :     0.2500000 fs     power     :   0.1734683E-09
   step length   :     0.0027568 a0     speed     :   0.2667336E-03

........................................................................
.............................. CYCLE   23 ..............................
........................................................................

 iter      E             dE          RMSdq      gap      omega  full diag
   1  -5198.6131301 -0.519861E+04  0.203E-04    4.08       0.0  T
   2  -5198.6131301 -0.410182E-08  0.138E-04    4.08      11.7  T
   3  -5198.6131301  0.249684E-07  0.629E-05    4.08      25.6  T
     SCC iter.                  ...       10 min, 34.020 sec
     gradient                   ...        5 min, 48.789 sec
 * total energy  : -5104.0855113 Eh     change    :  -0.3514680E-05 Eh
   gradient norm :     0.0029994 Eh/a0  converged?    E=T G=F D=F
   time step     :     0.2500000 fs     power     :   0.1562857E-09
   step length   :     0.0026951 a0     speed     :   0.2607659E-03

........................................................................
.............................. CYCLE   24 ..............................
........................................................................

 iter      E             dE          RMSdq      gap      omega  full diag
   1  -5198.6119811 -0.519861E+04  0.188E-04    4.08       0.0  T
   2  -5198.6119811 -0.248292E-08  0.123E-04    4.08      13.1  T
   3  -5198.6119811  0.156988E-07  0.506E-05    4.08      31.8  T
     SCC iter.                  ...       10 min, 36.238 sec
     gradient                   ...        5 min, 50.347 sec
 * total energy  : -5104.0855148 Eh     change    :  -0.3504025E-05 Eh
   gradient norm :     0.0031059 Eh/a0  converged?    E=T G=F D=F
   time step     :     0.2500000 fs     power     :   0.1627733E-09
   step length   :     0.0026208 a0     speed     :   0.2535762E-03

........................................................................
.............................. CYCLE   25 ..............................
........................................................................

 iter      E             dE          RMSdq      gap      omega  full diag
   1  -5198.6110479 -0.519861E+04  0.179E-04    4.08       0.0  T
   2  -5198.6110479 -0.152431E-08  0.111E-04    4.08      14.5  T
   3  -5198.6110479  0.533782E-08  0.320E-05    4.08      50.3  T
     SCC iter.                  ...       10 min, 35.852 sec
     gradient                   ...        5 min, 50.087 sec
 * total energy  : -5104.0855186 Eh     change    :  -0.3782792E-05 Eh
   gradient norm :     0.0031458 Eh/a0  converged?    E=T G=F D=F
   time step     :     0.2500000 fs     power     :   0.1834918E-09
   step length   :     0.0025593 a0     speed     :   0.2476259E-03

........................................................................
.............................. CYCLE   26 ..............................
........................................................................

 iter      E             dE          RMSdq      gap      omega  full diag
   1  -5198.6102689 -0.519861E+04  0.194E-04    4.08       0.0  T
   2  -5198.6102689 -0.143427E-08  0.116E-04    4.08      13.9  T
   3  -5198.6102689  0.130058E-08  0.217E-05    4.08      74.2  T
     SCC iter.                  ...       10 min, 35.008 sec
     gradient                   ...        5 min, 50.102 sec
 * total energy  : -5104.0855232 Eh     change    :  -0.4670361E-05 Eh
   gradient norm :     0.0031051 Eh/a0  converged?    E=T G=F D=F
   time step     :     0.2750000 fs     power     :   0.2093492E-09
   step length   :     0.0027879 a0     speed     :   0.2452184E-03

........................................................................
.............................. CYCLE   27 ..............................
........................................................................

 iter      E             dE          RMSdq      gap      omega  full diag
   1  -5198.6096835 -0.519861E+04  0.216E-04    4.08       0.0  T
   2  -5198.6096835 -0.183445E-08  0.128E-04    4.08      12.6  T
   3  -5198.6096835  0.327600E-08  0.295E-05    4.08      54.5  T
     SCC iter.                  ...       10 min, 35.153 sec
     gradient                   ...        5 min, 51.131 sec
 * total energy  : -5104.0855289 Eh     change    :  -0.5679851E-05 Eh
   gradient norm :     0.0029799 Eh/a0  converged?    E=F G=F D=F
   time step     :     0.3025000 fs     power     :   0.2329850E-09
   step length   :     0.0030884 a0     speed     :   0.2469555E-03

........................................................................
.............................. CYCLE   28 ..............................
........................................................................

 iter      E             dE          RMSdq      gap      omega  full diag
   1  -5198.6093258 -0.519861E+04  0.248E-04    4.08       0.0  T
   2  -5198.6093258 -0.278305E-08  0.147E-04    4.08      10.9  T
   3  -5198.6093258  0.105620E-07  0.480E-05    4.08      33.5  T
     SCC iter.                  ...       10 min, 36.563 sec
     gradient                   ...        5 min, 47.809 sec
 * total energy  : -5104.0855356 Eh     change    :  -0.6690861E-05 Eh
   gradient norm :     0.0027845 Eh/a0  converged?    E=F G=F D=F
   time step     :     0.3327500 fs     power     :   0.2481712E-09
   step length   :     0.0034748 a0     speed     :   0.2525929E-03

........................................................................
.............................. CYCLE   29 ..............................
........................................................................

 iter      E             dE          RMSdq      gap      omega  full diag
   1  -5198.6092198 -0.519861E+04  0.286E-04    4.08       0.0  T
   2  -5198.6092198 -0.434829E-08  0.172E-04    4.08       9.3  T
   3  -5198.6092198  0.253240E-07  0.721E-05    4.08      22.3  T
     SCC iter.                  ...       10 min, 35.895 sec
     gradient                   ...        5 min, 48.349 sec
 * total energy  : -5104.0855432 Eh     change    :  -0.7573975E-05 Eh
   gradient norm :     0.0025514 Eh/a0  converged?    E=F G=F D=F
   time step     :     0.3660250 fs     power     :   0.2508037E-09
   step length   :     0.0039536 a0     speed     :   0.2612724E-03

........................................................................
.............................. CYCLE   30 ..............................
........................................................................

 iter      E             dE          RMSdq      gap      omega  full diag
   1  -5198.6093711 -0.519861E+04  0.327E-04    4.08       0.0  T
   2  -5198.6093711 -0.590080E-08  0.200E-04    4.08       8.1  T
   3  -5198.6093711  0.428990E-07  0.928E-05    4.08      17.3  T
     SCC iter.                  ...       10 min, 35.963 sec
     gradient                   ...        5 min, 47.155 sec
 * total energy  : -5104.0855513 Eh     change    :  -0.8077231E-05 Eh
   gradient norm :     0.0023307 Eh/a0  converged?    E=F G=F D=F
   time step     :     0.4026275 fs     power     :   0.2403621E-09
   step length   :     0.0045218 a0     speed     :   0.2716586E-03

........................................................................
.............................. CYCLE   31 ..............................
........................................................................

 iter      E             dE          RMSdq      gap      omega  full diag
   1  -5198.6097584 -0.519861E+04  0.364E-04    4.08       0.0  T
   2  -5198.6097584 -0.689397E-08  0.224E-04    4.08       7.2  T
   3  -5198.6097583  0.570471E-07  0.106E-04    4.08      15.2  T
     SCC iter.                  ...       10 min, 37.618 sec
     gradient                   ...        5 min, 51.618 sec
 * total energy  : -5104.0855596 Eh     change    :  -0.8338062E-05 Eh
   gradient norm :     0.0021758 Eh/a0  converged?    E=F G=F D=F
   time step     :     0.4428903 fs     power     :   0.2209343E-09
   step length   :     0.0051661 a0     speed     :   0.2821507E-03

........................................................................
.............................. CYCLE   32 ..............................
........................................................................

 iter      E             dE          RMSdq      gap      omega  full diag
   1  -5198.6103326 -0.519861E+04  0.391E-04    4.08       0.0  T
   2  -5198.6103326 -0.724322E-08  0.239E-04    4.08       6.7  T
   3  -5198.6103325  0.586715E-07  0.106E-04    4.08      15.2  T
     SCC iter.                  ...       10 min, 33.947 sec
     gradient                   ...        5 min, 49.143 sec
 * total energy  : -5104.0855680 Eh     change    :  -0.8446561E-05 Eh
   gradient norm :     0.0021148 Eh/a0  converged?    E=F G=F D=F
   time step     :     0.4871793 fs     power     :   0.2003839E-09
   step length   :     0.0058670 a0     speed     :   0.2912990E-03

........................................................................
.............................. CYCLE   33 ..............................
........................................................................

 iter      E             dE          RMSdq      gap      omega  full diag
   1  -5198.6110329 -0.519861E+04  0.402E-04    4.08       0.0  T
   2  -5198.6110329 -0.683303E-08  0.242E-04    4.08       6.7  T
   3  -5198.6110329  0.387145E-07  0.861E-05    4.08      18.7  T
     SCC iter.                  ...       10 min, 35.302 sec
     gradient                   ...        5 min, 54.287 sec
 * total energy  : -5104.0855768 Eh     change    :  -0.8719355E-05 Eh
   gradient norm :     0.0021394 Eh/a0  converged?    E=F G=F D=F
   time step     :     0.5358972 fs     power     :   0.1871785E-09
   step length   :     0.0066140 a0     speed     :   0.2985364E-03

........................................................................
.............................. CYCLE   34 ..............................
........................................................................

 iter      E             dE          RMSdq      gap      omega  full diag
   1  -5198.6118121 -0.519861E+04  0.398E-04    4.08       0.0  T
   2  -5198.6118121 -0.662749E-08  0.237E-04    4.08       6.8  T
   3  -5198.6118121  0.107275E-07  0.514E-05    4.08      31.3  T
     SCC iter.                  ...       10 min, 36.704 sec
     gradient                   ...        5 min, 51.703 sec
 * total energy  : -5104.0855862 Eh     change    :  -0.9445773E-05 Eh
   gradient norm :     0.0022058 Eh/a0  converged?    E=F G=F D=F
   time step     :     0.5894869 fs     power     :   0.1881022E-09
   step length   :     0.0074257 a0     speed     :   0.3047051E-03

........................................................................
.............................. CYCLE   35 ..............................
........................................................................

 iter      E             dE          RMSdq      gap      omega  full diag
   1  -5198.6126402 -0.519861E+04  0.388E-04    4.08       0.0  T
   2  -5198.6126402 -0.577711E-08  0.234E-04    4.08       6.9  T
   3  -5198.6126402  0.122227E-07  0.518E-05    4.08      31.1  T
     SCC iter.                  ...       10 min, 39.152 sec
     gradient                   ...        5 min, 52.805 sec
 * total energy  : -5104.0855972 Eh     change    :  -0.1096271E-04 Eh
   gradient norm :     0.0022070 Eh/a0  converged?    E=F G=F D=F
   time step     :     0.6484356 fs     power     :   0.2031889E-09
   step length   :     0.0083627 a0     speed     :   0.3119566E-03

........................................................................
.............................. CYCLE   36 ..............................
........................................................................

 iter      E             dE          RMSdq      gap      omega  full diag
   1  -5198.6134644 -0.519861E+04  0.390E-04    4.08       0.0  T
   2  -5198.6134644 -0.553791E-08  0.240E-04    4.08       6.7  T
   3  -5198.6134644  0.234486E-07  0.658E-05    4.08      24.5  T
     SCC iter.                  ...       10 min, 35.230 sec
     gradient                   ...        5 min, 47.219 sec
 * total energy  : -5104.0856101 Eh     change    :  -0.1288425E-04 Eh
   gradient norm :     0.0020662 Eh/a0  converged?    E=F G=F D=F
   time step     :     0.7132792 fs     power     :   0.2192390E-09
   step length   :     0.0095145 a0     speed     :   0.3226583E-03

........................................................................
.............................. CYCLE   37 ..............................
........................................................................

 iter      E             dE          RMSdq      gap      omega  full diag
   1  -5198.6141320 -0.519861E+04  0.403E-04    4.08       0.0  T
   2  -5198.6141320 -0.823729E-08  0.253E-04    4.08       6.3  T
   3  -5198.6141319  0.489963E-07  0.915E-05    4.08      17.6  T
     SCC iter.                  ...       10 min, 36.559 sec
     gradient                   ...        5 min, 48.996 sec
 * total energy  : -5104.0856247 Eh     change    :  -0.1460437E-04 Eh
   gradient norm :     0.0019824 Eh/a0  converged?    E=F G=F D=F
   time step     :     0.7846071 fs     power     :   0.2226464E-09
   step length   :     0.0109392 a0     speed     :   0.3372469E-03

........................................................................
.............................. CYCLE   38 ..............................
........................................................................

 iter      E             dE          RMSdq      gap      omega  full diag
   1  -5198.6143492 -0.519861E+04  0.425E-04    4.08       0.0  T
   2  -5198.6143492 -0.101290E-07  0.263E-04    4.08       6.1  T
   3  -5198.6143492  0.403015E-07  0.874E-05    4.08      18.4  T
     SCC iter.                  ...       10 min, 35.627 sec
     gradient                   ...        5 min, 48.277 sec
 * total energy  : -5104.0856413 Eh     change    :  -0.1660959E-04 Eh
   gradient norm :     0.0021143 Eh/a0  converged?    E=F G=F D=F
   time step     :     0.8630678 fs     power     :   0.2333388E-09
   step length   :     0.0126059 a0     speed     :   0.3532995E-03

........................................................................
.............................. CYCLE   39 ..............................
........................................................................

 iter      E             dE          RMSdq      gap      omega  full diag
   1  -5198.6139543 -0.519861E+04  0.484E-04    4.08       0.0  T
   2  -5198.6139543 -0.101727E-07  0.290E-04    4.08       5.5  T
   3  -5198.6139543  0.163573E-07  0.618E-05    4.08      26.0  T
     SCC iter.                  ...       10 min, 37.086 sec
     gradient                   ...        5 min, 48.535 sec
 * total energy  : -5104.0856616 Eh     change    :  -0.2036228E-04 Eh
   gradient norm :     0.0020597 Eh/a0  converged?    E=F G=F D=F
   time step     :     0.9493746 fs     power     :   0.2673494E-09
   step length   :     0.0145706 a0     speed     :   0.3712411E-03

........................................................................
.............................. CYCLE   40 ..............................
........................................................................

 iter      E             dE          RMSdq      gap      omega  full diag
   1  -5198.6133612 -0.519861E+04  0.561E-04    4.08       0.0  T
   2  -5198.6133612 -0.143173E-07  0.340E-04    4.08       4.7  T
   3  -5198.6133612  0.403352E-07  0.890E-05    4.08      18.1  T
     SCC iter.                  ...       10 min, 36.248 sec
     gradient                   ...        5 min, 46.257 sec
 * total energy  : -5104.0856860 Eh     change    :  -0.2437951E-04 Eh
   gradient norm :     0.0018207 Eh/a0  converged?    E=F G=F D=F
   time step     :     1.0443120 fs     power     :   0.2838374E-09
   step length   :     0.0170792 a0     speed     :   0.3955955E-03

........................................................................
.............................. CYCLE   41 ..............................
........................................................................

 iter      E             dE          RMSdq      gap      omega  full diag
   1  -5198.6137388 -0.519861E+04  0.600E-04    4.08       0.0  T
   2  -5198.6137388 -0.159498E-07  0.367E-04    4.08       4.4  T
   3  -5198.6137387  0.557984E-07  0.106E-04    4.08      15.1  T
     SCC iter.                  ...       10 min, 40.821 sec
     gradient                   ...        5 min, 47.067 sec
 * total energy  : -5104.0857129 Eh     change    :  -0.2689211E-04 Eh
   gradient norm :     0.0019587 Eh/a0  converged?    E=F G=F D=F
   time step     :     1.1487432 fs     power     :   0.2812948E-09
   step length   :     0.0201309 a0     speed     :   0.4238919E-03

........................................................................
.............................. CYCLE   42 ..............................
........................................................................

 iter      E             dE          RMSdq      gap      omega  full diag
   1  -5198.6155406 -0.519862E+04  0.659E-04    4.08       0.0  T
   2  -5198.6155406 -0.117861E-07  0.390E-04    4.08       4.1  T
   3  -5198.6155406  0.104656E-07  0.560E-05    4.08      28.7  T
     SCC iter.                  ...       10 min, 36.224 sec
     gradient                   ...        5 min, 44.884 sec
 * total energy  : -5104.0857450 Eh     change    :  -0.3204273E-04 Eh
   gradient norm :     0.0019614 Eh/a0  converged?    E=F G=F D=F
   time step     :     1.2500000 fs     power     :   0.3220588E-09
   step length   :     0.0232642 a0     speed     :   0.4501869E-03
 * RMSD in coord.:     0.0025142 a0     energy gain  -0.2464878E-03 Eh

........................................................................
.............................. CYCLE   43 ..............................
........................................................................

 iter      E             dE          RMSdq      gap      omega  full diag
   1  -5198.6158539 -0.519862E+04  0.131E-04    4.08       0.0  T
   2  -5198.6158539 -0.423825E-09  0.771E-05    4.08      20.9  T
   3  -5198.6158539  0.132331E-08  0.183E-05    4.08      88.0  T
     SCC iter.                  ...       10 min, 37.825 sec
     gradient                   ...        5 min, 46.485 sec
 * total energy  : -5104.0857515 Eh     change    :  -0.6589922E-05 Eh
   gradient norm :     0.0018869 Eh/a0  converged?    E=F G=F D=F
   time step     :     0.2500000 fs     power     :   0.3435953E-09
   step length   :     0.0045938 a0     speed     :   0.4444761E-03

........................................................................
.............................. CYCLE   44 ..............................
........................................................................

 iter      E             dE          RMSdq      gap      omega  full diag
   1  -5198.6161005 -0.519862E+04  0.139E-04    4.08       0.0  T
   2  -5198.6161005 -0.726686E-09  0.836E-05    4.08      19.3  T
   3  -5198.6161005  0.352975E-08  0.270E-05    4.08      59.6  T
     SCC iter.                  ...       10 min, 34.563 sec
     gradient                   ...        6 min,  2.814 sec
 * total energy  : -5104.0857583 Eh     change    :  -0.6806333E-05 Eh
   gradient norm :     0.0017297 Eh/a0  converged?    E=F G=F D=F
   time step     :     0.2500000 fs     power     :   0.3538276E-09
   step length   :     0.0045758 a0     speed     :   0.4427336E-03

........................................................................
.............................. CYCLE   45 ..............................
........................................................................

 iter      E             dE          RMSdq      gap      omega  full diag
   1  -5198.6162733 -0.519862E+04  0.152E-04    4.08       0.0  T
   2  -5198.6162733 -0.119053E-08  0.923E-05    4.08      17.4  T
   3  -5198.6162733  0.482032E-08  0.311E-05    4.08      51.8  T
     SCC iter.                  ...       10 min, 38.261 sec
     gradient                   ...        5 min, 48.752 sec
 * total energy  : -5104.0857651 Eh     change    :  -0.6777552E-05 Eh
   gradient norm :     0.0015625 Eh/a0  converged?    E=F G=F D=F
   time step     :     0.2500000 fs     power     :   0.3497974E-09
   step length   :     0.0045989 a0     speed     :   0.4449645E-03

........................................................................
.............................. CYCLE   46 ..............................
........................................................................

 iter      E             dE          RMSdq      gap      omega  full diag
   1  -5198.6163808 -0.519862E+04  0.161E-04    4.08       0.0  T
   2  -5198.6163808 -0.128784E-08  0.980E-05    4.08      16.4  T
   3  -5198.6163808  0.513683E-08  0.322E-05    4.08      49.9  T
     SCC iter.                  ...       10 min, 35.010 sec
     gradient                   ...        5 min, 46.982 sec
 * total energy  : -5104.0857717 Eh     change    :  -0.6559379E-05 Eh
   gradient norm :     0.0014706 Eh/a0  converged?    E=F G=F D=F
   time step     :     0.2500000 fs     power     :   0.3366438E-09
   step length   :     0.0046499 a0     speed     :   0.4499040E-03

........................................................................
.............................. CYCLE   47 ..............................
........................................................................

 iter      E             dE          RMSdq      gap      omega  full diag
   1  -5198.6164458 -0.519862E+04  0.160E-04    4.08       0.0  T
   2  -5198.6164458 -0.116324E-08  0.972E-05    4.08      16.6  T
   3  -5198.6164458  0.432192E-08  0.289E-05    4.08      55.6  T
     SCC iter.                  ...       10 min, 37.288 sec
     gradient                   ...        5 min, 49.791 sec
 * total energy  : -5104.0857781 Eh     change    :  -0.6377902E-05 Eh
   gradient norm :     0.0014843 Eh/a0  converged?    E=F G=F D=F
   time step     :     0.2500000 fs     power     :   0.3246271E-09
   step length   :     0.0047006 a0     speed     :   0.4548124E-03

........................................................................
.............................. CYCLE   48 ..............................
........................................................................

 iter      E             dE          RMSdq      gap      omega  full diag
   1  -5198.6165001 -0.519862E+04  0.166E-04    4.08       0.0  T
   2  -5198.6165001 -0.106320E-08  0.997E-05    4.08      16.1  T
   3  -5198.6165001  0.317323E-08  0.248E-05    4.08      65.0  T
     SCC iter.                  ...       10 min, 36.211 sec
     gradient                   ...        5 min, 48.564 sec
 * total energy  : -5104.0857848 Eh     change    :  -0.6766259E-05 Eh
   gradient norm :     0.0015591 Eh/a0  converged?    E=F G=F D=F
   time step     :     0.2750000 fs     power     :   0.3208235E-09
   step length   :     0.0052078 a0     speed     :   0.4580710E-03

........................................................................
.............................. CYCLE   49 ..............................
........................................................................

 iter      E             dE          RMSdq      gap      omega  full diag
   1  -5198.6165634 -0.519862E+04  0.167E-04    4.08       0.0  T
   2  -5198.6165634 -0.742148E-09  0.989E-05    4.08      16.3  T
   3  -5198.6165634  0.121872E-08  0.167E-05    4.08      96.0  T
     SCC iter.                  ...       10 min, 38.159 sec
     gradient                   ...        5 min, 52.978 sec
 * total energy  : -5104.0857924 Eh     change    :  -0.7565833E-05 Eh
   gradient norm :     0.0016257 Eh/a0  converged?    E=F G=F D=F
   time step     :     0.3025000 fs     power     :   0.3278155E-09
   step length   :     0.0057494 a0     speed     :   0.4597419E-03

........................................................................
.............................. CYCLE   50 ..............................
........................................................................

 iter      E             dE          RMSdq      gap      omega  full diag
   1  -5198.6166387 -0.519862E+04  0.171E-04    4.08       0.0  T
   2  -5198.6166387 -0.515683E-09  0.101E-04    4.08      16.0  T
   3  -5198.6166387  0.585715E-09  0.129E-05    4.08     124.6  T
     SCC iter.                  ...       10 min, 39.064 sec
     gradient                   ...        5 min, 54.293 sec
 * total energy  : -5104.0858010 Eh     change    :  -0.8639351E-05 Eh
   gradient norm :     0.0016109 Eh/a0  converged?    E=F G=F D=F
   time step     :     0.3327500 fs     power     :   0.3391138E-09
   step length   :     0.0063527 a0     speed     :   0.4618033E-03

........................................................................
.............................. CYCLE   51 ..............................
........................................................................

 iter      E             dE          RMSdq      gap      omega  full diag
   1  -5198.6167032 -0.519862E+04  0.183E-04    4.08       0.0  T
   2  -5198.6167032 -0.653927E-09  0.109E-04    4.08      14.8  T
   3  -5198.6167032  0.165073E-08  0.190E-05    4.08      84.5  T
     SCC iter.                  ...       10 min, 36.592 sec
     gradient                   ...        5 min, 47.045 sec
 * total energy  : -5104.0858108 Eh     change    :  -0.9764735E-05 Eh
   gradient norm :     0.0015339 Eh/a0  converged?    E=F G=F D=F
   time step     :     0.3660250 fs     power     :   0.3482992E-09
   step length   :     0.0070585 a0     speed     :   0.4664646E-03

........................................................................
.............................. CYCLE   52 ..............................
........................................................................

 iter      E             dE          RMSdq      gap      omega  full diag
   1  -5198.6167017 -0.519862E+04  0.206E-04    4.08       0.0  T
   2  -5198.6167017 -0.130603E-08  0.124E-04    4.08      12.9  T
   3  -5198.6167017  0.516957E-08  0.314E-05    4.08      51.2  T
     SCC iter.                  ...       10 min, 36.868 sec
     gradient                   ...        5 min, 47.258 sec
 * total energy  : -5104.0858217 Eh     change    :  -0.1085603E-04 Eh
   gradient norm :     0.0014501 Eh/a0  converged?    E=F G=F D=F
   time step     :     0.4026275 fs     power     :   0.3499386E-09
   step length   :     0.0079002 a0     speed     :   0.4746213E-03

........................................................................
.............................. CYCLE   53 ..............................
........................................................................

 iter      E             dE          RMSdq      gap      omega  full diag
   1  -5198.6165625 -0.519862E+04  0.232E-04    4.08       0.0  T
   2  -5198.6165625 -0.180535E-08  0.141E-04    4.08      11.4  T
   3  -5198.6165625  0.828550E-08  0.391E-05    4.08      41.1  T
     SCC iter.                  ...       10 min, 35.839 sec
     gradient                   ...        5 min, 46.059 sec
 * total energy  : -5104.0858336 Eh     change    :  -0.1198530E-04 Eh
   gradient norm :     0.0014325 Eh/a0  converged?    E=F G=F D=F
   time step     :     0.4428903 fs     power     :   0.3474156E-09
   step length   :     0.0088864 a0     speed     :   0.4853377E-03

........................................................................
.............................. CYCLE   54 ..............................
........................................................................

 iter      E             dE          RMSdq      gap      omega  full diag
   1  -5198.6162561 -0.519862E+04  0.255E-04    4.08       0.0  T
   2  -5198.6162561 -0.179898E-08  0.154E-04    4.08      10.5  T
   3  -5198.6162561  0.685668E-08  0.365E-05    4.08      44.0  T
     SCC iter.                  ...       10 min, 36.084 sec
     gradient                   ...        5 min, 54.333 sec
 * total energy  : -5104.0858467 Eh     change    :  -0.1305243E-04 Eh
   gradient norm :     0.0014692 Eh/a0  converged?    E=F G=F D=F
   time step     :     0.4871793 fs     power     :   0.3489230E-09
   step length   :     0.0099965 a0     speed     :   0.4963326E-03

........................................................................
.............................. CYCLE   55 ..............................
........................................................................

 iter      E             dE          RMSdq      gap      omega  full diag
   1  -5198.6158634 -0.519862E+04  0.274E-04    4.08       0.0  T
   2  -5198.6158634 -0.144337E-08  0.162E-04    4.08       9.9  T
   3  -5198.6158634  0.250930E-08  0.254E-05    4.08      63.2  T
     SCC iter.                  ...       10 min, 33.894 sec
     gradient                   ...        5 min, 47.283 sec
 * total energy  : -5104.0858613 Eh     change    :  -0.1461512E-04 Eh
   gradient norm :     0.0014956 Eh/a0  converged?    E=F G=F D=F
   time step     :     0.5358972 fs     power     :   0.3578636E-09
   step length   :     0.0112318 a0     speed     :   0.5069686E-03

........................................................................
.............................. CYCLE   56 ..............................
........................................................................

 iter      E             dE          RMSdq      gap      omega  full diag
   1  -5198.6155824 -0.519862E+04  0.295E-04    4.08       0.0  T
   2  -5198.6155824 -0.155251E-08  0.175E-04    4.08       9.2  T
   3  -5198.6155824  0.397267E-08  0.285E-05    4.08      56.4  T
     SCC iter.                  ...       10 min, 36.846 sec
     gradient                   ...        5 min, 47.497 sec
 * total energy  : -5104.0858779 Eh     change    :  -0.1658844E-04 Eh
   gradient norm :     0.0014719 Eh/a0  converged?    E=F G=F D=F
   time step     :     0.5894869 fs     power     :   0.3704846E-09
   step length   :     0.0126422 a0     speed     :   0.5187570E-03

........................................................................
.............................. CYCLE   57 ..............................
........................................................................

 iter      E             dE          RMSdq      gap      omega  full diag
   1  -5198.6156430 -0.519862E+04  0.331E-04    4.08       0.0  T
   2  -5198.6156430 -0.190994E-08  0.198E-04    4.08       8.1  T
   3  -5198.6156430  0.107075E-07  0.443E-05    4.08      36.3  T
     SCC iter.                  ...       10 min, 37.456 sec
     gradient                   ...        5 min, 48.827 sec
 * total energy  : -5104.0858967 Eh     change    :  -0.1882570E-04 Eh
   gradient norm :     0.0014031 Eh/a0  converged?    E=F G=F D=F
   time step     :     0.6484356 fs     power     :   0.3797071E-09
   step length   :     0.0142990 a0     speed     :   0.5334016E-03

........................................................................
.............................. CYCLE   58 ..............................
........................................................................

 iter      E             dE          RMSdq      gap      omega  full diag
   1  -5198.6161275 -0.519862E+04  0.373E-04    4.08       0.0  T
   2  -5198.6161275 -0.277578E-08  0.223E-04    4.08       7.2  T
   3  -5198.6161275  0.147174E-07  0.527E-05    4.08      30.6  T
     SCC iter.                  ...       10 min, 34.255 sec
     gradient                   ...        5 min, 48.859 sec
 * total energy  : -5104.0859178 Eh     change    :  -0.2110487E-04 Eh
   gradient norm :     0.0014094 Eh/a0  converged?    E=F G=F D=F
   time step     :     0.7132792 fs     power     :   0.3843669E-09
   step length   :     0.0162605 a0     speed     :   0.5514286E-03

........................................................................
.............................. CYCLE   59 ..............................
........................................................................

 iter      E             dE          RMSdq      gap      omega  full diag
   1  -5198.6167982 -0.519862E+04  0.403E-04    4.08       0.0  T
   2  -5198.6167982 -0.218915E-08  0.238E-04    4.08       6.8  T
   3  -5198.6167982  0.437558E-08  0.331E-05    4.08      48.6  T
     SCC iter.                  ...       10 min, 39.681 sec
     gradient                   ...        5 min, 51.140 sec
 * total energy  : -5104.0859417 Eh     change    :  -0.2383876E-04 Eh
   gradient norm :     0.0014517 Eh/a0  converged?    E=F G=F D=F
   time step     :     0.7846071 fs     power     :   0.3972822E-09
   step length   :     0.0184918 a0     speed     :   0.5700870E-03

........................................................................
.............................. CYCLE   60 ..............................
........................................................................

 iter      E             dE          RMSdq      gap      omega  full diag
   1  -5198.6173191 -0.519862E+04  0.447E-04    4.08       0.0  T
   2  -5198.6173191 -0.308137E-08  0.264E-04    4.08       6.1  T
   3  -5198.6173191  0.119990E-07  0.492E-05    4.08      32.7  T
     SCC iter.                  ...       10 min, 34.270 sec
     gradient                   ...        5 min, 52.729 sec
 * total energy  : -5104.0859689 Eh     change    :  -0.2725229E-04 Eh
   gradient norm :     0.0013866 Eh/a0  converged?    E=F G=F D=F
   time step     :     0.8630678 fs     power     :   0.4137237E-09
   step length   :     0.0210471 a0     speed     :   0.5898774E-03

........................................................................
.............................. CYCLE   61 ..............................
........................................................................

 iter      E             dE          RMSdq      gap      omega  full diag
   1  -5198.6176369 -0.519862E+04  0.508E-04    4.08       0.0  T
   2  -5198.6176369 -0.461114E-08  0.302E-04    4.08       5.3  T
   3  -5198.6176369  0.180698E-07  0.583E-05    4.08      27.6  T
     SCC iter.                  ...       10 min, 36.181 sec
     gradient                   ...        5 min, 52.755 sec
 * total energy  : -5104.0859998 Eh     change    :  -0.3091503E-04 Eh
   gradient norm :     0.0013812 Eh/a0  converged?    E=F G=F D=F
   time step     :     0.9493746 fs     power     :   0.4229435E-09
   step length   :     0.0241058 a0     speed     :   0.6141845E-03

........................................................................
.............................. CYCLE   62 ..............................
........................................................................

 iter      E             dE          RMSdq      gap      omega  full diag
   1  -5198.6179058 -0.519862E+04  0.561E-04    4.08       0.0  T
   2  -5198.6179058 -0.433647E-08  0.331E-04    4.08       4.9  T
   3  -5198.6179058  0.127447E-07  0.534E-05    4.08      30.1  T
     SCC iter.                  ...       10 min, 32.414 sec
     gradient                   ...        5 min, 51.706 sec
 * total energy  : -5104.0860349 Eh     change    :  -0.3506143E-04 Eh
   gradient norm :     0.0014139 Eh/a0  converged?    E=F G=F D=F
   time step     :     1.0443120 fs     power     :   0.4401279E-09
   step length   :     0.0276334 a0     speed     :   0.6400581E-03

........................................................................
.............................. CYCLE   63 ..............................
........................................................................

 iter      E             dE          RMSdq      gap      omega  full diag
   1  -5198.6178959 -0.519862E+04  0.640E-04    4.08       0.0  T
   2  -5198.6178959 -0.642740E-08  0.379E-04    4.08       4.2  T
   3  -5198.6178959  0.319997E-07  0.779E-05    4.08      20.6  T
     SCC iter.                  ...       10 min, 36.139 sec
     gradient                   ...        5 min, 53.161 sec
 * total energy  : -5104.0860753 Eh     change    :  -0.4036294E-04 Eh
   gradient norm :     0.0013453 Eh/a0  converged?    E=F G=F D=F
   time step     :     1.1487432 fs     power     :   0.4585105E-09
   step length   :     0.0317153 a0     speed     :   0.6678220E-03

........................................................................
.............................. CYCLE   64 ..............................
........................................................................

 iter      E             dE          RMSdq      gap      omega  full diag
   1  -5198.6177418 -0.519862E+04  0.732E-04    4.08       0.0  T
   2  -5198.6177418 -0.921227E-08  0.433E-04    4.08       3.7  T
   3  -5198.6177418  0.404916E-07  0.887E-05    4.08      18.1  T
     SCC iter.                  ...       10 min, 35.160 sec
     gradient                   ...        5 min, 51.758 sec
 * total energy  : -5104.0861205 Eh     change    :  -0.4520298E-04 Eh
   gradient norm :     0.0014106 Eh/a0  converged?    E=F G=F D=F
   time step     :     1.2500000 fs     power     :   0.4697706E-09
   step length   :     0.0361844 a0     speed     :   0.7002078E-03

........................................................................
.............................. CYCLE   65 ..............................
........................................................................

 iter      E             dE          RMSdq      gap      omega  full diag
   1  -5198.6185058 -0.519862E+04  0.767E-04    4.08       0.0  T
   2  -5198.6185058 -0.869295E-08  0.452E-04    4.08       3.6  T
   3  -5198.6185058  0.452037E-07  0.951E-05    4.08      16.9  T
     SCC iter.                  ...       10 min, 36.517 sec
     gradient                   ...        5 min, 54.625 sec
 * total energy  : -5104.0861673 Eh     change    :  -0.4680193E-04 Eh
   gradient norm :     0.0013975 Eh/a0  converged?    E=F G=F D=F
   time step     :     1.2500000 fs     power     :   0.4884854E-09
   step length   :     0.0376568 a0     speed     :   0.7286993E-03

........................................................................
.............................. CYCLE   66 ..............................
........................................................................

 iter      E             dE          RMSdq      gap      omega  full diag
   1  -5198.6190887 -0.519862E+04  0.785E-04    4.08       0.0  T
   2  -5198.6190887 -0.162445E-07  0.463E-04    4.08       3.5  T
   3  -5198.6190887  0.416567E-07  0.106E-04    4.08      15.2  T
     SCC iter.                  ...       10 min, 41.616 sec
     gradient                   ...        5 min, 52.709 sec
 * total energy  : -5104.0862151 Eh     change    :  -0.4779202E-04 Eh
   gradient norm :     0.0016069 Eh/a0  converged?    E=F G=F D=F
   time step     :     1.2500000 fs     power     :   0.4896601E-09
   step length   :     0.0391334 a0     speed     :   0.7572729E-03

........................................................................
.............................. CYCLE   67 ..............................
........................................................................

 iter      E             dE          RMSdq      gap      omega  full diag
   1  -5198.6192467 -0.519862E+04  0.832E-04    4.08       0.0  T
   2  -5198.6192468 -0.349319E-07  0.490E-04    4.08       3.3  T
   3  -5198.6192467  0.490963E-07  0.140E-04    4.08      11.5  T
     SCC iter.                  ...       10 min, 40.147 sec
     gradient                   ...        5 min, 51.205 sec
 * total energy  : -5104.0862632 Eh     change    :  -0.4816521E-04 Eh
   gradient norm :     0.0020326 Eh/a0  converged?    E=F G=F D=F
   time step     :     1.2500000 fs     power     :   0.4792133E-09
   step length   :     0.0401785 a0     speed     :   0.7774969E-03
 * RMSD in coord.:     0.0064557 a0     energy gain  -0.5182677E-03 Eh

........................................................................
.............................. CYCLE   68 ..............................
........................................................................

 iter      E             dE          RMSdq      gap      omega  full diag
   1  -5198.6192885 -0.519862E+04  0.157E-04    4.08       0.0  T
   2  -5198.6192885 -0.109230E-08  0.922E-05    4.08      17.4  T
   3  -5198.6192885  0.393266E-08  0.336E-05    4.08      47.8  T
     SCC iter.                  ...       10 min, 36.466 sec
     gradient                   ...        5 min, 47.595 sec
 * total energy  : -5104.0862733 Eh     change    :  -0.1003480E-04 Eh
   gradient norm :     0.0017509 Eh/a0  converged?    E=F G=F D=F
   time step     :     0.2500000 fs     power     :   0.5223724E-09
   step length   :     0.0077802 a0     speed     :   0.7527806E-03

........................................................................
.............................. CYCLE   69 ..............................
........................................................................

 iter      E             dE          RMSdq      gap      omega  full diag
   1  -5198.6193517 -0.519862E+04  0.188E-04    4.08       0.0  T
   2  -5198.6193517 -0.619730E-08  0.112E-04    4.08      14.3  T
   3  -5198.6193517  0.309592E-08  0.514E-05    4.08      31.3  T
     SCC iter.                  ...       10 min, 35.656 sec
     gradient                   ...        5 min, 50.803 sec
 * total energy  : -5104.0862832 Eh     change    :  -0.9912749E-05 Eh
   gradient norm :     0.0012671 Eh/a0  converged?    E=F G=F D=F
   time step     :     0.2500000 fs     power     :   0.4988391E-09
   step length   :     0.0076627 a0     speed     :   0.7414034E-03

........................................................................
.............................. CYCLE   70 ..............................
........................................................................

 iter      E             dE          RMSdq      gap      omega  full diag
   1  -5198.6194450 -0.519862E+04  0.193E-04    4.08       0.0  T
   2  -5198.6194450 -0.637283E-08  0.116E-04    4.08      13.9  T
   3  -5198.6194450  0.325781E-08  0.500E-05    4.08      32.2  T
     SCC iter.                  ...       10 min, 39.732 sec
     gradient                   ...        5 min, 54.056 sec
 * total energy  : -5104.0862921 Eh     change    :  -0.8943808E-05 Eh
   gradient norm :     0.0015375 Eh/a0  converged?    E=F G=F D=F
   time step     :     0.2500000 fs     power     :   0.4504748E-09
   step length   :     0.0077129 a0     speed     :   0.7462629E-03

........................................................................
.............................. CYCLE   71 ..............................
........................................................................

 iter      E             dE          RMSdq      gap      omega  full diag
   1  -5198.6195507 -0.519862E+04  0.158E-04    4.08       0.0  T
   2  -5198.6195507 -0.101045E-08  0.938E-05    4.08      17.1  T
[...]
  3613   6 C     3614   6 C                                       1.3826006
  3608   6 C     3615   6 C                                       1.5358871
  3615   6 C     3616   6 C                                       1.5338034
  3617   6 C     3618   6 C                                       1.3899707
  3618   6 C     3619   6 C                                       1.3834903
  3619   6 C     3620   6 C                                       1.3838731
  3620   6 C     3621   6 C                                       1.3846200
  3617   6 C     3622   6 C                                       1.3906185
  3621   6 C     3622   6 C                                       1.3836407
  3616   6 C     3623   6 C                                       1.5361404
  3623   6 C     3624   6 C                                       1.5374125
  3625   6 C     3626   6 C                                       1.3907250
  3626   6 C     3627   6 C                                       1.3813357
  3627   6 C     3628   6 C                                       1.3843261
  3628   6 C     3629   6 C                                       1.3831385
  3625   6 C     3630   6 C                                       1.3876392
  3629   6 C     3630   6 C                                       1.3838366
  3624   6 C     3631   6 C                                       1.5371163
  3631   6 C     3632   6 C                                       1.5367913
  3633   6 C     3634   6 C                                       1.3888381
  3634   6 C     3635   6 C                                       1.3825909
  3635   6 C     3636   6 C                                       1.3833317
  3636   6 C     3637   6 C                                       1.3844810
  3633   6 C     3638   6 C                                       1.3903313
  3637   6 C     3638   6 C                                       1.3831712
  3632   6 C     3639   6 C                                       1.5356264
  3639   6 C     3640   6 C                                       1.5381641
  3641   6 C     3642   6 C                                       1.3911448
  3642   6 C     3643   6 C                                       1.3819953
  3643   6 C     3644   6 C                                       1.3843816
  3644   6 C     3645   6 C                                       1.3840800
  3641   6 C     3646   6 C                                       1.3889693
  3645   6 C     3646   6 C                                       1.3841144
  3640   6 C     3647   6 C                                       1.5371645
  3649   6 C     3650   6 C                                       1.3909989
  3650   6 C     3651   6 C                                       1.3832165
  3651   6 C     3652   6 C                                       1.3850948
  3652   6 C     3653   6 C                                       1.3840293
  3649   6 C     3654   6 C                                       1.3894739
  3653   6 C     3654   6 C                                       1.3840726
  3648   6 C     3655   6 C                                       1.5351635
  3655   6 C     3656   6 C                                       1.5318801
  3657   6 C     3658   6 C                                       1.3899926
  3658   6 C     3659   6 C                                       1.3830791
  3659   6 C     3660   6 C                                       1.3843363
  3660   6 C     3661   6 C                                       1.3847411
  3657   6 C     3662   6 C                                       1.3887840
  3661   6 C     3662   6 C                                       1.3838223
  3665   6 C     3666   6 C                                       1.3888878
  3666   6 C     3667   6 C                                       1.3832315
  3667   6 C     3668   6 C                                       1.3830272
  3668   6 C     3669   6 C                                       1.3847061
  3665   6 C     3670   6 C                                       1.3908596
  3669   6 C     3670   6 C                                       1.3824713
  3664   6 C     3671   6 C                                       1.5380841
  3671   6 C     3672   6 C                                       1.5392005
  3673   6 C     3674   6 C                                       1.3911094
  3674   6 C     3675   6 C                                       1.3835794
  3675   6 C     3676   6 C                                       1.3848519
  3676   6 C     3677   6 C                                       1.3834840
  3673   6 C     3678   6 C                                       1.3890553
  3677   6 C     3678   6 C                                       1.3840320
  3672   6 C     3679   6 C                                       1.5329875
  3681   6 C     3682   6 C                                       1.3885650
  3682   6 C     3683   6 C                                       1.3830312
  3683   6 C     3684   6 C                                       1.3833787
  3684   6 C     3685   6 C                                       1.3846251
  3681   6 C     3686   6 C                                       1.3895741
  3685   6 C     3686   6 C                                       1.3830100
  3680   6 C     3687   6 C                                       1.5337002
  3687   6 C     3688   6 C                                       1.5373565
  3549   6 C     3689   1 H                                       1.0954936
  3551   6 C     3690   1 H                                       1.0902430
  3551   6 C     3691   1 H                                       1.0916812
  3552   6 C     3692   1 H                                       1.0952092
  3559   6 C     3693   1 H                                       1.0929756
  3559   6 C     3694   1 H                                       1.0921323
  3560   6 C     3695   1 H                                       1.0951086
  3567   6 C     3696   1 H                                       1.0897193
  3567   6 C     3697   1 H                                       1.0921395
  3568   6 C     3698   1 H                                       1.0941253
  3575   6 C     3699   1 H                                       1.0909327
  3576   6 C     3700   1 H                                       1.0952602
  3583   6 C     3701   1 H                                       1.0913521
  3583   6 C     3702   1 H                                       1.0918467
  3584   6 C     3703   1 H                                       1.0964420
  3591   6 C     3704   1 H                                       1.0918631
  3591   6 C     3705   1 H                                       1.0944237
  3592   6 C     3706   1 H                                       1.0958739
  3599   6 C     3707   1 H                                       1.0899306
  3599   6 C     3708   1 H                                       1.0934430
  3600   6 C     3709   1 H                                       1.0944369
  3608   6 C     3710   1 H                                       1.0932326
  3615   6 C     3711   1 H                                       1.0898702
  3615   6 C     3712   1 H                                       1.0910746
  3616   6 C     3713   1 H                                       1.0951678
  3623   6 C     3714   1 H                                       1.0930579
  3623   6 C     3715   1 H                                       1.0917945
  3624   6 C     3716   1 H                                       1.0954826
  3631   6 C     3717   1 H                                       1.0918831
  3631   6 C     3718   1 H                                       1.0915976
  3632   6 C     3719   1 H                                       1.0961229
  3639   6 C     3720   1 H                                       1.0917583
  3639   6 C     3721   1 H                                       1.0918848
  3640   6 C     3722   1 H                                       1.0959434
  3647   6 C     3723   1 H                                       1.0907365
  3647   6 C     3724   1 H                                       1.0930085
  3648   6 C     3725   1 H                                       1.0949660
  3655   6 C     3726   1 H                                       1.0888018
  3655   6 C     3727   1 H                                       1.0885843
  3656   6 C     3728   1 H                                       1.0960623
  3663   6 C     3729   1 H                                       1.0928220
  3663   6 C     3730   1 H                                       1.0917219
  3664   6 C     3731   1 H                                       1.0944985
  3671   6 C     3732   1 H                                       1.0916816
  3671   6 C     3733   1 H                                       1.0911259
  3672   6 C     3734   1 H                                       1.0964655
  3679   6 C     3735   1 H                                       1.0906847
  3679   6 C     3736   1 H                                       1.0927665
  3543   6 C     3737   1 H                                       1.0820345
  3548   6 C     3738   1 H                                       1.0790473
  3547   6 C     3739   1 H                                       1.0801384
  3546   6 C     3740   1 H                                       1.0813714
  3545   6 C     3741   1 H                                       1.0781387
  3554   6 C     3742   1 H                                       1.0810815
  3555   6 C     3743   1 H                                       1.0802683
  3556   6 C     3744   1 H                                       1.0802333
  3557   6 C     3745   1 H                                       1.0797025
  3558   6 C     3746   1 H                                       1.0824982
  3562   6 C     3747   1 H                                       1.0787718
  3563   6 C     3748   1 H                                       1.0801543
  3564   6 C     3749   1 H                                       1.0808780
  3565   6 C     3750   1 H                                       1.0808067
  3566   6 C     3751   1 H                                       1.0802180
  3570   6 C     3752   1 H                                       1.0804083
  3571   6 C     3753   1 H                                       1.0801557
  3572   6 C     3754   1 H                                       1.0805883
  3573   6 C     3755   1 H                                       1.0803875
  3574   6 C     3756   1 H                                       1.0811308
  3575   6 C     3757   1 H                                       1.0925675
  3578   6 C     3758   1 H                                       1.0811232
  3579   6 C     3759   1 H                                       1.0797983
  3580   6 C     3760   1 H                                       1.0812209
  3581   6 C     3761   1 H                                       1.0816617
  3582   6 C     3762   1 H                                       1.0792453
  3586   6 C     3763   1 H                                       1.0798963
  3587   6 C     3764   1 H                                       1.0815527
  3588   6 C     3765   1 H                                       1.0796345
  3589   6 C     3766   1 H                                       1.0804170
  3590   6 C     3767   1 H                                       1.0800390
  3594   6 C     3768   1 H                                       1.0780553
  3595   6 C     3769   1 H                                       1.0809502
  3596   6 C     3770   1 H                                       1.0803196
  3597   6 C     3771   1 H                                       1.0812450
  3598   6 C     3772   1 H                                       1.0812148
  3602   6 C     3773   1 H                                       1.0807042
  3603   6 C     3774   1 H                                       1.0813240
  3604   6 C     3775   1 H                                       1.0795312
  3605   6 C     3776   1 H                                       1.0803358
  3606   6 C     3777   1 H                                       1.0790309
  3607   6 C     3778   1 H                                       1.0925857
  3607   6 C     3779   1 H                                       1.0925221
  3610   6 C     3780   1 H                                       1.0798627
  3611   6 C     3781   1 H                                       1.0808425
  3612   6 C     3782   1 H                                       1.0792670
  3613   6 C     3783   1 H                                       1.0791974
  3614   6 C     3784   1 H                                       1.0808953
  3618   6 C     3785   1 H                                       1.0803606
  3619   6 C     3786   1 H                                       1.0808092
  3620   6 C     3787   1 H                                       1.0803495
  3621   6 C     3788   1 H                                       1.0809653
  3622   6 C     3789   1 H                                       1.0797169
  3626   6 C     3790   1 H                                       1.0800033
  3627   6 C     3791   1 H                                       1.0795725
  3628   6 C     3792   1 H                                       1.0799489
  3629   6 C     3793   1 H                                       1.0795537
  3630   6 C     3794   1 H                                       1.0811486
  3634   6 C     3795   1 H                                       1.0807603
  3635   6 C     3796   1 H                                       1.0798745
  3636   6 C     3797   1 H                                       1.0810287
  3637   6 C     3798   1 H                                       1.0803322
  3638   6 C     3799   1 H                                       1.0808571
  3642   6 C     3800   1 H                                       1.0796699
  3643   6 C     3801   1 H                                       1.0801905
  3644   6 C     3802   1 H                                       1.0793909
  3645   6 C     3803   1 H                                       1.0816456
  3646   6 C     3804   1 H                                       1.0807453
  3650   6 C     3805   1 H                                       1.0804657
  3651   6 C     3806   1 H                                       1.0805805
  3652   6 C     3807   1 H                                       1.0802586
  3653   6 C     3808   1 H                                       1.0807813
  3654   6 C     3809   1 H                                       1.0815884
  3658   6 C     3810   1 H                                       1.0797637
  3659   6 C     3811   1 H                                       1.0807026
  3660   6 C     3812   1 H                                       1.0806014
  3661   6 C     3813   1 H                                       1.0812837
  3662   6 C     3814   1 H                                       1.0812298
  3666   6 C     3815   1 H                                       1.0809506
  3667   6 C     3816   1 H                                       1.0798711
  3668   6 C     3817   1 H                                       1.0803027
  3669   6 C     3818   1 H                                       1.0803263
  3670   6 C     3819   1 H                                       1.0805323
  3674   6 C     3820   1 H                                       1.0806746
  3675   6 C     3821   1 H                                       1.0804992
  3676   6 C     3822   1 H                                       1.0803959
  3677   6 C     3823   1 H                                       1.0789691
  3678   6 C     3824   1 H                                       1.0807728
  3686   6 C     3825   1 H                                       1.0805080
  3685   6 C     3826   1 H                                       1.0805435
  3684   6 C     3827   1 H                                       1.0801894
  3683   6 C     3828   1 H                                       1.0803583
  3682   6 C     3829   1 H                                       1.0806308
  3550   6 C     3830   1 H                                       1.0883980
  3550   6 C     3831   1 H                                       1.0883721
  3550   6 C     3832   1 H                                       1.0868477
  3680   6 C     3833   1 H                                       1.0949485
  3687   6 C     3834   1 H                                       1.0915949
  3687   6 C     3835   1 H                                       1.0921108
  3688   6 C     3836   6 C                                       1.5363855
  3837   6 C     3838   6 C                                       1.3901160
  3838   6 C     3839   6 C                                       1.3822792
  3839   6 C     3840   6 C                                       1.3841190
  3840   6 C     3841   6 C                                       1.3835147
  3837   6 C     3842   6 C                                       1.3897781
  3841   6 C     3842   6 C                                       1.3845317
  3838   6 C     3843   1 H                                       1.0804938
  3839   6 C     3844   1 H                                       1.0789829
  3840   6 C     3845   1 H                                       1.0800645
  3841   6 C     3846   1 H                                       1.0809190
  3842   6 C     3847   1 H                                       1.0811945
  3836   6 C     3848   6 C                                       1.5343298
  3836   6 C     3849   1 H                                       1.0927502
  3836   6 C     3850   1 H                                       1.0923413
  3851   6 C     3852   6 C                                       1.3891666
  3852   6 C     3853   6 C                                       1.3824884
  3853   6 C     3854   6 C                                       1.3838441
  3854   6 C     3855   6 C                                       1.3842482
  3851   6 C     3856   6 C                                       1.3887240
  3855   6 C     3856   6 C                                       1.3838304
  3852   6 C     3857   1 H                                       1.0804971
  3853   6 C     3858   1 H                                       1.0797401
  3854   6 C     3859   1 H                                       1.0798398
  3855   6 C     3860   1 H                                       1.0806669
  3856   6 C     3861   1 H                                       1.0811376
  3688   6 C     3862   1 H                                       1.0957864
  3848   6 C     3863   1 H                                       1.0918710
  3848   6 C     3864   1 H                                       1.0920433

 * 2 distinct bonds (by element types)

   Z      Z             #   av. dist./Å        max./Å        min./Å
   1 H    6 C        1944     1.0851001     1.0980011     1.0769532
   6 C    6 C        1851     1.4190244     1.5407044     1.3807277


optimized geometry written to: xtbopt.xyz


           -------------------------------------------------
          | TOTAL ENERGY            -5104.091180685969 Eh   |
          | GRADIENT NORM               0.000959880517 Eh/α |
          | HOMO-LUMO GAP               4.070657973312 eV   |
           -------------------------------------------------

------------------------------------------------------------------------
 * finished run on 2024/10/08 at 06:04:54.929     
------------------------------------------------------------------------
 total:
 * wall-time:     3 d, 10 h, 43 min, 25.520 sec
 *  cpu-time:    20 d, 21 h, 13 min,  4.792 sec
 * ratio c/w:     6.059 speedup
 SCF:
 * wall-time:     0 d,  0 h, 48 min, 53.776 sec
 *  cpu-time:     0 d,  5 h, 46 min, 35.268 sec
 * ratio c/w:     7.088 speedup
 ANC optimizer:
 * wall-time:     3 d,  9 h, 53 min, 20.922 sec
 *  cpu-time:    20 d, 15 h, 24 min, 57.392 sec
 * ratio c/w:     6.050 speedup

