      -----------------------------------------------------------      
     |                   =====================                   |     
     |                           x T B                           |     
     |                   =====================                   |     
     |                         S. Grimme                         |     
     |          Mulliken Center for Theoretical Chemistry        |     
     |                    University of Bonn                     |     
      -----------------------------------------------------------      

   * xtb version 6.6.1 (8d0f1dd) compiled by 'stahn@M-Bot' on 2023-08-01

   xtb is free software: you can redistribute it and/or modify it under
   the terms of the GNU Lesser General Public License as published by
   the Free Software Foundation, either version 3 of the License, or
   (at your option) any later version.
   
   xtb is distributed in the hope that it will be useful,
   but WITHOUT ANY WARRANTY; without even the implied warranty of
   MERCHANTABILITY or FITNESS FOR A PARTICULAR PURPOSE.  See the
   GNU Lesser General Public License for more details.
   
   Cite this work as:
   * C. Bannwarth, E. Caldeweyher, S. Ehlert, A. Hansen, P. Pracht,
     J. Seibert, S. Spicher, S. Grimme, WIREs Comput. Mol. Sci., 2020, 11,
     e01493. DOI: 10.1002/wcms.1493
   
   for GFN2-xTB:
   * C. Bannwarth, S. Ehlert and S. Grimme., J. Chem. Theory Comput., 2019,
     15, 1652-1671. DOI: 10.1021/acs.jctc.8b01176
   for GFN1-xTB:
   * S. Grimme, C. Bannwarth, P. Shushkov, J. Chem. Theory Comput., 2017,
     13, 1989-2009. DOI: 10.1021/acs.jctc.7b00118
   for GFN0-xTB:
   * P. Pracht, E. Caldeweyher, S. Ehlert, S. Grimme, ChemRxiv, 2019, preprint.
     DOI: 10.26434/chemrxiv.8326202.v1
   for GFN-FF:
   * S. Spicher and S. Grimme, Angew. Chem. Int. Ed., 2020, 59, 15665-15673.
     DOI: 10.1002/anie.202004239
   
   for ALPB and GBSA implicit solvation:
   * S. Ehlert, M. Stahn, S. Spicher, S. Grimme, J. Chem. Theory Comput.,
     2021, 17, 4250-4261. DOI: 10.1021/acs.jctc.1c00471
   
   for DFT-D4:
   * E. Caldeweyher, C. Bannwarth and S. Grimme, J. Chem. Phys., 2017,
     147, 034112. DOI: 10.1063/1.4993215
   * E. Caldeweyher, S. Ehlert, A. Hansen, H. Neugebauer, S. Spicher,
     C. Bannwarth and S. Grimme, J. Chem. Phys., 2019, 150, 154122.
     DOI: 10.1063/1.5090222
   * E. Caldeweyher, J.-M. Mewes, S. Ehlert and S. Grimme, Phys. Chem. Chem. Phys.
     2020, 22, 8499-8512. DOI: 10.1039/D0CP00502A
   
   for sTDA-xTB:
   * S. Grimme and C. Bannwarth, J. Chem. Phys., 2016, 145, 054103.
     DOI: 10.1063/1.4959605
   
   in the mass-spec context:
   * V. Asgeirsson, C. Bauer and S. Grimme, Chem. Sci., 2017, 8, 4879.
     DOI: 10.1039/c7sc00601b
   * J. Koopman and S. Grimme, ACS Omega 2019, 4, 12, 15120-15133.
     DOI: 10.1021/acsomega.9b02011
   
   for metadynamics refer to:
   * S. Grimme, J. Chem. Theory Comput., 2019, 155, 2847-2862
     DOI: 10.1021/acs.jctc.9b00143
   
   for SPH calculations refer to:
   * S. Spicher and S. Grimme, J. Chem. Theory Comput., 2021, 17, 1701-1714
     DOI: 10.1021/acs.jctc.0c01306
   
   with help from (in alphabetical order)
   P. Atkinson, C. Bannwarth, F. Bohle, G. Brandenburg, E. Caldeweyher
   M. Checinski, S. Dohm, S. Ehlert, S. Ehrlich, I. Gerasimov, C. Hölzer
   A. Katbashev, J. Koopman, C. Lavigne, S. Lehtola, F. März, M. Müller,
   F. Musil, H. Neugebauer, J. Pisarek, C. Plett, P. Pracht, F. Pultar,
   J. Seibert, P. Shushkov, S. Spicher, M. Stahn, M. Steiner, T. Strunk,
   J. Stückrath, T. Rose, and J. Unsleber
   
 * started run on 2024/07/12 at 12:22:27.128     

           -------------------------------------------------
          |                Calculation Setup                |
           -------------------------------------------------

          program call               : /home/abt-grimme/AK-bin/xtb input.xyz --input input.inp --opt --gbsa water
          hostname                   : boar098.thch.uni-bonn.de
          coordinate file            : input.xyz
          omp threads                :                     8

   ID    Z sym.   atoms
    1    6 C      1-146, 294-300, 306, 309-314, 323-468, 616-622, 628,
                  631-636, 645-790, 938-944, 950, 953-958, 967-1112,
                  1260-1266, 1272, 1275-1280, 1289-1434, 1582-1588, 1594,
                  1597-1602, 1611-1756, 1904-1910, 1916, 1919-1924,
                  1933-2078, 2226-2232, 2238, 2241-2246, 2255-2400,
                  2548-2554, 2560, 2563-2568, 2577-2722, 2870-2876, 2882,
                  2885-2890, 2899-3044, 3192-3198, 3204, 3207-3212,
                  3221-3366, 3514-3520, 3526, 3529-3534, 3543-3688,
                  3836-3842, 3848, 3851-3856
    2    1 H      147-293, 301-305, 307, 308, 315-322, 469-615, 623-627, 629,
                  630, 637-644, 791-937, 945-949, 951, 952, 959-966,
                  1113-1259, 1267-1271, 1273, 1274, 1281-1288, 1435-1581,
                  1589-1593, 1595, 1596, 1603-1610, 1757-1903, 1911-1915,
                  1917, 1918, 1925-1932, 2079-2225, 2233-2237, 2239, 2240,
                  2247-2254, 2401-2547, 2555-2559, 2561, 2562, 2569-2576,
                  2723-2869, 2877-2881, 2883, 2884, 2891-2898, 3045-3191,
                  3199-3203, 3205, 3206, 3213-3220, 3367-3513, 3521-3525,
                  3527, 3528, 3535-3542, 3689-3835, 3843-3847, 3849, 3850,
                  3857-3864

molecular fragmentation (1/2 indicates fragments):
111111111111111111111111111111111111111111111111111111111111111111111111
111111111111111111111111111111111111111111111111111111111111111111111111
111111111111111111111111111111111111111111111111111111111111111111111111
111111111111111111111111111111111111111111111111111111111111111111111111
111111111111111111111111111111111122222222222222222222222222222222222222
222222222222222222222222222222222222222222222222222222222222222222222222
222222222222222222222222222222222222222222222222222222222222222222222222
222222222222222222222222222222222222222222222222222222222222222222222222
222222222222222222222222222222222222222222222222222222222222222222222222
222222222222222222222222222222222222222222222222222222222222222222222222
222222222222222222222222222222222222222222222222222222222222222222222222
222222222222222222222222222222222222222222222222222222222222222222222222
222222222222222222222222222222222222222222222222222222222222222222222222
222222222222222222222222222222222222222222222222222222222222222222222222
222222222222222222222222222222222222222222222222222222222222222222222222
222222222222222222222222222222222222222222222222222222222222222222222222
222222222222222222222222222222222222222222222222222222222222222222222222
222222222222222222222222222222222222222222222222222222222222222222222222
222222222222222222222222222222222222222222222222222222222222222222222222
222222222222222222222222222222222222222222222222222222222222222222222222
222222222222222222222222222222222222222222222222222222222222222222222222
222222222222222222222222222222222222222222222222222222222222222222222222
222222222222222222222222222222222222222222222222222222222222222222222222
222222222222222222222222222222222222222222222222222222222222222222222222
222222222222222222222222222222222222222222222222222222222222222222222222
222222222222222222222222222222222222222222222222222222222222222222222222
222222222222222222222222222222222222222222222222222222222222222222222222
222222222222222222222222222222222222222222222222222222222222222222222222
222222222222222222222222222222222222222222222222222222222222222222222222
222222222222222222222222222222222222222222222222222222222222222222222222
222222222222222222222222222222222222222222222222222222222222222222222222
222222222222222222222222222222222222222222222222222222222222222222222222
222222222222222222222222222222222222222222222222222222222222222222222222
222222222222222222222222222222222222222222222222222222222222222222222222
222222222222222222222222222222222222222222222222222222222222222222222222
222222222222222222222222222222222222222222222222222222222222222222222222
222222222222222222222222222222222222222222222222222222222222222222222222
222222222222222222222222222222222222222222222222222222222222222222222222
222222222222222222222222222222222222222222222222222222222222222222222222
222222222222222222222222222222222222222222222222222222222222222222222222
222222222222222222222222222222222222222222222222222222222222222222222222
222222222222222222222222222222222222222222222222222222222222222222222222
222222222222222222222222222222222222222222222222222222222222222222222222
222222222222222222222222222222222222222222222222222222222222222222222222
222222222222222222222222222222222222222222222222222222222222222222222222
222222222222222222222222222222222222222222222222222222222222222222222222
222222222222222222222222222222222222222222222222222222222222222222222222
222222222222222222222222222222222222222222222222222222222222222222222222
222222222222222222222222222222222222222222222222222222222222222222222222
222222222222222222222222222222222222222222222222222222222222222222222222
222222222222222222222222222222222222222222222222222222222222222222222222
222222222222222222222222222222222222222222222222222222222222222222222222
222222222222222222222222222222222222222222222222222222222222222222222222
222222222222222222222222222222222222222222222222
# atoms in fragment 1/2:   322  3542
 fragment masses (1/2) :     2085.00    22935.05
CMA distance (Bohr)    :  25.018
constraining FC (au)   :  0.0500

           -------------------------------------------------
          |                 G F N 2 - x T B                 |
           -------------------------------------------------

        Reference                      10.1021/acs.jctc.8b01176
      * Hamiltonian:
        H0-scaling (s, p, d)           1.850000    2.230000    2.230000
        zeta-weighting                 0.500000
      * Dispersion:
        s8                             2.700000
        a1                             0.520000
        a2                             5.000000
        s9                             5.000000
      * Repulsion:
        kExp                           1.500000    1.000000
        rExp                           1.000000
      * Coulomb:
        alpha                          2.000000
        third order                    shell-resolved
        anisotropic                    true
        a3                             3.000000
        a5                             4.000000
        cn-shift                       1.200000
        cn-exp                         4.000000
        max-rad                        5.000000

      * Solvation model:               GBSA
        Solvent                        water
        Parameter file                 internal GFN2-xTB/GBSA
        Dielectric constant                8.0200E+01
        Reference state                gsolv [1 M gas/solution]
        Free energy shift                  1.8574E-03 Eh       1.1656E+00 kcal/mol
        Temperature                        2.9815E+02 K
        Density                            1.0000E+00 kg/L
        Solvent mass                       1.8000E+01 g/mol
        Interaction kernel             Still
        Born radius scaling (c1)           1.5524E+00
        Born radii integrator          GBOBC
        Born offset                        2.4628E-02 a0       4.6540E-02 AA
        H-bond correction              true
        Ion screening                  false
        Surface tension                    1.0000E-05 Eh       1.5569E+01 dyn/cm
        Grid points                               230 per atom
q/qsh data taken from xtbrestart
CAMM data taken from xtbrestart

          ...................................................
          :                      SETUP                      :
          :.................................................:
          :  # basis functions                9624          :
          :  # atomic orbitals                9624          :
          :  # shells                         5784          :
          :  # electrons                      9624          :
          :  max. iterations                   250          :
          :  Hamiltonian                  GFN2-xTB          :
          :  restarted?                       true          :
          :  GBSA solvation                   true          :
          :  PC potential                    false          :
          :  electronic temp.          300.0000000     K    :
          :  accuracy                    1.0000000          :
          :  -> integral cutoff          0.2500000E+02      :
          :  -> integral neglect         0.1000000E-07      :
          :  -> SCF convergence          0.1000000E-05 Eh   :
          :  -> wf. convergence          0.1000000E-03 e    :
          :  Broyden damping             0.4000000          :
          ...................................................

 iter      E             dE          RMSdq      gap      omega  full diag
   1  -5190.5084589 -0.519051E+04  0.804E-05    3.83       0.0  T
   2  -5190.5084589 -0.670207E-08  0.646E-05    3.83      24.9  T
   3  -5190.5084589 -0.550335E-08  0.516E-05    3.83      31.2  T

   *** convergence criteria satisfied after 3 iterations ***

         #    Occupation            Energy/Eh            Energy/eV
      -------------------------------------------------------------
         1        2.0000           -0.6336892             -17.2436
       ...           ...                  ...                  ...
      4806        2.0000           -0.3638329              -9.9004
      4807        2.0000           -0.3636914              -9.8965
      4808        2.0000           -0.3632452              -9.8844
      4809        2.0000           -0.3625543              -9.8656
      4810        2.0000           -0.3620538              -9.8520
      4811        2.0000           -0.3612581              -9.8303
      4812        2.0000           -0.3606860              -9.8148 (HOMO)
      4813                         -0.2199303              -5.9846 (LUMO)
      4814                         -0.2195316              -5.9738
      4815                         -0.2193731              -5.9694
      4816                         -0.2192624              -5.9664
      4817                         -0.2191796              -5.9642
       ...                                ...                  ...
      9624                          0.6661099              18.1258
      -------------------------------------------------------------
                  HL-Gap            0.1407557 Eh            3.8302 eV
             Fermi-level           -0.2903082 Eh           -7.8997 eV

 SCC (total)                   0 d,  0 h, 16 min, 25.111 sec
 SCC setup                      ...        0 min,  2.368 sec (  0.240%)
 Dispersion                     ...        0 min,  7.021 sec (  0.713%)
 classical contributions        ...        0 min,  0.158 sec (  0.016%)
 integral evaluation            ...        0 min, 11.888 sec (  1.207%)
 iterations                     ...       10 min, 35.251 sec ( 64.485%)
 molecular gradient             ...        5 min,  1.455 sec ( 30.601%)
 printout                       ...        0 min, 26.969 sec (  2.738%)

         :::::::::::::::::::::::::::::::::::::::::::::::::::::
         ::                     SUMMARY                     ::
         :::::::::::::::::::::::::::::::::::::::::::::::::::::
         :: total energy           -5103.338487642818 Eh    ::
         :: total w/o Gsasa/hb     -5103.149861781390 Eh    ::
         :: gradient norm              0.734237064281 Eh/a0 ::
         :: HOMO-LUMO gap              3.830156491834 eV    ::
         ::.................................................::
         :: SCC energy             -5190.508458931072 Eh    ::
         :: -> isotropic ES            0.274633038167 Eh    ::
         :: -> anisotropic ES          0.835852664286 Eh    ::
         :: -> anisotropic XC          3.454192798730 Eh    ::
         :: -> dispersion             -6.922974105413 Eh    ::
         :: -> Gsolv                  -0.192223002956 Eh    ::
         ::    -> Gelec               -0.003597141529 Eh    ::
         ::    -> Gsasa               -0.183419883676 Eh    ::
         ::    -> Ghb                 -0.007063420878 Eh    ::
         ::    -> Gshift               0.001857443127 Eh    ::
         :: repulsion energy          86.026342560044 Eh    ::
         :: add. restraining           0.000000000000 Eh    ::
         :: total charge              -0.000000000031 e     ::
         :::::::::::::::::::::::::::::::::::::::::::::::::::::

      ----------------------------------------------------------- 
     |              Fast Inertial Relaxation Engine              |
      ----------------------------------------------------------- 

          ...................................................
          :                      SETUP                      :
          :.................................................:
          :   energy convergence        0.5000000E-05 Eh    :
          :   grad. convergence         0.1000000E-02 Eh/a0 :
          :   optimization log               true           :
          :   writing optlog all                1     steps :
          :   Hessian reset                    20     steps :
          :   time step scaling                 5     steps :
          :   maximium step len.        1.0000000     a0    :
          :   initial time step         0.2500000     fs    :
          :   maximum time step         1.2500000     fs    :
          :   power reset thr           0.0000000     au    :
          :   alpha parameter           0.1000000           :
          :   BFGS update                   false           :
          :   preconditioning               false           :
          ...................................................

........................................................................
.............................. CYCLE    1 ..............................
........................................................................

 iter      E             dE          RMSdq      gap      omega  full diag
   1  -5190.7190361 -0.519072E+04  0.901E-03    3.84       0.0  T
   2  -5190.7190718 -0.357484E-04  0.552E-03    3.84       1.0  T
   3  -5190.7190621  0.974282E-05  0.295E-03    3.84       1.0  T
   4  -5190.7190804 -0.182925E-04  0.788E-04    3.84       2.0  T
   5  -5190.7190821 -0.174976E-05  0.279E-04    3.84       5.8  T
   6  -5190.7190823 -0.115319E-06  0.186E-04    3.84       8.6  T
   7  -5190.7190823 -0.499567E-07  0.131E-04    3.84      12.3  T
     SCC iter.                  ...       24 min, 36.533 sec
     gradient                   ...        5 min,  1.780 sec
 * total energy  : -5103.3989580 Eh     change    :  -0.6047037E-01 Eh
   gradient norm :     0.6747985 Eh/a0  converged?    E=F G=F D=F
   time step     :     0.2500000 fs     power     :   0.3073235E-05
   step length   :     0.0860510 a0     speed     :   0.8325898E-02

........................................................................
.............................. CYCLE    2 ..............................
........................................................................

 iter      E             dE          RMSdq      gap      omega  full diag
   1  -5191.0289596 -0.519103E+04  0.131E-02    3.86       0.0  T
   2  -5191.0290355 -0.759607E-04  0.803E-03    3.86       1.0  T
   3  -5191.0290152  0.203607E-04  0.426E-03    3.86       1.0  T
   4  -5191.0290533 -0.381166E-04  0.115E-03    3.86       1.4  T
   5  -5191.0290570 -0.374037E-05  0.415E-04    3.86       3.9  T
   6  -5191.0290573 -0.249045E-06  0.284E-04    3.86       5.7  T
   7  -5191.0290574 -0.118933E-06  0.200E-04    3.86       8.0  T
     SCC iter.                  ...       24 min, 39.984 sec
     gradient                   ...        5 min,  2.965 sec
 * total energy  : -5103.4782001 Eh     change    :  -0.7924211E-01 Eh
   gradient norm :     0.5921541 Eh/a0  converged?    E=F G=F D=F
   time step     :     0.2500000 fs     power     :   0.3919817E-05
   step length   :     0.1255082 a0     speed     :   0.1214359E-01

........................................................................
.............................. CYCLE    3 ..............................
........................................................................

 iter      E             dE          RMSdq      gap      omega  full diag
   1  -5191.4308668 -0.519143E+04  0.167E-02    3.88       0.0  T
   2  -5191.4309885 -0.121720E-03  0.102E-02    3.88       1.0  T
   3  -5191.4309559  0.326225E-04  0.534E-03    3.88       1.0  T
   4  -5191.4310158 -0.599571E-04  0.146E-03    3.88       1.1  T
   5  -5191.4310219 -0.605463E-05  0.528E-04    3.88       3.0  T
   6  -5191.4310223 -0.389974E-06  0.365E-04    3.88       4.4  T
   7  -5191.4310225 -0.200613E-06  0.258E-04    3.88       6.2  T
     SCC iter.                  ...       24 min, 40.474 sec
     gradient                   ...        5 min,  0.201 sec
 * total energy  : -5103.5641897 Eh     change    :  -0.8598954E-01 Eh
   gradient norm :     0.4946203 Eh/a0  converged?    E=F G=F D=F
   time step     :     0.2500000 fs     power     :   0.4111950E-05
   step length   :     0.1599969 a0     speed     :   0.1548056E-01

........................................................................
.............................. CYCLE    4 ..............................
........................................................................

 iter      E             dE          RMSdq      gap      omega  full diag
   1  -5191.9167332 -0.519192E+04  0.194E-02    3.90       0.0  T
   2  -5191.9168963 -0.163168E-03  0.119E-02    3.90       1.0  T
   3  -5191.9168518  0.445401E-04  0.612E-03    3.90       1.0  T
   4  -5191.9169310 -0.792106E-04  0.169E-03    3.90       1.0  T
   5  -5191.9169393 -0.824999E-05  0.614E-04    3.90       2.6  T
   6  -5191.9169398 -0.502911E-06  0.430E-04    3.90       3.7  T
   7  -5191.9169401 -0.282848E-06  0.302E-04    3.90       5.3  T
     SCC iter.                  ...       24 min, 40.778 sec
     gradient                   ...        5 min,  2.976 sec
 * total energy  : -5103.6450158 Eh     change    :  -0.8082611E-01 Eh
   gradient norm :     0.3965567 Eh/a0  converged?    E=F G=F D=F
   time step     :     0.2500000 fs     power     :   0.3692988E-05
   step length   :     0.1882574 a0     speed     :   0.1821491E-01

........................................................................
.............................. CYCLE    5 ..............................
........................................................................

 iter      E             dE          RMSdq      gap      omega  full diag
   1  -5192.4781168 -0.519248E+04  0.213E-02    3.92       0.0  T
   2  -5192.4783056 -0.188770E-03  0.130E-02    3.92       1.0  T
   3  -5192.4782516  0.539743E-04  0.651E-03    3.92       1.0  T
   4  -5192.4783428 -0.911456E-04  0.182E-03    3.92       1.0  T
   5  -5192.4783526 -0.980426E-05  0.666E-04    3.92       2.4  T
   6  -5192.4783531 -0.552934E-06  0.472E-04    3.92       3.4  T
   7  -5192.4783535 -0.349989E-06  0.330E-04    3.92       4.9  T
     SCC iter.                  ...       24 min, 37.521 sec
     gradient                   ...        5 min,  2.754 sec
 * total energy  : -5103.7116205 Eh     change    :  -0.6660471E-01 Eh
   gradient norm :     0.3206945 Eh/a0  converged?    E=F G=F D=F
   time step     :     0.2500000 fs     power     :   0.2853938E-05
   step length   :     0.2091904 a0     speed     :   0.2024030E-01

........................................................................
.............................. CYCLE    6 ..............................
........................................................................

 iter      E             dE          RMSdq      gap      omega  full diag
   1  -5193.1713363 -0.519317E+04  0.243E-02    3.94       0.0  T
   2  -5193.1715640 -0.227615E-03  0.147E-02    3.94       1.0  T
   3  -5193.1714931  0.708586E-04  0.705E-03    3.94       1.0  T
   4  -5193.1716038 -0.110664E-03  0.202E-03    3.94       1.0  T
   5  -5193.1716161 -0.123565E-04  0.743E-04    3.94       2.2  T
   6  -5193.1716167 -0.617500E-06  0.529E-04    3.94       3.0  T
   7  -5193.1716172 -0.453509E-06  0.364E-04    3.94       4.4  T
     SCC iter.                  ...       24 min, 38.973 sec
     gradient                   ...        4 min, 59.040 sec
 * total energy  : -5103.7643529 Eh     change    :  -0.5273245E-01 Eh
   gradient norm :     0.2923347 Eh/a0  converged?    E=F G=F D=F
   time step     :     0.2750000 fs     power     :   0.1802662E-05
   step length   :     0.2452968 a0     speed     :   0.2157616E-01

........................................................................
.............................. CYCLE    7 ..............................
........................................................................

 iter      E             dE          RMSdq      gap      omega  full diag
   1  -5193.9875135 -0.519399E+04  0.258E-02    3.96       0.0  T
   2  -5193.9877333 -0.219765E-03  0.155E-02    3.95       1.0  T
   3  -5193.9876572  0.760819E-04  0.676E-03    3.95       1.0  T
   4  -5193.9877649 -0.107763E-03  0.202E-03    3.95       1.0  T
   5  -5193.9877778 -0.128060E-04  0.765E-04    3.95       2.1  T
   6  -5193.9877783 -0.578386E-06  0.541E-04    3.95       3.0  T
   7  -5193.9877788 -0.506857E-06  0.363E-04    3.95       4.4  T
     SCC iter.                  ...       24 min, 39.676 sec
     gradient                   ...        5 min,  4.317 sec
 * total energy  : -5103.8016265 Eh     change    :  -0.3727351E-01 Eh
   gradient norm :     0.3213027 Eh/a0  converged?    E=F G=F D=F
   time step     :     0.3025000 fs     power     :   0.9705560E-06
   step length   :     0.2736912 a0     speed     :   0.2188520E-01

........................................................................
.............................. CYCLE    8 ..............................
........................................................................

 iter      E             dE          RMSdq      gap      omega  full diag
   1  -5194.8910766 -0.519489E+04  0.256E-02    3.97       0.0  T
   2  -5194.8912395 -0.162820E-03  0.152E-02    3.97       1.0  T
   3  -5194.8911842  0.552755E-04  0.543E-03    3.97       1.0  T
   4  -5194.8912564 -0.722396E-04  0.178E-03    3.97       1.0  T
   5  -5194.8912666 -0.101689E-04  0.722E-04    3.97       2.2  T
   6  -5194.8912671 -0.487652E-06  0.477E-04    3.96       3.4  T
   7  -5194.8912675 -0.453982E-06  0.313E-04    3.96       5.1  T
     SCC iter.                  ...       24 min, 39.311 sec
     gradient                   ...        5 min,  2.681 sec
 * total energy  : -5103.8316029 Eh     change    :  -0.2997648E-01 Eh
   gradient norm :     0.3641848 Eh/a0  converged?    E=F G=F D=F
   time step     :     0.3327500 fs     power     :   0.7000155E-06
   step length   :     0.2937392 a0     speed     :   0.2135301E-01

........................................................................
.............................. CYCLE    9 ..............................
........................................................................

 iter      E             dE          RMSdq      gap      omega  full diag
   1  -5195.8385892 -0.519584E+04  0.251E-02    3.98       0.0  T
   2  -5195.8386861 -0.968511E-04  0.147E-02    3.98       1.0  T
   3  -5195.8386702  0.159027E-04  0.350E-03    3.98       1.0  T
   4  -5195.8386950 -0.248458E-04  0.123E-03    3.98       1.3  T
   5  -5195.8386991 -0.407606E-05  0.629E-04    3.98       2.6  T
   6  -5195.8386995 -0.383212E-06  0.361E-04    3.98       4.5  T
   7  -5195.8386998 -0.318014E-06  0.240E-04    3.98       6.7  T
     SCC iter.                  ...       24 min, 38.129 sec
     gradient                   ...        5 min,  7.213 sec
 * total energy  : -5103.8672846 Eh     change    :  -0.3568169E-01 Eh
   gradient norm :     0.3757479 Eh/a0  converged?    E=F G=F D=F
   time step     :     0.3660250 fs     power     :   0.9299957E-06
   step length   :     0.3137691 a0     speed     :   0.2073550E-01

........................................................................
.............................. CYCLE   10 ..............................
........................................................................

 iter      E             dE          RMSdq      gap      omega  full diag
   1  -5196.7848766 -0.519678E+04  0.258E-02    3.99       0.0  T
   2  -5196.7849514 -0.748076E-04  0.151E-02    3.99       1.0  T
   3  -5196.7849173  0.341592E-04  0.414E-03    3.99       1.0  T
   4  -5196.7849649 -0.476480E-04  0.107E-03    3.99       1.5  T
   5  -5196.7849675 -0.254457E-05  0.526E-04    3.99       3.1  T
   6  -5196.7849677 -0.254621E-06  0.323E-04    3.99       5.0  T
   7  -5196.7849679 -0.184262E-06  0.193E-04    3.99       8.3  T
     SCC iter.                  ...       24 min, 40.726 sec
     gradient                   ...        4 min, 59.658 sec
 * total energy  : -5103.9154345 Eh     change    :  -0.4814983E-01 Eh
   gradient norm :     0.3315543 Eh/a0  converged?    E=F G=F D=F
   time step     :     0.4026275 fs     power     :   0.1210049E-05
   step length   :     0.3431349 a0     speed     :   0.2061468E-01

........................................................................
.............................. CYCLE   11 ..............................
........................................................................

 iter      E             dE          RMSdq      gap      omega  full diag
   1  -5197.6802063 -0.519768E+04  0.287E-02    3.99       0.0  T
   2  -5197.6803394 -0.133096E-03  0.170E-02    3.99       1.0  T
   3  -5197.6802268  0.112522E-03  0.701E-03    3.99       1.0  T
   4  -5197.6803785 -0.151689E-03  0.137E-03    3.99       1.2  T
   5  -5197.6803828 -0.429694E-05  0.584E-04    3.99       2.8  T
   6  -5197.6803835 -0.713182E-06  0.296E-04    3.99       5.4  T
   7  -5197.6803836 -0.739819E-07  0.153E-04    3.99      10.5  T
     SCC iter.                  ...       24 min, 33.218 sec
     gradient                   ...        5 min,  7.411 sec
 * total energy  : -5103.9655024 Eh     change    :  -0.5006795E-01 Eh
   gradient norm :     0.2339453 Eh/a0  converged?    E=F G=F D=F
   time step     :     0.4428903 fs     power     :   0.9374927E-06
   step length   :     0.3839249 a0     speed     :   0.2096840E-01

........................................................................
.............................. CYCLE   12 ..............................
........................................................................

 iter      E             dE          RMSdq      gap      omega  full diag
   1  -5198.4679111 -0.519847E+04  0.324E-02    3.98       0.0  T
   2  -5198.4681584 -0.247366E-03  0.195E-02    3.98       1.0  T
   3  -5198.4679899  0.168569E-03  0.937E-03    3.98       1.0  T
   4  -5198.4682362 -0.246320E-03  0.179E-03    3.98       1.0  T
   5  -5198.4682443 -0.814771E-05  0.680E-04    3.98       2.4  T
   6  -5198.4682453 -0.936939E-06  0.361E-04    3.98       4.5  T
   7  -5198.4682454 -0.106294E-06  0.218E-04    3.98       7.4  T
     SCC iter.                  ...       24 min, 38.382 sec
     gradient                   ...        5 min,  0.324 sec
 * total energy  : -5103.9894029 Eh     change    :  -0.2390048E-01 Eh
   gradient norm :     0.1674701 Eh/a0  converged?    E=F G=F D=F
   time step     :     0.4871793 fs     power     :  -0.1392012E-06
   step length   :     0.4233854 a0     speed     :   0.2102143E-01

........................................................................
.............................. CYCLE   13 ..............................
........................................................................
 * reset velocities

 iter      E             dE          RMSdq      gap      omega  full diag
   1  -5198.4547924 -0.519845E+04  0.903E-04    3.98       0.0  T
   2  -5198.4547928 -0.413401E-06  0.546E-04    3.98       2.9  T
   3  -5198.4547928  0.507680E-08  0.259E-04    3.98       6.2  T
     SCC iter.                  ...       10 min, 34.644 sec
     gradient                   ...        5 min,  0.302 sec
 * total energy  : -5103.9909398 Eh     change    :  -0.1536953E-02 Eh
   gradient norm :     0.1625012 Eh/a0  converged?    E=F G=F D=F
   time step     :     0.2435896 fs     power     :   0.8245699E-07
   step length   :     0.0093168 a0     speed     :   0.9251688E-03

........................................................................
.............................. CYCLE   14 ..............................
........................................................................

 iter      E             dE          RMSdq      gap      omega  full diag
   1  -5198.4281626 -0.519843E+04  0.177E-03    3.98       0.0  T
   2  -5198.4281641 -0.145201E-05  0.106E-03    3.98       1.5  T
   3  -5198.4281640  0.861792E-07  0.453E-04    3.98       3.6  T
   4  -5198.4281642 -0.224237E-06  0.136E-04    3.98      11.8  T
     SCC iter.                  ...       14 min,  8.088 sec
     gradient                   ...        5 min,  6.276 sec
 * total energy  : -5103.9938332 Eh     change    :  -0.2893387E-02 Eh
   gradient norm :     0.1529623 Eh/a0  converged?    E=F G=F D=F
   time step     :     0.2435896 fs     power     :   0.1527433E-06
   step length   :     0.0183561 a0     speed     :   0.1822793E-02

........................................................................
.............................. CYCLE   15 ..............................
........................................................................

 iter      E             dE          RMSdq      gap      omega  full diag
   1  -5198.3888909 -0.519839E+04  0.255E-03    3.98       0.0  T
   2  -5198.3888939 -0.307466E-05  0.154E-03    3.99       1.0  T
   3  -5198.3888937  0.254297E-06  0.702E-04    3.99       2.3  T
   4  -5198.3888943 -0.615913E-06  0.206E-04    3.99       7.8  T
     SCC iter.                  ...       14 min,  5.401 sec
     gradient                   ...        5 min,  6.251 sec
 * total energy  : -5103.9977538 Eh     change    :  -0.3920585E-02 Eh
   gradient norm :     0.1397986 Eh/a0  converged?    E=F G=F D=F
   time step     :     0.2435896 fs     power     :   0.2034395E-06
   step length   :     0.0268570 a0     speed     :   0.2666944E-02

........................................................................
.............................. CYCLE   16 ..............................
........................................................................

 iter      E             dE          RMSdq      gap      omega  full diag
   1  -5198.3377593 -0.519834E+04  0.325E-03    3.98       0.0  T
   2  -5198.3377642 -0.489909E-05  0.196E-03    3.99       1.0  T
   3  -5198.3377637  0.463408E-06  0.887E-04    3.99       1.8  T
   4  -5198.3377648 -0.102696E-05  0.266E-04    3.99       6.1  T
   5  -5198.3377650 -0.183062E-06  0.892E-05    3.99      18.0  T
     SCC iter.                  ...       17 min, 39.947 sec
     gradient                   ...        5 min,  1.842 sec
 * total energy  : -5104.0022839 Eh     change    :  -0.4530059E-02 Eh
   gradient norm :     0.1244014 Eh/a0  converged?    E=F G=F D=F
   time step     :     0.2435896 fs     power     :   0.2307042E-06
   step length   :     0.0345954 a0     speed     :   0.3435377E-02

........................................................................
.............................. CYCLE   17 ..............................
........................................................................

 iter      E             dE          RMSdq      gap      omega  full diag
   1  -5198.2758164 -0.519828E+04  0.385E-03    3.98       0.0  T
   2  -5198.2758231 -0.673382E-05  0.231E-03    3.99       1.0  T
   3  -5198.2758225  0.610878E-06  0.102E-03    3.99       1.6  T
   4  -5198.2758238 -0.133666E-05  0.309E-04    3.99       5.2  T
   5  -5198.2758241 -0.246346E-06  0.104E-04    3.99      15.4  T
   6  -5198.2758241 -0.120162E-07  0.697E-05    3.99      23.1  T
     SCC iter.                  ...       21 min,  7.847 sec
     gradient                   ...        5 min,  0.679 sec
 * total energy  : -5104.0069933 Eh     change    :  -0.4709424E-02 Eh
   gradient norm :     0.1086841 Eh/a0  converged?    E=F G=F D=F
   time step     :     0.2435896 fs     power     :   0.2350407E-06
   step length   :     0.0413917 a0     speed     :   0.4110267E-02

........................................................................
.............................. CYCLE   18 ..............................
........................................................................

 iter      E             dE          RMSdq      gap      omega  full diag
   1  -5198.2044649 -0.519820E+04  0.431E-03    3.98       0.0  T
   2  -5198.2044730 -0.802629E-05  0.259E-03    3.98       1.0  T
   3  -5198.2044720  0.966552E-06  0.112E-03    3.98       1.4  T
   4  -5198.2044738 -0.179387E-05  0.353E-04    3.98       4.6  T
   5  -5198.2044741 -0.340103E-06  0.113E-04    3.98      14.2  T
   6  -5198.2044741 -0.130185E-07  0.739E-05    3.99      21.8  T
     SCC iter.                  ...       21 min,  9.301 sec
     gradient                   ...        5 min,  2.542 sec
 * total energy  : -5104.0115205 Eh     change    :  -0.4527165E-02 Eh
   gradient norm :     0.0949699 Eh/a0  converged?    E=F G=F D=F
   time step     :     0.2435896 fs     power     :   0.2213263E-06
   step length   :     0.0471099 a0     speed     :   0.4678086E-02

........................................................................
.............................. CYCLE   19 ..............................
........................................................................

 iter      E             dE          RMSdq      gap      omega  full diag
   1  -5198.1169118 -0.519812E+04  0.514E-03    3.98       0.0  T
   2  -5198.1169223 -0.104594E-04  0.309E-03    3.98       1.0  T
   3  -5198.1169206  0.169699E-05  0.129E-03    3.98       1.2  T
   4  -5198.1169233 -0.275101E-05  0.417E-04    3.98       3.9  T
   5  -5198.1169238 -0.498842E-06  0.130E-04    3.98      12.4  T
   6  -5198.1169239 -0.141872E-07  0.821E-05    3.98      19.6  T
     SCC iter.                  ...       21 min,  4.764 sec
     gradient                   ...        4 min, 59.383 sec
 * total energy  : -5104.0160458 Eh     change    :  -0.4525378E-02 Eh
   gradient norm :     0.0846591 Eh/a0  converged?    E=F G=F D=F
   time step     :     0.2679486 fs     power     :   0.1944901E-06
   step length   :     0.0573553 a0     speed     :   0.5177704E-02

........................................................................
.............................. CYCLE   20 ..............................
........................................................................

 iter      E             dE          RMSdq      gap      omega  full diag
   1  -5198.0137405 -0.519801E+04  0.595E-03    3.98       0.0  T
   2  -5198.0137525 -0.120277E-04  0.358E-03    3.98       1.0  T
   3  -5198.0137495  0.294001E-05  0.142E-03    3.98       1.1  T
   4  -5198.0137538 -0.420656E-05  0.466E-04    3.98       3.5  T
   5  -5198.0137544 -0.652707E-06  0.141E-04    3.98      11.4  T
   6  -5198.0137544 -0.121445E-07  0.854E-05    3.98      18.8  T
     SCC iter.                  ...       21 min,  7.596 sec
     gradient                   ...        5 min,  0.989 sec
 * total energy  : -5104.0203674 Eh     change    :  -0.4321534E-02 Eh
   gradient norm :     0.0801535 Eh/a0  converged?    E=F G=F D=F
   time step     :     0.2947435 fs     power     :   0.1636958E-06
   step length   :     0.0679150 a0     speed     :   0.5573614E-02
 * RMSD in coord.:     0.0407304 a0     energy gain  -0.6818797E+00 Eh

........................................................................
.............................. CYCLE   21 ..............................
........................................................................

 iter      E             dE          RMSdq      gap      omega  full diag
   1  -5197.9261162 -0.519793E+04  0.510E-03    3.98       0.0  T
   2  -5197.9261232 -0.703220E-05  0.306E-03    3.98       1.0  T
   3  -5197.9261205  0.278538E-05  0.116E-03    3.98       1.4  T
   4  -5197.9261241 -0.367510E-05  0.364E-04    3.98       4.4  T
   5  -5197.9261245 -0.412424E-06  0.113E-04    3.98      14.2  T
   6  -5197.9261245 -0.501859E-08  0.646E-05    3.98      24.9  T
     SCC iter.                  ...       21 min,  8.493 sec
     gradient                   ...        5 min,  3.535 sec
 * total energy  : -5104.0235717 Eh     change    :  -0.3204327E-02 Eh
   gradient norm :     0.0799854 Eh/a0  converged?    E=F G=F D=F
   time step     :     0.2500000 fs     power     :   0.1482681E-06
   step length   :     0.0593422 a0     speed     :   0.5741675E-02

........................................................................
.............................. CYCLE   22 ..............................
........................................................................

 iter      E             dE          RMSdq      gap      omega  full diag
   1  -5197.8422762 -0.519784E+04  0.511E-03    3.98       0.0  T
   2  -5197.8422813 -0.517120E-05  0.307E-03    3.98       1.0  T
   3  -5197.8422778  0.348511E-05  0.112E-03    3.98       1.4  T
   4  -5197.8422822 -0.440437E-05  0.307E-04    3.98       5.2  T
   5  -5197.8422825 -0.289624E-06  0.101E-04    3.98      16.0  T
   6  -5197.8422825 -0.106411E-08  0.532E-05    3.98      30.2  T
     SCC iter.                  ...       21 min,  5.054 sec
     gradient                   ...        4 min, 58.658 sec
 * total energy  : -5104.0266069 Eh     change    :  -0.3035237E-02 Eh
   gradient norm :     0.0800757 Eh/a0  converged?    E=F G=F D=F
   time step     :     0.2500000 fs     power     :   0.1436324E-06
   step length   :     0.0602736 a0     speed     :   0.5831795E-02

........................................................................
.............................. CYCLE   23 ..............................
........................................................................

 iter      E             dE          RMSdq      gap      omega  full diag
   1  -5197.7654284 -0.519777E+04  0.514E-03    3.98       0.0  T
   2  -5197.7654320 -0.358336E-05  0.308E-03    3.98       1.0  T
   3  -5197.7654279  0.404241E-05  0.110E-03    3.98       1.5  T
   4  -5197.7654329 -0.500687E-05  0.244E-04    3.98       6.6  T
   5  -5197.7654331 -0.169333E-06  0.918E-05    3.98      17.5  T
   6  -5197.7654331 -0.479304E-09  0.477E-05    3.98      33.7  T
     SCC iter.                  ...       21 min,  7.527 sec
     gradient                   ...        5 min,  1.139 sec
 * total energy  : -5104.0296298 Eh     change    :  -0.3022851E-02 Eh
   gradient norm :     0.0787781 Eh/a0  converged?    E=F G=F D=F
   time step     :     0.2500000 fs     power     :   0.1460550E-06
   step length   :     0.0609068 a0     speed     :   0.5893057E-02

........................................................................
.............................. CYCLE   24 ..............................
........................................................................

 iter      E             dE          RMSdq      gap      omega  full diag
   1  -5197.6979426 -0.519770E+04  0.518E-03    3.98       0.0  T
   2  -5197.6979451 -0.247956E-05  0.310E-03    3.98       1.0  T
   3  -5197.6979409  0.425953E-05  0.108E-03    3.98       1.5  T
   4  -5197.6979461 -0.522171E-05  0.198E-04    3.98       8.1  T
   5  -5197.6979462 -0.982673E-07  0.890E-05    3.98      18.1  T
   6  -5197.6979462 -0.295768E-08  0.482E-05    3.98      33.4  T
     SCC iter.                  ...       21 min,  4.063 sec
     gradient                   ...        4 min, 59.888 sec
 * total energy  : -5104.0327081 Eh     change    :  -0.3078268E-02 Eh
   gradient norm :     0.0758152 Eh/a0  converged?    E=F G=F D=F
   time step     :     0.2500000 fs     power     :   0.1505720E-06
   step length   :     0.0615843 a0     speed     :   0.5958615E-02

........................................................................
.............................. CYCLE   25 ..............................
........................................................................

 iter      E             dE          RMSdq      gap      omega  full diag
   1  -5197.6414260 -0.519764E+04  0.524E-03    3.98       0.0  T
   2  -5197.6414278 -0.182756E-05  0.313E-03    3.98       1.0  T
   3  -5197.6414238  0.402083E-05  0.103E-03    3.98       1.6  T
   4  -5197.6414287 -0.490899E-05  0.176E-04    3.98       9.1  T
   5  -5197.6414287 -0.693235E-07  0.938E-05    3.98      17.1  T
   6  -5197.6414288 -0.862565E-08  0.546E-05    3.98      29.5  T
     SCC iter.                  ...       21 min, 10.616 sec
     gradient                   ...        4 min, 58.823 sec
 * total energy  : -5104.0358324 Eh     change    :  -0.3124313E-02 Eh
   gradient norm :     0.0717672 Eh/a0  converged?    E=F G=F D=F
   time step     :     0.2500000 fs     power     :   0.1535323E-06
   step length   :     0.0624373 a0     speed     :   0.6041142E-02

........................................................................
.............................. CYCLE   26 ..............................
........................................................................

 iter      E             dE          RMSdq      gap      omega  full diag
   1  -5197.5926317 -0.519759E+04  0.582E-03    3.98       0.0  T
   2  -5197.5926335 -0.179391E-05  0.346E-03    3.98       1.0  T
   3  -5197.5926295  0.403461E-05  0.104E-03    3.98       1.5  T
   4  -5197.5926344 -0.494130E-05  0.188E-04    3.98       8.6  T
   5  -5197.5926345 -0.730879E-07  0.114E-04    3.98      14.1  T
   6  -5197.5926345 -0.197115E-07  0.728E-05    3.98      22.1  T
     SCC iter.                  ...       21 min,  5.627 sec
     gradient                   ...        5 min,  0.453 sec
 * total energy  : -5104.0392719 Eh     change    :  -0.3439575E-02 Eh
   gradient norm :     0.0670760 Eh/a0  converged?    E=F G=F D=F
   time step     :     0.2750000 fs     power     :   0.1523971E-06
   step length   :     0.0701284 a0     speed     :   0.6168454E-02

........................................................................
.............................. CYCLE   27 ..............................
........................................................................

 iter      E             dE          RMSdq      gap      omega  full diag
   1  -5197.5545359 -0.519755E+04  0.641E-03    3.98       0.0  T
   2  -5197.5545378 -0.186415E-05  0.380E-03    3.98       1.0  T
   3  -5197.5545345  0.329414E-05  0.962E-04    3.98       1.7  T
   4  -5197.5545386 -0.412132E-05  0.210E-04    3.98       7.6  T
   5  -5197.5545387 -0.887330E-07  0.137E-04    3.98      11.7  T
   6  -5197.5545387 -0.322498E-07  0.956E-05    3.98      16.8  T
     SCC iter.                  ...       21 min,  6.364 sec
     gradient                   ...        5 min,  0.997 sec
 * total energy  : -5104.0429607 Eh     change    :  -0.3688749E-02 Eh
   gradient norm :     0.0627193 Eh/a0  converged?    E=F G=F D=F
   time step     :     0.3025000 fs     power     :   0.1469425E-06
   step length   :     0.0791206 a0     speed     :   0.6326731E-02

........................................................................
.............................. CYCLE   28 ..............................
........................................................................

 iter      E             dE          RMSdq      gap      omega  full diag
   1  -5197.5299745 -0.519753E+04  0.693E-03    3.98       0.0  T
   2  -5197.5299764 -0.192141E-05  0.409E-03    3.98       1.0  T
   3  -5197.5299744  0.201804E-05  0.820E-04    3.98       2.0  T
   4  -5197.5299771 -0.272844E-05  0.235E-04    3.98       6.8  T
   5  -5197.5299772 -0.106907E-06  0.159E-04    3.98      10.1  T
   6  -5197.5299773 -0.457585E-07  0.112E-04    3.98      14.4  T
     SCC iter.                  ...       21 min, 10.080 sec
     gradient                   ...        5 min,  1.309 sec
 * total energy  : -5104.0468332 Eh     change    :  -0.3872459E-02 Eh
   gradient norm :     0.0592013 Eh/a0  converged?    E=F G=F D=F
   time step     :     0.3327500 fs     power     :   0.1386935E-06
   step length   :     0.0893477 a0     speed     :   0.6495017E-02

........................................................................
.............................. CYCLE   29 ..............................
........................................................................

 iter      E             dE          RMSdq      gap      omega  full diag
   1  -5197.5211956 -0.519752E+04  0.732E-03    3.97       0.0  T
   2  -5197.5211975 -0.197016E-05  0.432E-03    3.97       1.0  T
   3  -5197.5211961  0.147103E-05  0.788E-04    3.97       2.0  T
   4  -5197.5211983 -0.220954E-05  0.248E-04    3.97       6.5  T
   5  -5197.5211984 -0.980881E-07  0.174E-04    3.97       9.2  T
   6  -5197.5211984 -0.618511E-07  0.116E-04    3.97      13.8  T
     SCC iter.                  ...       21 min,  6.521 sec
     gradient                   ...        5 min,  1.441 sec
 * total energy  : -5104.0508493 Eh     change    :  -0.4016102E-02 Eh
   gradient norm :     0.0565067 Eh/a0  converged?    E=F G=F D=F
   time step     :     0.3660250 fs     power     :   0.1295002E-06
   step length   :     0.1007210 a0     speed     :   0.6656170E-02

........................................................................
.............................. CYCLE   30 ..............................
........................................................................

 iter      E             dE          RMSdq      gap      omega  full diag
   1  -5197.5295406 -0.519753E+04  0.754E-03    3.97       0.0  T
   2  -5197.5295427 -0.214807E-05  0.445E-03    3.97       1.0  T
   3  -5197.5295401  0.268535E-05  0.992E-04    3.97       1.6  T
   4  -5197.5295437 -0.367401E-05  0.246E-04    3.97       6.6  T
   5  -5197.5295438 -0.822756E-07  0.178E-04    3.97       9.0  T
   6  -5197.5295439 -0.651344E-07  0.115E-04    3.97      14.0  T
     SCC iter.                  ...       21 min,  5.621 sec
     gradient                   ...        5 min,  0.976 sec
 * total energy  : -5104.0550062 Eh     change    :  -0.4156949E-02 Eh
   gradient norm :     0.0550712 Eh/a0  converged?    E=F G=F D=F
   time step     :     0.4026275 fs     power     :   0.1210547E-06
   step length   :     0.1132148 a0     speed     :   0.6801661E-02

........................................................................
.............................. CYCLE   31 ..............................
........................................................................

 iter      E             dE          RMSdq      gap      omega  full diag
   1  -5197.5554102 -0.519756E+04  0.756E-03    3.97       0.0  T
   2  -5197.5554127 -0.243875E-05  0.449E-03    3.97       1.0  T
   3  -5197.5554085  0.415923E-05  0.116E-03    3.96       1.4  T
   4  -5197.5554139 -0.537005E-05  0.234E-04    3.96       6.9  T
   5  -5197.5554140 -0.756863E-07  0.165E-04    3.96       9.8  T
   6  -5197.5554140 -0.492691E-07  0.105E-04    3.96      15.3  T
     SCC iter.                  ...       21 min,  8.592 sec
     gradient                   ...        5 min,  1.799 sec
 * total energy  : -5104.0593824 Eh     change    :  -0.4376150E-02 Eh
   gradient norm :     0.0555514 Eh/a0  converged?    E=F G=F D=F
   time step     :     0.4428903 fs     power     :   0.1163569E-06
   step length   :     0.1268850 a0     speed     :   0.6929934E-02

........................................................................
.............................. CYCLE   32 ..............................
........................................................................

 iter      E             dE          RMSdq      gap      omega  full diag
   1  -5197.5987928 -0.519760E+04  0.754E-03    3.96       0.0  T
   2  -5197.5987953 -0.252019E-05  0.449E-03    3.96       1.0  T
   3  -5197.5987919  0.347039E-05  0.103E-03    3.96       1.6  T
   4  -5197.5987963 -0.442935E-05  0.216E-04    3.96       7.5  T
   5  -5197.5987964 -0.735417E-07  0.133E-04    3.96      12.1  T
   6  -5197.5987964 -0.248801E-07  0.846E-05    3.96      19.0  T
     SCC iter.                  ...       21 min, 11.857 sec
     gradient                   ...        5 min,  4.255 sec
 * total energy  : -5104.0642028 Eh     change    :  -0.4820473E-02 Eh
   gradient norm :     0.0559334 Eh/a0  converged?    E=F G=F D=F
   time step     :     0.4871793 fs     power     :   0.1185044E-06
   step length   :     0.1420869 a0     speed     :   0.7054727E-02

........................................................................
.............................. CYCLE   33 ..............................
........................................................................

 iter      E             dE          RMSdq      gap      omega  full diag
   1  -5197.6607174 -0.519766E+04  0.779E-03    3.96       0.0  T
   2  -5197.6607201 -0.275602E-05  0.465E-03    3.96       1.0  T
   3  -5197.6607183  0.176032E-05  0.770E-04    3.96       2.1  T
   4  -5197.6607207 -0.232026E-05  0.225E-04    3.96       7.2  T
   5  -5197.6607208 -0.114200E-06  0.106E-04    3.96      15.2  T
   6  -5197.6607208 -0.842465E-08  0.537E-05    3.96      30.0  T
     SCC iter.                  ...       21 min,  6.687 sec
     gradient                   ...        5 min,  9.039 sec
 * total energy  : -5104.0696883 Eh     change    :  -0.5485515E-02 Eh
   gradient norm :     0.0518316 Eh/a0  converged?    E=F G=F D=F
   time step     :     0.5358972 fs     power     :   0.1230827E-06
   step length   :     0.1598820 a0     speed     :   0.7216611E-02

........................................................................
.............................. CYCLE   34 ..............................
........................................................................

 iter      E             dE          RMSdq      gap      omega  full diag
   1  -5197.7450205 -0.519775E+04  0.857E-03    3.96       0.0  T
   2  -5197.7450247 -0.422596E-05  0.513E-03    3.96       1.0  T
   3  -5197.7450173  0.734915E-05  0.139E-03    3.96       1.2  T
   4  -5197.7450261 -0.878499E-05  0.258E-04    3.96       6.2  T
   5  -5197.7450263 -0.181863E-06  0.117E-04    3.96      13.8  T
   6  -5197.7450263 -0.793443E-08  0.558E-05    3.96      28.8  T
     SCC iter.                  ...       21 min,  7.485 sec
     gradient                   ...        5 min,  9.895 sec
 * total energy  : -5104.0756196 Eh     change    :  -0.5931308E-02 Eh
   gradient norm :     0.0435986 Eh/a0  converged?    E=F G=F D=F
   time step     :     0.5894869 fs     power     :   0.1166321E-06
   step length   :     0.1814505 a0     speed     :   0.7445591E-02

........................................................................
.............................. CYCLE   35 ..............................
........................................................................

 iter      E             dE          RMSdq      gap      omega  full diag
   1  -5197.8587014 -0.519786E+04  0.943E-03    3.97       0.0  T
   2  -5197.8587076 -0.621493E-05  0.571E-03    3.97       1.0  T
   3  -5197.8586889  0.186201E-04  0.215E-03    3.97       1.0  T
   4  -5197.8587115 -0.225668E-04  0.291E-04    3.97       5.5  T
   5  -5197.8587117 -0.196185E-06  0.140E-04    3.97      11.5  T
   6  -5197.8587117 -0.997716E-08  0.666E-05    3.97      24.2  T
     SCC iter.                  ...       21 min,  4.612 sec
     gradient                   ...        4 min, 59.408 sec
 * total energy  : -5104.0813428 Eh     change    :  -0.5723126E-02 Eh
   gradient norm :     0.0412950 Eh/a0  converged?    E=F G=F D=F
   time step     :     0.6484356 fs     power     :   0.9661664E-07
   step length   :     0.2063049 a0     speed     :   0.7695870E-02

........................................................................
.............................. CYCLE   36 ..............................
........................................................................

 iter      E             dE          RMSdq      gap      omega  full diag
   1  -5198.0040278 -0.519800E+04  0.978E-03    3.97       0.0  T
   2  -5198.0040344 -0.664748E-05  0.596E-03    3.97       1.0  T
   3  -5198.0040105  0.239177E-04  0.239E-03    3.97       1.0  T
   4  -5198.0040394 -0.289444E-04  0.282E-04    3.97       5.7  T
   5  -5198.0040396 -0.148686E-06  0.141E-04    3.97      11.4  T
   6  -5198.0040396 -0.943965E-08  0.666E-05    3.97      24.2  T
     SCC iter.                  ...       21 min,  6.825 sec
     gradient                   ...        5 min,  0.277 sec
 * total energy  : -5104.0867733 Eh     change    :  -0.5430522E-02 Eh
   gradient norm :     0.0427263 Eh/a0  converged?    E=F G=F D=F
   time step     :     0.7132792 fs     power     :   0.8325015E-07
   step length   :     0.2311398 a0     speed     :   0.7838452E-02

........................................................................
.............................. CYCLE   37 ..............................
........................................................................

 iter      E             dE          RMSdq      gap      omega  full diag
   1  -5198.1673931 -0.519817E+04  0.102E-02    3.96       0.0  T
   2  -5198.1674017 -0.865275E-05  0.608E-03    3.96       1.0  T
   3  -5198.1673852  0.165151E-04  0.225E-03    3.96       1.0  T
   4  -5198.1674054 -0.201744E-04  0.345E-04    3.96       4.7  T
   5  -5198.1674057 -0.302961E-06  0.148E-04    3.96      10.9  T
   6  -5198.1674057 -0.881755E-08  0.814E-05    3.96      19.8  T
     SCC iter.                  ...       21 min,  4.990 sec
     gradient                   ...        4 min, 59.770 sec
 * total energy  : -5104.0922372 Eh     change    :  -0.5463949E-02 Eh
   gradient norm :     0.0395073 Eh/a0  converged?    E=F G=F D=F
   time step     :     0.7846071 fs     power     :   0.7468427E-07
   step length   :     0.2564874 a0     speed     :   0.7907312E-02

........................................................................
.............................. CYCLE   38 ..............................
........................................................................

 iter      E             dE          RMSdq      gap      omega  full diag
   1  -5198.3124566 -0.519831E+04  0.105E-02    3.96       0.0  T
   2  -5198.3124658 -0.911949E-05  0.615E-03    3.96       1.0  T
   3  -5198.3124572  0.853952E-05  0.186E-03    3.96       1.0  T
   4  -5198.3124679 -0.106603E-04  0.348E-04    3.96       4.6  T
   5  -5198.3124682 -0.280568E-06  0.151E-04    3.96      10.7  T
   6  -5198.3124682 -0.100426E-07  0.844E-05    3.96      19.1  T
     SCC iter.                  ...       21 min,  8.950 sec
     gradient                   ...        4 min, 59.361 sec
 * total energy  : -5104.0976125 Eh     change    :  -0.5375232E-02 Eh
   gradient norm :     0.0421995 Eh/a0  converged?    E=F G=F D=F
   time step     :     0.8630678 fs     power     :   0.6517703E-07
   step length   :     0.2840241 a0     speed     :   0.7960226E-02

........................................................................
.............................. CYCLE   39 ..............................
........................................................................

 iter      E             dE          RMSdq      gap      omega  full diag
   1  -5198.3887996 -0.519839E+04  0.105E-02    3.96       0.0  T
   2  -5198.3888041 -0.443409E-05  0.618E-03    3.96       1.0  T
   3  -5198.3887982  0.584912E-05  0.136E-03    3.96       1.2  T
   4  -5198.3888055 -0.725808E-05  0.259E-04    3.96       6.2  T
   5  -5198.3888056 -0.120667E-06  0.134E-04    3.96      12.0  T
   6  -5198.3888056 -0.835735E-08  0.575E-05    3.96      28.0  T
     SCC iter.                  ...       21 min,  3.700 sec
     gradient                   ...        4 min, 59.928 sec
 * total energy  : -5104.1035465 Eh     change    :  -0.5933981E-02 Eh
   gradient norm :     0.0417398 Eh/a0  converged?    E=F G=F D=F
   time step     :     0.9493746 fs     power     :   0.6918426E-07
   step length   :     0.3129323 a0     speed     :   0.7973113E-02

........................................................................
.............................. CYCLE   40 ..............................
........................................................................

 iter      E             dE          RMSdq      gap      omega  full diag
   1  -5198.3633005 -0.519836E+04  0.109E-02    3.96       0.0  T
   2  -5198.3633089 -0.842883E-05  0.656E-03    3.96       1.0  T
   3  -5198.3632947  0.141800E-04  0.196E-03    3.96       1.0  T
   4  -5198.3633121 -0.174045E-04  0.359E-04    3.96       4.5  T
   5  -5198.3633124 -0.270234E-06  0.217E-04    3.96       7.4  T
   6  -5198.3633125 -0.434629E-07  0.139E-04    3.96      11.6  T
     SCC iter.                  ...       21 min,  3.976 sec
     gradient                   ...        5 min,  1.326 sec
 * total energy  : -5104.1102856 Eh     change    :  -0.6739131E-02 Eh
   gradient norm :     0.0386959 Eh/a0  converged?    E=F G=F D=F
   time step     :     1.0443120 fs     power     :   0.6954103E-07
   step length   :     0.3483644 a0     speed     :   0.8068979E-02

........................................................................
.............................. CYCLE   41 ..............................
........................................................................

 iter      E             dE          RMSdq      gap      omega  full diag
   1  -5198.2580485 -0.519826E+04  0.121E-02    3.96       0.0  T
   2  -5198.2580650 -0.164845E-04  0.729E-03    3.96       1.0  T
   3  -5198.2580507  0.142677E-04  0.220E-03    3.96       1.0  T
   4  -5198.2580685 -0.178224E-04  0.527E-04    3.96       3.1  T
   5  -5198.2580693 -0.804815E-06  0.254E-04    3.96       6.3  T
   6  -5198.2580694 -0.536647E-07  0.163E-04    3.96       9.9  T
     SCC iter.                  ...       21 min, 10.829 sec
     gradient                   ...        5 min,  1.290 sec
 * total energy  : -5104.1172704 Eh     change    :  -0.6984764E-02 Eh
   gradient norm :     0.0357976 Eh/a0  converged?    E=F G=F D=F
   time step     :     1.1487432 fs     power     :   0.6157146E-07
   step length   :     0.3901192 a0     speed     :   0.8214657E-02

........................................................................
.............................. CYCLE   42 ..............................
........................................................................

 iter      E             dE          RMSdq      gap      omega  full diag
   1  -5198.1521729 -0.519815E+04  0.132E-02    3.95       0.0  T
   2  -5198.1521819 -0.892012E-05  0.790E-03    3.95       1.0  T
   3  -5198.1521649  0.169986E-04  0.247E-03    3.95       1.0  T
   4  -5198.1521858 -0.208891E-04  0.370E-04    3.96       4.3  T
   5  -5198.1521859 -0.192531E-06  0.198E-04    3.96       8.1  T
   6  -5198.1521860 -0.235023E-07  0.949E-05    3.96      17.0  T
     SCC iter.                  ...       21 min,  3.468 sec
     gradient                   ...        5 min,  0.358 sec
 * total energy  : -5104.1240851 Eh     change    :  -0.6814779E-02 Eh
   gradient norm :     0.0368347 Eh/a0  converged?    E=F G=F D=F
   time step     :     1.2500000 fs     power     :   0.5464291E-07
   step length   :     0.4300405 a0     speed     :   0.8321747E-02
 * RMSD in coord.:     0.0552832 a0     energy gain  -0.1037178E+00 Eh

........................................................................
.............................. CYCLE   43 ..............................
........................................................................

 iter      E             dE          RMSdq      gap      omega  full diag
   1  -5198.1395701 -0.519814E+04  0.226E-03    3.96       0.0  T
   2  -5198.1395704 -0.314946E-06  0.137E-03    3.96       1.2  T
   3  -5198.1395692  0.116807E-05  0.548E-04    3.96       2.9  T
   4  -5198.1395707 -0.141681E-05  0.705E-05    3.96      22.8  T
   5  -5198.1395707 -0.939599E-08  0.422E-05    3.96      38.1  T
   6  -5198.1395707 -0.255932E-08  0.251E-05    3.96      64.0  T
     SCC iter.                  ...       21 min,  7.993 sec
     gradient                   ...        5 min,  3.948 sec
 * total energy  : -5104.1253647 Eh     change    :  -0.1279603E-02 Eh
   gradient norm :     0.0360529 Eh/a0  converged?    E=F G=F D=F
   time step     :     0.2500000 fs     power     :   0.6557345E-07
   step length   :     0.0815409 a0     speed     :   0.7889525E-02

........................................................................
.............................. CYCLE   44 ..............................
........................................................................

 iter      E             dE          RMSdq      gap      omega  full diag
   1  -5198.1356186 -0.519814E+04  0.225E-03    3.96       0.0  T
   2  -5198.1356192 -0.586308E-06  0.140E-03    3.96       1.1  T
   3  -5198.1356177  0.143576E-05  0.641E-04    3.96       2.5  T
   4  -5198.1356197 -0.190571E-05  0.798E-05    3.96      20.2  T
   5  -5198.1356197 -0.171358E-07  0.366E-05    3.96      44.0  T
   6  -5198.1356197 -0.872205E-09  0.201E-05    3.96      79.9  T
     SCC iter.                  ...       21 min,  3.022 sec
     gradient                   ...        5 min,  5.909 sec
 * total energy  : -5104.1267884 Eh     change    :  -0.1423644E-02 Eh
   gradient norm :     0.0324897 Eh/a0  converged?    E=F G=F D=F
   time step     :     0.2500000 fs     power     :   0.7241749E-07
   step length   :     0.0782579 a0     speed     :   0.7571868E-02

........................................................................
.............................. CYCLE   45 ..............................
........................................................................

 iter      E             dE          RMSdq      gap      omega  full diag
   1  -5198.1403864 -0.519814E+04  0.244E-03    3.96       0.0  T
   2  -5198.1403873 -0.904789E-06  0.155E-03    3.96       1.0  T
   3  -5198.1403857  0.161871E-05  0.730E-04    3.96       2.2  T
   4  -5198.1403880 -0.231801E-05  0.956E-05    3.96      16.8  T
   5  -5198.1403880 -0.249493E-07  0.421E-05    3.96      38.2  T
   6  -5198.1403880 -0.141063E-08  0.230E-05    3.96      69.9  T
     SCC iter.                  ...       21 min,  4.091 sec
     gradient                   ...        5 min,  0.588 sec
 * total energy  : -5104.1282461 Eh     change    :  -0.1457736E-02 Eh
   gradient norm :     0.0283941 Eh/a0  converged?    E=F G=F D=F
   time step     :     0.2500000 fs     power     :   0.7278304E-07
   step length   :     0.0760972 a0     speed     :   0.7362817E-02

........................................................................
.............................. CYCLE   46 ..............................
........................................................................

 iter      E             dE          RMSdq      gap      omega  full diag
   1  -5198.1539692 -0.519815E+04  0.263E-03    3.96       0.0  T
   2  -5198.1539702 -0.963256E-06  0.165E-03    3.96       1.0  T
   3  -5198.1539682  0.195065E-05  0.772E-04    3.96       2.1  T
   4  -5198.1539709 -0.267862E-05  0.993E-05    3.96      16.2  T
   5  -5198.1539709 -0.246491E-07  0.467E-05    3.96      34.5  T
   6  -5198.1539709 -0.152886E-08  0.251E-05    3.96      64.0  T
     SCC iter.                  ...       21 min,  1.716 sec
     gradient                   ...        5 min,  6.815 sec
 * total energy  : -5104.1296440 Eh     change    :  -0.1397855E-02 Eh
   gradient norm :     0.0262627 Eh/a0  converged?    E=F G=F D=F
   time step     :     0.2500000 fs     power     :   0.6890559E-07
   step length   :     0.0747173 a0     speed     :   0.7229300E-02

........................................................................
.............................. CYCLE   47 ..............................
........................................................................

 iter      E             dE          RMSdq      gap      omega  full diag
   1  -5198.1757482 -0.519818E+04  0.268E-03    3.96       0.0  T
   2  -5198.1757489 -0.701848E-06  0.165E-03    3.96       1.0  T
   3  -5198.1757470  0.194735E-05  0.711E-04    3.96       2.3  T
   4  -5198.1757494 -0.245134E-05  0.901E-05    3.96      17.9  T
   5  -5198.1757495 -0.176105E-07  0.458E-05    3.96      35.1  T
   6  -5198.1757495 -0.129330E-08  0.239E-05    3.96      67.2  T
     SCC iter.                  ...       21 min,  2.856 sec
     gradient                   ...        5 min,  4.677 sec
 * total energy  : -5104.1309615 Eh     change    :  -0.1317561E-02 Eh
   gradient norm :     0.0264078 Eh/a0  converged?    E=F G=F D=F
   time step     :     0.2500000 fs     power     :   0.6527028E-07
   step length   :     0.0735180 a0     speed     :   0.7113261E-02

........................................................................
.............................. CYCLE   48 ..............................
........................................................................

 iter      E             dE          RMSdq      gap      omega  full diag
   1  -5198.2070257 -0.519821E+04  0.288E-03    3.96       0.0  T
   2  -5198.2070262 -0.459041E-06  0.172E-03    3.96       1.0  T
   3  -5198.2070248  0.137088E-05  0.585E-04    3.96       2.7  T
   4  -5198.2070265 -0.164187E-05  0.839E-05    3.96      19.2  T
   5  -5198.2070265 -0.136342E-07  0.444E-05    3.96      36.2  T
   6  -5198.2070265 -0.904947E-09  0.209E-05    3.96      77.1  T
     SCC iter.                  ...       21 min,  4.699 sec
     gradient                   ...        5 min,  1.182 sec
 * total energy  : -5104.1323622 Eh     change    :  -0.1400675E-02 Eh
   gradient norm :     0.0270611 Eh/a0  converged?    E=F G=F D=F
   time step     :     0.2750000 fs     power     :   0.6373775E-07
   step length   :     0.0794657 a0     speed     :   0.6989755E-02

........................................................................
.............................. CYCLE   49 ..............................
........................................................................

 iter      E             dE          RMSdq      gap      omega  full diag
   1  -5198.2468315 -0.519825E+04  0.303E-03    3.96       0.0  T
   2  -5198.2468318 -0.324010E-06  0.179E-03    3.96       1.0  T
   3  -5198.2468313  0.522965E-06  0.430E-04    3.96       3.7  T
   4  -5198.2468320 -0.657419E-06  0.748E-05    3.96      21.5  T
     SCC iter.                  ...       14 min,  7.354 sec
     gradient                   ...        5 min,  2.001 sec
 * total energy  : -5104.1338928 Eh     change    :  -0.1530573E-02 Eh
   gradient norm :     0.0266920 Eh/a0  converged?    E=F G=F D=F
   time step     :     0.3025000 fs     power     :   0.6379758E-07
   step length   :     0.0859377 a0     speed     :   0.6871849E-02

........................................................................
.............................. CYCLE   50 ..............................
........................................................................

 iter      E             dE          RMSdq      gap      omega  full diag
   1  -5198.2932985 -0.519829E+04  0.320E-03    3.96       0.0  T
   2  -5198.2932989 -0.393156E-06  0.190E-03    3.96       1.0  T
   3  -5198.2932980  0.869771E-06  0.514E-04    3.96       3.1  T
   4  -5198.2932991 -0.106963E-05  0.736E-05    3.96      21.9  T
   5  -5198.2932991 -0.530144E-08  0.420E-05    3.96      38.3  T
     SCC iter.                  ...       17 min, 38.985 sec
     gradient                   ...        4 min, 59.490 sec
 * total energy  : -5104.1355692 Eh     change    :  -0.1676404E-02 Eh
   gradient norm :     0.0250176 Eh/a0  converged?    E=F G=F D=F
   time step     :     0.3327500 fs     power     :   0.6333208E-07
   step length   :     0.0933627 a0     speed     :   0.6786888E-02

........................................................................
.............................. CYCLE   51 ..............................
........................................................................

 iter      E             dE          RMSdq      gap      omega  full diag
   1  -5198.3431466 -0.519834E+04  0.340E-03    3.96       0.0  T
   2  -5198.3431472 -0.574249E-06  0.204E-03    3.96       1.0  T
   3  -5198.3431456  0.158139E-05  0.629E-04    3.96       2.6  T
   4  -5198.3431475 -0.190722E-05  0.869E-05    3.96      18.5  T
   5  -5198.3431475 -0.109676E-07  0.476E-05    3.96      33.8  T
   6  -5198.3431475 -0.126875E-08  0.208E-05    3.96      77.5  T
     SCC iter.                  ...       21 min,  6.116 sec
     gradient                   ...        4 min, 59.103 sec
 * total energy  : -5104.1373602 Eh     change    :  -0.1791056E-02 Eh
   gradient norm :     0.0228544 Eh/a0  converged?    E=F G=F D=F
   time step     :     0.3660250 fs     power     :   0.6075406E-07
   step length   :     0.1020997 a0     speed     :   0.6747282E-02

........................................................................
.............................. CYCLE   52 ..............................
........................................................................

 iter      E             dE          RMSdq      gap      omega  full diag
   1  -5198.3909650 -0.519839E+04  0.361E-03    3.96       0.0  T
   2  -5198.3909656 -0.665645E-06  0.216E-03    3.96       1.0  T
   3  -5198.3909643  0.133623E-05  0.600E-04    3.96       2.7  T
   4  -5198.3909659 -0.163086E-05  0.102E-04    3.96      15.7  T
   5  -5198.3909659 -0.190985E-07  0.537E-05    3.96      30.0  T
   6  -5198.3909659 -0.920409E-09  0.228E-05    3.96      70.6  T
     SCC iter.                  ...       21 min,  4.352 sec
     gradient                   ...        5 min,  3.064 sec
 * total energy  : -5104.1392112 Eh     change    :  -0.1850932E-02 Eh
   gradient norm :     0.0216333 Eh/a0  converged?    E=F G=F D=F
   time step     :     0.4026275 fs     power     :   0.5632543E-07
   step length   :     0.1122038 a0     speed     :   0.6740923E-02

........................................................................
.............................. CYCLE   53 ..............................
........................................................................

 iter      E             dE          RMSdq      gap      omega  full diag
   1  -5198.4295151 -0.519843E+04  0.378E-03    3.96       0.0  T
   2  -5198.4295159 -0.740981E-06  0.224E-03    3.96       1.0  T
   3  -5198.4295147  0.112439E-05  0.609E-04    3.96       2.6  T
   4  -5198.4295162 -0.141491E-05  0.106E-04    3.96      15.1  T
   5  -5198.4295162 -0.193659E-07  0.607E-05    3.96      26.5  T
   6  -5198.4295162 -0.233831E-08  0.278E-05    3.96      57.8  T
     SCC iter.                  ...       21 min,  7.776 sec
     gradient                   ...        5 min,  1.369 sec
 * total energy  : -5104.1411075 Eh     change    :  -0.1896288E-02 Eh
   gradient norm :     0.0223426 Eh/a0  converged?    E=F G=F D=F
   time step     :     0.4428903 fs     power     :   0.5245291E-07
   step length   :     0.1232584 a0     speed     :   0.6731865E-02

........................................................................
.............................. CYCLE   54 ..............................
........................................................................

 iter      E             dE          RMSdq      gap      omega  full diag
   1  -5198.4526037 -0.519845E+04  0.392E-03    3.96       0.0  T
   2  -5198.4526047 -0.945576E-06  0.234E-03    3.96       1.0  T
   3  -5198.4526016  0.305000E-05  0.888E-04    3.96       1.8  T
   4  -5198.4526053 -0.370632E-05  0.113E-04    3.96      14.2  T
   5  -5198.4526053 -0.224518E-07  0.681E-05    3.96      23.6  T
   6  -5198.4526053 -0.387990E-08  0.361E-05    3.96      44.5  T
     SCC iter.                  ...       21 min,  8.630 sec
     gradient                   ...        5 min,  1.020 sec
 * total energy  : -5104.1431249 Eh     change    :  -0.2017436E-02 Eh
   gradient norm :     0.0232503 Eh/a0  converged?    E=F G=F D=F
   time step     :     0.4871793 fs     power     :   0.5158403E-07
   step length   :     0.1347919 a0     speed     :   0.6692527E-02

........................................................................
.............................. CYCLE   55 ..............................
........................................................................

 iter      E             dE          RMSdq      gap      omega  full diag
   1  -5198.4573271 -0.519846E+04  0.419E-03    3.96       0.0  T
   2  -5198.4573282 -0.117278E-05  0.251E-03    3.96       1.0  T
   3  -5198.4573238  0.444690E-05  0.106E-03    3.96       1.5  T
   4  -5198.4573292 -0.540088E-05  0.113E-04    3.96      14.2  T
   5  -5198.4573292 -0.184755E-07  0.681E-05    3.96      23.6  T
   6  -5198.4573292 -0.327873E-08  0.363E-05    3.96      44.3  T
     SCC iter.                  ...       21 min,  5.032 sec
     gradient                   ...        5 min,  4.397 sec
 * total energy  : -5104.1453535 Eh     change    :  -0.2228627E-02 Eh
   gradient norm :     0.0216831 Eh/a0  converged?    E=F G=F D=F
   time step     :     0.5358972 fs     power     :   0.5200795E-07
   step length   :     0.1474564 a0     speed     :   0.6655752E-02

........................................................................
.............................. CYCLE   56 ..............................
........................................................................

 iter      E             dE          RMSdq      gap      omega  full diag
   1  -5198.4438772 -0.519844E+04  0.456E-03    3.96       0.0  T
   2  -5198.4438785 -0.126697E-05  0.272E-03    3.96       1.0  T
   3  -5198.4438750  0.345838E-05  0.997E-04    3.96       1.6  T
   4  -5198.4438792 -0.416058E-05  0.126E-04    3.96      12.8  T
   5  -5198.4438792 -0.294058E-07  0.660E-05    3.96      24.4  T
   6  -5198.4438792 -0.186537E-08  0.303E-05    3.96      53.1  T
     SCC iter.                  ...       21 min,  7.693 sec
     gradient                   ...        5 min, 10.690 sec
 * total energy  : -5104.1477402 Eh     change    :  -0.2386710E-02 Eh
   gradient norm :     0.0191182 Eh/a0  converged?    E=F G=F D=F
   time step     :     0.5894869 fs     power     :   0.4948555E-07
   step length   :     0.1625588 a0     speed     :   0.6670392E-02

........................................................................
.............................. CYCLE   57 ..............................
........................................................................

 iter      E             dE          RMSdq      gap      omega  full diag
   1  -5198.4163761 -0.519842E+04  0.493E-03    3.96       0.0  T
   2  -5198.4163771 -0.107035E-05  0.293E-03    3.96       1.0  T
   3  -5198.4163753  0.184580E-05  0.792E-04    3.96       2.0  T
   4  -5198.4163776 -0.227480E-05  0.120E-04    3.96      13.4  T
   5  -5198.4163776 -0.170858E-07  0.675E-05    3.96      23.8  T
   6  -5198.4163776 -0.229920E-08  0.324E-05    3.96      49.6  T
     SCC iter.                  ...       21 min, 10.049 sec
     gradient                   ...        5 min,  2.895 sec
 * total energy  : -5104.1501695 Eh     change    :  -0.2429284E-02 Eh
   gradient norm :     0.0191662 Eh/a0  converged?    E=F G=F D=F
[...]
  3617   6 C     3618   6 C                                       1.3901528
  3618   6 C     3619   6 C                                       1.3828924
  3619   6 C     3620   6 C                                       1.3847965
  3620   6 C     3621   6 C                                       1.3840514
  3617   6 C     3622   6 C                                       1.3890892
  3621   6 C     3622   6 C                                       1.3835790
  3616   6 C     3623   6 C                                       1.5378409
  3623   6 C     3624   6 C                                       1.5351991
  3625   6 C     3626   6 C                                       1.3904586
  3626   6 C     3627   6 C                                       1.3832769
  3627   6 C     3628   6 C                                       1.3845926
  3628   6 C     3629   6 C                                       1.3825890
  3625   6 C     3630   6 C                                       1.3893830
  3629   6 C     3630   6 C                                       1.3842008
  3624   6 C     3631   6 C                                       1.5362560
  3633   6 C     3634   6 C                                       1.3894294
  3634   6 C     3635   6 C                                       1.3835648
  3635   6 C     3636   6 C                                       1.3833324
  3636   6 C     3637   6 C                                       1.3842400
  3633   6 C     3638   6 C                                       1.3903187
  3637   6 C     3638   6 C                                       1.3821226
  3632   6 C     3639   6 C                                       1.5383200
  3639   6 C     3640   6 C                                       1.5341784
  3641   6 C     3642   6 C                                       1.3907690
  3642   6 C     3643   6 C                                       1.3828940
  3643   6 C     3644   6 C                                       1.3843157
  3644   6 C     3645   6 C                                       1.3829055
  3641   6 C     3646   6 C                                       1.3891153
  3645   6 C     3646   6 C                                       1.3839319
  3640   6 C     3647   6 C                                       1.5377457
  3647   6 C     3648   6 C                                       1.5337818
  3649   6 C     3650   6 C                                       1.3884021
  3650   6 C     3651   6 C                                       1.3842294
  3651   6 C     3652   6 C                                       1.3834437
  3652   6 C     3653   6 C                                       1.3843826
  3649   6 C     3654   6 C                                       1.3909069
  3653   6 C     3654   6 C                                       1.3824143
  3648   6 C     3655   6 C                                       1.5385894
  3655   6 C     3656   6 C                                       1.5356076
  3657   6 C     3658   6 C                                       1.3905215
  3658   6 C     3659   6 C                                       1.3833050
  3659   6 C     3660   6 C                                       1.3838055
  3660   6 C     3661   6 C                                       1.3835554
  3657   6 C     3662   6 C                                       1.3897114
  3661   6 C     3662   6 C                                       1.3839252
  3656   6 C     3663   6 C                                       1.5376224
  3663   6 C     3664   6 C                                       1.5328364
  3665   6 C     3666   6 C                                       1.3903801
  3666   6 C     3667   6 C                                       1.3832045
  3667   6 C     3668   6 C                                       1.3837038
  3668   6 C     3669   6 C                                       1.3841285
  3665   6 C     3670   6 C                                       1.3890464
  3669   6 C     3670   6 C                                       1.3824845
  3664   6 C     3671   6 C                                       1.5390018
  3671   6 C     3672   6 C                                       1.5367461
  3673   6 C     3674   6 C                                       1.3897156
  3674   6 C     3675   6 C                                       1.3842546
  3675   6 C     3676   6 C                                       1.3838664
  3676   6 C     3677   6 C                                       1.3843504
  3673   6 C     3678   6 C                                       1.3902960
  3677   6 C     3678   6 C                                       1.3824499
  3672   6 C     3679   6 C                                       1.5328798
  3679   6 C     3680   6 C                                       1.5348506
  3681   6 C     3682   6 C                                       1.3912905
  3682   6 C     3683   6 C                                       1.3831416
  3683   6 C     3684   6 C                                       1.3847075
  3684   6 C     3685   6 C                                       1.3843076
  3681   6 C     3686   6 C                                       1.3891291
  3685   6 C     3686   6 C                                       1.3843953
  3680   6 C     3687   6 C                                       1.5339254
  3687   6 C     3688   6 C                                       1.5335523
  3549   6 C     3689   1 H                                       1.0963313
  3551   6 C     3690   1 H                                       1.0926867
  3551   6 C     3691   1 H                                       1.0910905
  3552   6 C     3692   1 H                                       1.0953206
  3559   6 C     3693   1 H                                       1.0933270
  3559   6 C     3694   1 H                                       1.0933004
  3560   6 C     3695   1 H                                       1.0936081
  3567   6 C     3696   1 H                                       1.0915290
  3567   6 C     3697   1 H                                       1.0917349
  3568   6 C     3698   1 H                                       1.0946779
  3575   6 C     3699   1 H                                       1.0899053
  3576   6 C     3700   1 H                                       1.0953567
  3583   6 C     3701   1 H                                       1.0904006
  3583   6 C     3702   1 H                                       1.0904764
  3584   6 C     3703   1 H                                       1.0943179
  3591   6 C     3704   1 H                                       1.0932173
  3591   6 C     3705   1 H                                       1.0930843
  3592   6 C     3706   1 H                                       1.0930951
  3599   6 C     3707   1 H                                       1.0903511
  3599   6 C     3708   1 H                                       1.0908084
  3600   6 C     3709   1 H                                       1.0939201
  3608   6 C     3710   1 H                                       1.0959078
  3615   6 C     3711   1 H                                       1.0911056
  3615   6 C     3712   1 H                                       1.0892139
  3616   6 C     3713   1 H                                       1.0952520
  3623   6 C     3714   1 H                                       1.0927110
  3623   6 C     3715   1 H                                       1.0900517
  3624   6 C     3716   1 H                                       1.0950047
  3631   6 C     3717   1 H                                       1.0930867
  3631   6 C     3718   1 H                                       1.0905582
  3632   6 C     3719   1 H                                       1.0955197
  3639   6 C     3720   1 H                                       1.0909464
  3639   6 C     3721   1 H                                       1.0903244
  3640   6 C     3722   1 H                                       1.0949115
  3647   6 C     3723   1 H                                       1.0904029
  3647   6 C     3724   1 H                                       1.0907403
  3648   6 C     3725   1 H                                       1.0960116
  3655   6 C     3726   1 H                                       1.0923612
  3655   6 C     3727   1 H                                       1.0937152
  3656   6 C     3728   1 H                                       1.0928714
  3663   6 C     3729   1 H                                       1.0920006
  3663   6 C     3730   1 H                                       1.0915562
  3664   6 C     3731   1 H                                       1.0948058
  3671   6 C     3732   1 H                                       1.0937638
  3671   6 C     3733   1 H                                       1.0927528
  3672   6 C     3734   1 H                                       1.0945796
  3679   6 C     3735   1 H                                       1.0899751
  3679   6 C     3736   1 H                                       1.0898709
  3543   6 C     3737   1 H                                       1.0796990
  3548   6 C     3738   1 H                                       1.0819420
  3547   6 C     3739   1 H                                       1.0814493
  3546   6 C     3740   1 H                                       1.0813778
  3545   6 C     3741   1 H                                       1.0818617
  3554   6 C     3742   1 H                                       1.0815883
  3555   6 C     3743   1 H                                       1.0790814
  3556   6 C     3744   1 H                                       1.0805599
  3557   6 C     3745   1 H                                       1.0799905
  3558   6 C     3746   1 H                                       1.0796605
  3562   6 C     3747   1 H                                       1.0826499
  3563   6 C     3748   1 H                                       1.0816582
  3564   6 C     3749   1 H                                       1.0808964
  3565   6 C     3750   1 H                                       1.0816315
  3566   6 C     3751   1 H                                       1.0794053
  3570   6 C     3752   1 H                                       1.0805130
  3571   6 C     3753   1 H                                       1.0815149
  3572   6 C     3754   1 H                                       1.0810557
  3573   6 C     3755   1 H                                       1.0809985
  3574   6 C     3756   1 H                                       1.0816433
  3575   6 C     3757   1 H                                       1.0907287
  3578   6 C     3758   1 H                                       1.0803125
  3579   6 C     3759   1 H                                       1.0811958
  3580   6 C     3760   1 H                                       1.0808106
  3581   6 C     3761   1 H                                       1.0813845
  3582   6 C     3762   1 H                                       1.0807120
  3586   6 C     3763   1 H                                       1.0796514
  3587   6 C     3764   1 H                                       1.0793919
  3588   6 C     3765   1 H                                       1.0806281
  3589   6 C     3766   1 H                                       1.0814155
  3590   6 C     3767   1 H                                       1.0821767
  3594   6 C     3768   1 H                                       1.0798947
  3595   6 C     3769   1 H                                       1.0810893
  3596   6 C     3770   1 H                                       1.0804054
  3597   6 C     3771   1 H                                       1.0800260
  3598   6 C     3772   1 H                                       1.0808943
  3602   6 C     3773   1 H                                       1.0814603
  3603   6 C     3774   1 H                                       1.0807590
  3604   6 C     3775   1 H                                       1.0803445
  3605   6 C     3776   1 H                                       1.0807974
  3606   6 C     3777   1 H                                       1.0805365
  3607   6 C     3778   1 H                                       1.0904794
  3607   6 C     3779   1 H                                       1.0926395
  3610   6 C     3780   1 H                                       1.0818045
  3611   6 C     3781   1 H                                       1.0812487
  3612   6 C     3782   1 H                                       1.0807533
  3613   6 C     3783   1 H                                       1.0803222
  3614   6 C     3784   1 H                                       1.0783724
  3618   6 C     3785   1 H                                       1.0805234
  3619   6 C     3786   1 H                                       1.0810849
  3620   6 C     3787   1 H                                       1.0806022
  3621   6 C     3788   1 H                                       1.0809229
  3622   6 C     3789   1 H                                       1.0814580
  3626   6 C     3790   1 H                                       1.0806917
  3627   6 C     3791   1 H                                       1.0809482
  3628   6 C     3792   1 H                                       1.0801842
  3629   6 C     3793   1 H                                       1.0811967
  3630   6 C     3794   1 H                                       1.0813033
  3634   6 C     3795   1 H                                       1.0817355
  3635   6 C     3796   1 H                                       1.0813322
  3636   6 C     3797   1 H                                       1.0809129
  3637   6 C     3798   1 H                                       1.0814766
  3638   6 C     3799   1 H                                       1.0790814
  3642   6 C     3800   1 H                                       1.0802854
  3643   6 C     3801   1 H                                       1.0813643
  3644   6 C     3802   1 H                                       1.0805561
  3645   6 C     3803   1 H                                       1.0803929
  3646   6 C     3804   1 H                                       1.0824817
  3650   6 C     3805   1 H                                       1.0805634
  3651   6 C     3806   1 H                                       1.0816543
  3652   6 C     3807   1 H                                       1.0808450
  3653   6 C     3808   1 H                                       1.0808032
  3654   6 C     3809   1 H                                       1.0791811
  3658   6 C     3810   1 H                                       1.0806361
  3659   6 C     3811   1 H                                       1.0801482
  3660   6 C     3812   1 H                                       1.0795179
  3661   6 C     3813   1 H                                       1.0811950
  3662   6 C     3814   1 H                                       1.0793384
  3666   6 C     3815   1 H                                       1.0819268
  3667   6 C     3816   1 H                                       1.0805140
  3668   6 C     3817   1 H                                       1.0798224
  3669   6 C     3818   1 H                                       1.0788191
  3670   6 C     3819   1 H                                       1.0807356
  3674   6 C     3820   1 H                                       1.0812522
  3675   6 C     3821   1 H                                       1.0811022
  3676   6 C     3822   1 H                                       1.0810011
  3677   6 C     3823   1 H                                       1.0806003
  3678   6 C     3824   1 H                                       1.0786302
  3686   6 C     3825   1 H                                       1.0815710
  3685   6 C     3826   1 H                                       1.0811324
  3684   6 C     3827   1 H                                       1.0808230
  3683   6 C     3828   1 H                                       1.0817831
  3682   6 C     3829   1 H                                       1.0806477
  3550   6 C     3830   1 H                                       1.0884733
  3550   6 C     3831   1 H                                       1.0883640
  3550   6 C     3832   1 H                                       1.0878985
  3680   6 C     3833   1 H                                       1.0966895
  3687   6 C     3834   1 H                                       1.0914312
  3687   6 C     3835   1 H                                       1.0913090
  3688   6 C     3836   6 C                                       1.5327588
  3837   6 C     3838   6 C                                       1.3891398
  3838   6 C     3839   6 C                                       1.3840306
  3839   6 C     3840   6 C                                       1.3838810
  3840   6 C     3841   6 C                                       1.3845419
  3837   6 C     3842   6 C                                       1.3907739
  3841   6 C     3842   6 C                                       1.3829129
  3838   6 C     3843   1 H                                       1.0815069
  3839   6 C     3844   1 H                                       1.0809215
  3840   6 C     3845   1 H                                       1.0805450
  3841   6 C     3846   1 H                                       1.0811478
  3842   6 C     3847   1 H                                       1.0806302
  3836   6 C     3848   6 C                                       1.5314771
  3836   6 C     3849   1 H                                       1.0914572
  3836   6 C     3850   1 H                                       1.0919809
  3851   6 C     3852   6 C                                       1.3906740
  3852   6 C     3853   6 C                                       1.3828700
  3853   6 C     3854   6 C                                       1.3850834
  3854   6 C     3855   6 C                                       1.3848030
  3851   6 C     3856   6 C                                       1.3889838
  3855   6 C     3856   6 C                                       1.3844959
  3852   6 C     3857   1 H                                       1.0808968
  3853   6 C     3858   1 H                                       1.0800882
  3854   6 C     3859   1 H                                       1.0801698
  3855   6 C     3860   1 H                                       1.0812463
  3856   6 C     3861   1 H                                       1.0816443
  3688   6 C     3862   1 H                                       1.0965655
  3848   6 C     3863   1 H                                       1.0932792
  3848   6 C     3864   1 H                                       1.0922651

 * 2 distinct bonds (by element types)

   Z      Z             #   av. dist./Å        max./Å        min./Å
   1 H    6 C        1944     1.0852658     1.0980581     1.0775400
   6 C    6 C        1855     1.4192772     1.5407797     1.3807158


optimized geometry written to: xtbopt.xyz


           -------------------------------------------------
          | TOTAL ENERGY            -5104.235731817635 Eh   |
          | GRADIENT NORM               0.000738207460 Eh/α |
          | HOMO-LUMO GAP               3.925472358000 eV   |
           -------------------------------------------------

------------------------------------------------------------------------
 * finished run on 2024/07/20 at 16:13:03.496     
------------------------------------------------------------------------
 total:
 * wall-time:     8 d,  3 h, 50 min, 36.366 sec
 *  cpu-time:    52 d, 21 h, 40 min,  1.804 sec
 * ratio c/w:     6.483 speedup
 SCF:
 * wall-time:     0 d,  0 h, 16 min, 25.347 sec
 *  cpu-time:     0 d,  1 h, 44 min, 38.852 sec
 * ratio c/w:     6.372 speedup
 ANC optimizer:
 * wall-time:     8 d,  3 h, 33 min,  0.186 sec
 *  cpu-time:    52 d, 19 h, 53 min, 50.360 sec
 * ratio c/w:     6.484 speedup

