3864
 energy: -5104.235731817635 gnorm: 0.000738207460 xtb: 6.6.1 (8d0f1dd)
C           29.80679466221987       42.70028508405106       60.76221504085465
C           29.98266074893165       41.32287656562442       60.82712376676795
C           28.99213489421367       40.51042223467649       60.28700898467545
C           27.87454959239239       41.05552161306169       59.67982646443522
C           27.71869910679375       42.42898634192419       59.61171609799506
C           28.68754001908606       43.24938300683175       60.16224866726095
C           31.19424531433907       40.74225033078048       61.52043901945745
C           30.82021310220322       40.44013899416829       62.97546933360106
C           31.70762691389833       39.49012654560408       60.79938891286240
C           33.13017533741650       39.05629372994589       61.19720289375774
C           33.27860486981210       37.56659219297656       61.00435691265785
C           33.74379027423395       36.75365634728823       62.02995869025917
C           33.91297743532118       35.39319836246829       61.84052203501332
C           33.60479079285150       34.81879339781599       60.62009533135411
C           33.11802103701822       35.61347398401518       59.59595602812692
C           32.96068619958668       36.97348316834106       59.78796771387578
C           34.19596075710276       39.79520581295429       60.37402486612352
C           35.62418618364465       39.40199768482390       60.78493303685495
C           36.06220186201563       40.09309614476287       62.05168991744027
C           36.29325599457557       39.36543485377437       63.21196066259726
C           36.74457025900990       39.98462463672396       64.36526325123042
C           36.98834358768173       41.34669798500708       64.37497024122949
C           36.75685888121617       42.08308582992082       63.22560884225567
C           36.29125591734144       41.46469045051840       62.08008911480174
C           36.61375581089442       39.68736132949935       59.64755590361447
C           38.03690209577709       39.24623438203741       60.01471189598698
C           38.06151727905107       37.77806285892441       60.36051718687850
C           37.64599588935626       36.81577648758357       59.44864612534994
C           37.62402420448996       35.47674689061598       59.79112788150329
C           38.03282234085588       35.07200566984336       61.04998390669164
C           38.47193931802651       36.01872112070988       61.95814579928321
C           38.48496007368038       37.35910088734065       61.61538342114820
C           39.03014235820456       39.54348256093554       58.88218669723453
C           39.33924941920412       41.03737888437617       58.67281379956490
C           40.19508318455897       41.14118189237372       57.43255346068430
C           39.58454278037034       41.38156021155937       56.20716882062980
C           40.31686059332846       41.40359264696229       55.03467587349238
C           41.68763286531974       41.21820704785581       55.07065756464591
C           42.31102014946867       41.00057980437294       56.28648413120899
C           41.56931670585947       40.94222180197872       57.45399416386068
C           39.97357189639523       41.65758615838750       59.92444395503297
C           40.51687916601824       43.07074517713881       59.68358192489328
C           39.44130150910499       43.99019098416183       59.16063635846201
C           39.49347007135066       44.45098349332266       57.85054408998430
C           38.53586882501236       45.32353106606186       57.36329751888807
C           37.51541476838001       45.76494745473675       58.18799651827782
C           37.45345918024678       45.31200335028203       59.49480250834139
C           38.39852017689894       44.42212402415930       59.97245630816971
C           41.14318623921302       43.65397649448087       60.95832450194647
C           41.85072345100980       44.98054181632451       60.62587401020982
C           43.33540230281828       44.79328332604160       60.45728357569254
C           43.95202925405417       45.12626443308034       59.25813048540464
C           45.32171820429538       45.00891426144163       59.10901006074684
C           46.09163780720562       44.53197447163694       60.15433643245044
C           45.48725294693603       44.17527818292858       61.34677052697880
C           44.12131045158607       44.31395194487472       61.49743299367773
C           41.56754426906964       46.09814589734169       61.64222783149004
C           42.06287749225721       47.44407153463209       61.08808007428355
C           42.20670744998446       48.49460596930676       62.15776408091201
C           43.46821174893020       48.93733727295314       62.53452000353278
C           43.61736018295050       49.96995510410257       63.44188754017294
C           42.50375694728051       50.58326396738033       63.98575196487433
C           41.24226232330339       50.12175041931129       63.65230024875463
C           41.09784812829509       49.07601858810852       62.75970385408165
C           41.16024433401616       47.93139509603856       59.93821339438851
C           41.98242008573221       48.46656650135851       58.75717929008120
C           42.68019497689352       49.72888063866674       59.19271034113711
C           44.04453989145230       49.71880924969901       59.44986176516028
C           44.67969210859412       50.83079313923653       59.97248367454218
C           43.96668687815021       51.98933253907611       60.22109283850444
C           42.61223090942531       52.02052798311207       59.94096769424549
C           41.97431350904917       50.89922663982038       59.44461672586115
C           41.09797162953160       48.64316373320858       57.51872223393686
C           41.93252597369744       48.79603183657614       56.23970143124974
C           42.70828377463481       47.52745456011952       55.97760645422353
C           44.09141589275593       47.55160698403269       55.86068514939950
C           44.79979157503967       46.38935418077992       55.60894221897742
C           44.13649855639542       45.18219568784996       55.48133944971205
C           42.75654527414449       45.14491292765089       55.58583209752267
C           42.05130256698585       46.31014957793891       55.82683626145018
C           41.05975368197085       49.12407939679331       55.01226611234848
C           40.94050830901096       50.62421649462692       54.69611791023901
C           40.17293394313454       50.77992544330088       53.40663887008694
C           40.82277416867615       51.19877409285948       52.25324600081395
C           40.14282844143121       51.31828495300089       51.05525899345282
C           38.79129641792604       51.03042805224609       50.99207373359667
C           38.12962492179144       50.61866788788716       52.13568204399624
C           38.81491677322254       50.48826020027012       53.33013645682940
C           40.28969035467603       51.40926724205993       55.83758391720622
C           40.01781953258742       52.87774363062875       55.48276741155953
C           41.30284571599322       53.62758928720894       55.25296866009349
C           41.59220046489946       54.13555996990167       53.99234132504761
C           42.77985175301056       54.80344093866099       53.75200490287160
C           43.69523865786751       54.98696433876154       54.77371393221375
C           43.41406925722825       54.49388310504248       56.03612870084094
C           42.23281307853799       53.81214933802212       56.27033140583428
C           39.16143341651732       53.50363327620412       56.58983265828539
C           38.72554796594095       54.95044368344917       56.31154390958476
C           38.19163194166462       55.11437515846140       54.91407451433996
C           38.72381827841531       56.08535051910624       54.07515685552377
C           38.23742553995290       56.26441739196299       52.79194799538244
C           37.20728355891364       55.46680729122954       52.32596829799689
C           36.67984485118249       54.48203820080577       53.14418534938972
C           37.16849296100967       54.30848363185039       54.42532496726453
C           37.69400476989909       55.34041062857948       57.38145345839802
C           37.21957471376331       56.80404854296254       57.34770987655808
C           36.81753713855234       57.21881345176084       58.74139873482731
C           35.72077350542596       56.64577506783924       59.37742446933351
C           35.36842376306387       57.02487921183260       60.66038709634519
C           36.11264276415883       57.97886981124479       61.33446899485867
C           37.21160926928670       58.54937083771177       60.71538014089733
C           37.55747899354981       58.17207833117600       59.42909993460191
C           36.05933064757310       57.00057950182927       56.36227138404164
C           35.38019620817245       58.37001984732937       56.49013433695016
C           36.36848872971169       59.49685281280761       56.36104379300247
C           36.47457360818503       60.45061654042225       57.36552975634650
C           37.36550894343016       61.50364801306266       57.25668965911954
C           38.17498325617539       61.61388208878844       56.13992513945275
C           38.08904890934595       60.65722460512863       55.14348027510415
C           37.19151701554825       59.61133401119677       55.24717219098435
C           34.26284630991628       58.49039131134793       55.44341514954242
C           33.41611869009619       59.75593756567092       55.62129470491312
C           32.90102933428837       59.89985844822905       57.03319749966628
C           33.12425586736344       61.07609478982622       57.73815832837856
C           32.65723110159841       61.23266808395925       59.03133845139175
C           31.95548008265852       60.20931779026826       59.64403748660116
C           31.71681074718843       59.03628104109905       58.94888652864424
C           32.18040517700783       58.88703372145708       57.65481915811710
C           32.21459225831138       59.78195727296966       54.66019736242118
C           32.56503689832283       59.86550877777967       53.16525237058428
C           31.28654288655643       59.84565805535148       52.36056236665862
C           30.39338965258771       60.91153777168414       52.39958889901180
C           29.24097320411038       60.90105818511952       51.63620383334543
C           28.95318813170033       59.81672986946727       50.82455451599357
C           29.82682591299943       58.74472435030628       50.78611815225945
C           30.98354857328956       58.76224787950909       51.54618166000453
C           33.39426924733223       61.11670005533825       52.84864694521841
C           33.53710959273013       61.35241236737250       51.34087178674738
C           34.28396153451395       60.23955998477744       50.65034407187483
C           33.72187894774487       59.59857137921786       49.55275491543638
C           34.41659765958835       58.61653531858705       48.86802492407329
C           35.68575823805904       58.24839561862649       49.27985812553219
C           36.24973877982168       58.86461149475709       50.38373041672387
C           35.55689299989174       59.85516471422074       51.05747442740375
C           34.21501764051471       62.70313403410189       51.06499438927270
C           33.91543605105070       63.19247886350227       49.64305231959661
H           31.98689800668742       41.49682538426781       61.51783072951934
H           31.02918098618521       38.66066059764326       61.01242529689165
H           31.68380732978470       39.67999817737321       59.72373186259415
H           33.29810896361322       39.28279455173097       62.25491852042828
H           34.05443687885185       39.55162246768359       59.31872476301354
H           34.05791465498266       40.87184482254114       60.48089159500288
H           35.63773513462092       38.32097606947265       60.96435204980794
H           36.28502225117841       39.14969192492892       58.75561243916234
H           36.60341221200138       40.75291322759257       59.41807752359610
H           38.34884615123267       39.79037852790504       60.91027380858807
H           38.63731542774683       39.13144152630349       57.94858102859640
H           38.40116163789197       41.56500457201061       58.47207445632866
H           39.22282464263580       41.70134423332799       60.71593086913543
H           40.78249374099678       41.01620631489980       60.28063801722643
H           41.30642128381832       43.01068231423447       58.92665084881615
H           40.37154083190464       43.80808072617903       61.71335370212197
H           41.85532878711422       42.93725720006300       61.37176421965426
H           41.45620301144211       45.32032809120363       59.66439816738765
H           40.49314075710484       46.15532823297396       61.83091023412705
H           42.07534196542217       45.88585159092644       62.58574193189442
H           43.06518264539861       47.26091248231349       60.68731226880024
H           42.74527815507739       47.71963131069268       58.51182997153359
H           40.46239377665178       47.75983611059157       57.42121597415283
H           40.44543918548094       49.50302742015376       57.64989006607201
H           42.65274644523790       49.60969307553895       56.38514518897797
H           41.50100293731835       48.64371941657878       54.13378093136511
H           40.06165788951731       48.70186147693602       55.14350956367549
H           41.95123795619367       51.01970844828796       54.54208247500741
H           39.34081977677613       50.93829702674796       56.09926518122710
H           40.94555250719780       51.37832818141644       56.70811819335118
H           39.43900277706614       52.90362309885479       54.55325717467000
H           38.26901720407268       52.88617175884907       56.71188111002274
H           39.70163483983936       53.47935460453718       57.53898991955845
H           39.59604607181118       55.60606754035766       56.42233130925638
H           36.82631057276527       54.68370350609531       57.30343265056889
H           38.15493710382013       55.14931486381856       58.35250676061103
H           38.05745703781108       57.43844112494956       57.03662997972899
H           36.42565576538735       56.86590254251068       55.34486655512808
H           35.30286594024277       56.23619856355653       56.54135977290433
H           34.92190387860032       58.43387351299630       57.48344246728400
H           34.70592865669893       58.49136876752301       54.44611811722299
H           33.62142267207815       57.61027595708973       55.51686037921925
H           34.05089478804322       60.62333470729130       55.41735199113665
H           31.60938204226627       58.88629308607448       54.82383619830086
H           31.59077212775356       60.64135727756486       54.91966045439933
H           33.15141876387187       58.98600426912436       52.88271530850848
H           32.90925393078370       61.98907304330366       53.29205211632468
H           34.38205293104495       61.02158478700898       53.30039837245477
H           30.55207357233393       43.35660284391732       61.18929709874288
H           28.56769361037979       44.32255940657804       60.12478647775140
H           26.84616728437094       42.85598910029411       59.13821368604225
H           27.12011460143320       40.40411979809876       59.26103572119374
H           29.08375844131150       39.43601517825532       60.34074385659277
H           33.97632496998062       37.19113570134554       62.99122375489573
H           34.28506829526650       34.77924576736466       62.64862718038916
H           33.73560496991379       33.75645581986347       60.47130281835204
H           32.85616734331288       35.16935202664087       58.64536051450219
H           32.57274858399834       37.58325113831628       58.98565083632545
H           36.13493793038928       38.29550151136110       63.20776191945926
H           36.91431981978422       39.39602532148942       65.25648330398333
H           37.36101623986364       41.83230399777823       65.26606481569401
H           36.95064610921669       43.14630983755154       63.22780210436829
H           36.11620789818618       42.05114781845106       61.19115787563432
H           37.32553329028241       37.11202891353538       58.46227878192488
H           37.28255376580994       34.74524625806165       59.07215411274546
H           38.01221143292499       34.02574366244077       61.32193505143447
H           38.80079289018520       35.71491744630350       62.94171141116800
H           38.82003862145051       38.08861380364321       62.33890928636484
H           39.96944894653272       39.02900098708759       59.09834075741214
H           38.51948744857899       41.55008130793887       56.17558342359732
H           39.82715318165294       41.56001320567837       54.08379604481472
H           42.25291867053717       41.24066990406635       54.15135436063252
H           43.38243162288175       40.86652976950074       56.33108914975501
H           42.07252970414994       40.74154323207746       58.38708926198471
H           40.29391390530810       44.11829912475690       57.20522364955709
H           38.58733337680076       45.65876607843362       56.33640131276879
H           36.76988850665914       46.44983042223070       57.81234769676573
H           36.65955240538191       45.65091654257598       60.14449467720769
H           38.32047918746590       44.06371947382719       60.98902085858979
H           43.35651999355511       45.48115205102672       58.42782748616850
H           45.78069825931816       45.29196685793831       58.17194053351280
H           47.16127784251049       44.42933112429465       60.03562723634726
H           46.07527749350930       43.79298018870774       62.16718308826804
H           43.66759064039843       44.04219566436236       62.43957505974178
H           44.34652604905066       48.47932851770958       62.10049981210813
H           44.60750873276370       50.30779395335801       63.71237172996840
H           42.61607056601684       51.41641431966192       64.66477000675586
H           40.36685378740776       50.59126206470770       64.07821563371175
H           40.10834154262751       48.71377026243138       62.52054275004532
H           40.53314947034615       47.11113613515747       59.58437335187315
H           40.49328123721706       48.71900282005861       60.28872001711270
H           44.61294183516129       48.81895533700524       59.25023347698090
H           45.73701772852636       50.79502531987857       60.19288504154270
H           44.46117902744594       52.85720971732854       60.63602942160288
H           42.04048792967384       52.91898375170354       60.12829085036147
H           40.90844471019651       50.94216979504778       59.27055070440660
H           44.61936657682793       48.49041475979701       55.95999311048079
H           45.87395349111265       46.43016416643657       55.50827537701606
H           44.69377426907410       44.27493561746506       55.30121365102784
H           42.23147378252472       44.20505434737422       55.47579564701012
H           40.97509221497220       46.27077613893215       55.89760325905139
H           41.87573264359960       51.44366237955018       52.29186037282722
H           40.67053251096461       51.64576625677027       50.17227743451549
H           38.26197527383422       51.12572693503402       50.05552394401803
H           37.07293857120960       50.39272809735316       52.09948441538756
H           38.27978253086381       50.15583395260832       54.20710422571432
H           40.87902731813372       53.99759228067408       53.19033110542259
H           42.99319715044732       55.18068211966889       52.76141397648634
H           44.62039921681110       55.51458141127435       54.59308160394531
H           44.12201644890691       54.64426259338793       56.83859097711746
H           42.04041934291006       53.41475095282374       57.25783701390659
H           39.52686343459281       56.71334829088401       54.43533286865323
H           38.66766576233555       57.02751583579287       52.15696600574456
H           36.80929250478849       55.61399477706345       51.33218210822952
H           35.88125168018297       53.85210723341773       52.78096418458947
H           36.74928382030340       53.53230749435962       55.04861337061676
H           35.12944149946092       55.89789984593357       58.87081068678604
H           34.51065417944132       56.57199161545228       61.13753625074190
H           35.83720047978820       58.27594993309085       62.33692448852748
H           37.80029910750466       59.29177345751987       61.23594333315160
H           38.41258588061238       58.62765453842701       58.94949825521368
H           35.84770551752823       60.36679799118289       58.24307718358407
H           37.42615247799101       62.23953030591480       58.04698661816780
H           38.86321683180151       62.44134114756601       56.04393335479708
H           38.72716746969566       60.72677658460814       54.27527115156005
H           37.13723450802711       58.87620315715922       54.45653649876064
H           33.67724191850512       61.87895052907831       57.27008234017719
H           32.84438252278717       62.15460515525886       59.56369141091156
H           31.59486815202619       60.32596234296432       60.65579911593699
H           31.16773108641757       58.23416468618120       59.42100461554155
H           31.97899370212768       57.96773015741779       57.12716581971483
H           30.60231498094474       61.76959893852469       53.02140896137621
H           28.56675769894503       61.74481092536468       51.67001678620487
H           28.05403807084703       59.81029019468158       50.22552208181864
H           29.61148350647539       57.89314971462588       50.15649317931970
H           31.66311433744361       57.92410554829371       51.49549472825336
H           36.01715647234897       60.33504276494810       51.91002795906729
H           37.23713065258997       58.57808982091977       50.71457867270848
H           36.23024783987875       57.48680433869676       48.74043638416714
H           33.96890166387330       58.13770048822646       48.00846523927861
H           32.72561152292122       59.87475519897146       49.23456875324150
H           30.02245081817536       39.70095406088278       63.01513754053734
H           31.67553862973977       40.05508448977515       63.52507984819716
H           30.47285722079623       41.34434025097697       63.47129182420267
H           32.52867511289578       61.40052695108444       50.91626411428967
H           33.85022717098271       63.44135203869746       51.78177393437169
H           35.29228360416244       62.60881946846259       51.20641482375402
C           34.68082640797324       64.48117478912378       49.31249003802740
C           32.43204558488362       63.40377839656129       49.46221614919530
C           31.72520660492345       64.29905456104370       50.25687460049647
C           30.36155949375041       64.46569734881162       50.09831983436765
C           29.67756412371385       63.73881713359551       49.13903180643651
C           30.37088760012562       62.85380456608444       48.33243609677975
C           31.73569585785618       62.69284464645158       48.49259818575847
H           32.24176355342328       64.87561739826005       51.01016820948929
H           29.82845460669464       65.16499404662841       50.72678511838016
H           28.61138013775644       63.86450799781392       49.01836519467962
H           29.84673177450814       62.28575240108586       47.57716584743704
H           32.27198447670493       62.00233063757479       47.85596163235663
C           36.18254173576846       64.25311853477277       49.08944065204143
H           34.25621661732566       64.91657880484013       48.40384370847008
H           34.54753360507411       65.20304958184140       50.12078052715303
C           36.42952044267541       63.39055174187924       47.88578634523818
C           36.58899313605676       62.01523715892328       48.00743475082859
C           36.75252309238446       61.22109245574777       46.88585639569742
C           36.78077087846442       61.79590017330266       45.62728783230599
C           36.63608083517347       63.16610970307560       45.49433551996893
C           36.45299336178145       63.95411739599434       46.61577818934204
H           36.57647696599514       61.55766151087825       48.98716145126220
H           36.84740155999764       60.14982965219625       46.99206655766171
H           36.91341075611470       61.17997163553781       44.74992764692924
H           36.66073847701531       63.62196059750107       44.51462152639018
H           36.32937721802131       65.02224103240428       46.50464607790858
H           34.23269370275957       62.41739885941631       48.93725183802461
H           36.65173084412775       65.22943779410575       48.94698272878369
H           36.62687731569581       63.79605703989954       49.97449719825724
C           42.01198854231252       45.54587133854093       48.91873233536874
C           43.22629496196218       45.47414312493264       48.24525866569930
C           44.39308873305787       45.71530123960711       48.96115873499021
C           44.34414414653391       46.00442192197497       50.31256933356040
C           43.12889890442595       46.07793615927358       50.97143288893703
C           41.95932014833765       45.84763822895435       50.26759273869258
C           43.24490714095112       45.18593990906155       46.76215772410162
C           43.33094701500897       46.52152034961097       46.01959079803852
C           44.39991713820521       44.25340536089475       46.37164072803036
C           44.28110312354159       43.62742903285396       44.96287126485770
C           45.58396864848897       43.79466343827016       44.21904143980732
C           46.67082560476172       42.96084745913342       44.46361132662467
C           47.85958947502209       43.12697399414104       43.77563318780778
C           47.98579877756978       44.13480379285472       42.83418345203654
C           46.91579199456925       44.97733775789675       42.59030256399883
C           45.72622550017795       44.80516477093092       43.27638233456496
C           43.87809197811665       42.14426042369976       45.00391883902326
C           42.36541962718596       41.91994927544056       45.15885639122373
C           42.11221450578996       40.51573055239383       45.64231356905063
C           41.68863441702336       40.30107271139490       46.94819364194745
C           41.48791335022644       39.01949675578810       47.43032909303142
C           41.69265036972844       37.93042592494474       46.60174444816204
C           42.09558672729137       38.13299582341838       45.29357085494740
C           42.31757965118849       39.41392703494844       44.82047473384531
C           41.63783952083244       42.22633826472608       43.84223874169820
C           40.15544714925043       41.82038114331348       43.84254909057001
C           39.49308734166786       42.13580965889220       45.15859939044390
C           39.51359267244222       43.42484549836311       45.67688670641588
C           38.94082750264199       43.70236882451398       46.90262934471039
C           38.32014328728820       42.69785150821642       47.62451163471119
C           38.26928285537512       41.41597841910924       47.10697174599679
C           38.85367685294363       41.13919108765446       45.88353812468878
C           39.38766188721213       42.53129392321247       42.71808172275821
C           39.74693043665408       42.04819402118804       41.30535307938854
C           39.23330461546964       43.04684402734962       40.29954045462261
C           40.10900393812131       43.70182358023197       39.44365470871497
C           39.64702494153300       44.63084777233674       38.52798945297550
C           38.29762508122540       44.92828736270260       38.46596796460889
C           37.41468737328799       44.29200744849469       39.32167757609745
C           37.87958480905218       43.35646065585918       40.22688710703208
C           39.20868567409990       40.62667720653432       41.04241723173320
C           40.31569386014996       39.64854011108830       40.61501926990580
C           39.84286017221197       38.23970453729748       40.87515235109025
C           40.31459428940292       37.55543553480952       41.98958445985168
C           39.84599620228488       36.29408917659818       42.30944380353585
C           38.90015045783492       35.68561620668078       41.50270951087247
C           38.41764809600439       36.35581772739630       40.39147971960260
C           38.87712072407096       37.62538168907945       40.08700134267607
C           40.74697159646043       39.89681235099184       39.16460049531588
C           42.17394206370242       39.39554901817521       38.88590518347551
C           43.16745700520246       40.22415520877669       39.65983227348118
C           43.88722000965435       39.66697049820031       40.70983200368399
C           44.79915271635593       40.42234288444693       41.42864813342590
C           45.00416791569920       41.75367409951098       41.11026302706482
C           44.28597704775301       42.32236990655144       40.07036796176444
C           43.37725495290260       41.56524674793878       39.35279906686660
C           42.43585569389603       39.42361684108955       37.36916385362045
C           43.91018641510745       39.25638355581346       36.96963644763181
C           44.11586872822380       39.56307482850248       35.50505413292580
C           43.30946607715907       39.00594123814687       34.51949053551365
C           43.50790338381038       39.30915962762848       33.18404589108145