3258
 energy: -3427.647313544671 gnorm: 0.000665678340 xtb: 6.6.1 (8d0f1dd)
C          121.06901874615487      119.89055521964359      111.00701118684090
C          120.09352898666712      119.12879369688497      110.11967794903173
C          118.97484366902512      118.48310443544025      110.93201879904638
C          117.93733660101360      117.78449545199371      110.05755417164629
C          116.90258563463289      117.03478227751694      110.89174695496069
C          115.80928013924597      116.39653812988273      110.03909596107152
C          114.90621013950303      115.48742144543095      110.86831234479855
C          113.71803534667914      114.94988914847710      110.07453678808673
C          112.94317440056993      113.90046508383649      110.86811060116193
C          111.78221163359368      113.27792286614887      110.09199339066038
C          110.50905304915499      114.12084681170677      110.09063609975446
C          109.43957747921516      113.50383365560661      109.19237109357326
C          108.14077377883818      114.30828699807870      109.13632487756985
C          107.23545545370813      114.11051912140380      110.34863670457054
C          105.97672297756164      114.96834792331435      110.24354105850733
C          105.03744462260751      114.78513332999044      111.43203241695322
C          103.77343012873095      115.63112826413840      111.29599243762198
C          102.78818186410939      115.38636180875577      112.43338846021722
C          101.46647761758472      116.12338325319710      112.24111022175349
C          100.46991559198705      115.78107068038216      113.34527859823541
C           99.09386696252132      116.40040173392804      113.11873263558763
C           98.09713183831767      115.96078307549637      114.18766678633317
C           96.65989578735598      116.34614012812349      113.84729541134733
C           95.69974712877736      115.96092838742210      114.97005545575591
C           94.23707979130864      116.19641967095029      114.59892998923310
C           93.29100830166692      116.06204808065796      115.79295209441041
C           93.20412760329528      114.64195745323389      116.34955283166498
C           92.34837779782461      114.59438757368223      117.61359595355228
C           92.11455293576562      113.18049655097009      118.14596826222540
C           93.40095414427799      112.44277262394040      118.51246264642170
C           93.10946241593122      111.14228029881825      119.25730251426303
C           94.36695887996737      110.31007003300735      119.49459416153590
C           94.05898997539057      109.02352821641182      120.25549901543005
C           95.29885403729776      108.16027436594055      120.47495356779008
C           94.96627107374574      106.90584808960899      121.27922556192806
C           96.14028437113217      105.93940871031815      121.42934500583982
C           97.30596142664673      106.50173285504637      122.24280170873350
C           98.28111461255126      105.39888380141340      122.65097476370448
C           99.55067204743803      105.93952966225146      123.30361789541686
C          100.49504877682541      104.81140302527265      123.71259668637502
C          101.85105103328749      105.32651592819317      124.18842295725115
C          102.79677292223695      104.18441459946087      124.55327247484720
C          104.20632113178884      104.67240513566736      124.87801475391848
C          105.16498179355946      103.51051497949547      125.13556645037127
C          106.54200883510362      103.96024650108328      125.62605372268838
C          107.36960982777700      104.67300965339489      124.55892930063288
C          108.69084408505047      105.19021423062942      125.12240680193767
C          109.52506203182973      105.92126260592852      124.07367189591588
C          110.75741206612911      106.58291278717161      124.68431702554474
C          111.59229800795738      107.32925742247750      123.64735200987829
C          112.76106136257593      108.07453180927179      124.28600204370379
C          113.59100695767619      108.84281040340332      123.26149908537012
C          114.73690559003455      109.61072143697926      123.91443972003589
C          115.55352483529808      110.40703080254453      122.90092584172753
C          116.68115320088228      111.19374699645317      123.56258861805175
C          117.47019926549289      112.03061946227544      122.55998281662785
C          118.57222858209910      112.84366939852957      123.23313865693925
C          119.30044438845682      113.75589167563599      122.25000983317557
C          120.37002822331782      114.60305672496123      122.93481791810376
C          121.04269788625767      115.56057806051813      121.95560258559824
C          122.15012512202814      116.41067236621180      122.57949936016665
C          121.71220531110684      117.28960363319001      123.75407983605308
C          120.54038447405182      118.20805968348390      123.41662918708890
C          120.27637255491430      119.24837549167943      124.50367932427045
C          119.00351923397179      120.03979639884049      124.20947690605544
C          118.79731015995247      121.21314092832445      125.16354938479907
C          117.42158463096875      121.86778714676734      125.01996382576554
C          117.14236396366951      122.41653234999464      123.62124191906261
C          115.86239396024904      123.25041145269186      123.59301229505040
C          115.47849898049000      123.73541305896927      122.19273965393539
C          114.87054074244217      122.63936063726132      121.31874445880867
C          114.41789519768354      123.17577313633872      119.96189025669426
C          113.60593042017184      122.16358279606246      119.15195760322598
C          114.41902135299208      120.94201663596445      118.72784210930379
C          113.71752517845482      120.08900928330935      117.67055947126677
C          112.53302714712333      119.30023422171971      118.22218110810749
C          111.84839866277936      118.46515148217630      117.14338021395851
C          110.69793136082161      117.63328620134693      117.70405749191661
C          109.91293848137225      116.92507096835097      116.60442188397509
C          108.76148912828762      116.08970311102296      117.15706688103025
C          107.94174128591432      115.43805802086635      116.04743952028545
C          106.82820702902467      114.54681802029012      116.59073639675458
C          105.97871876246181      113.96422320544407      115.46567786298111
C          104.87055318197902      113.04157306900396      115.96746215121843
C          103.91676728371682      112.67626571891569      114.83431560889163
C          102.80214072400764      111.72696190131325      115.26439945651072
C          101.66475524644832      111.63857410697642      114.24467437962360
C          102.10623735225683      111.20556875148571      112.84908602969765
C          100.94312494068976      111.15637914245116      111.85903372481636
C          101.40902636339169      110.99729342031398      110.40816021258091
C          101.89994793519006      112.31323174246245      109.80788575617349
C          102.40360899686266      112.16731176739408      108.37254549699290
C          102.70990163240174      113.53108239307419      107.75235698090829
C          103.61645800203648      113.45462525665982      106.52722301179483
C          103.88096715502058      114.83695025880442      105.92772286833707
C          105.10106358785265      114.85006439417874      105.01164579267969
C          105.36501369884330      116.22283407731727      104.39503912579234
C          106.72614926360825      116.27024568739840      103.70540174617710
C          107.02961003087948      117.62033255096293      103.05939507368244
C          108.42940177326139      117.63563571755495      102.44942420770542
C          108.78410732763463      118.92585639674513      101.71000632810618
C          108.81093450903808      120.19336564600985      102.56701017398836
C          109.78660697991253      120.12732076389409      103.74018778099160
C          109.96006903380578      121.48947544820926      104.41113600667941
C          110.73395428827661      121.38827764372753      105.72289220866855
C          110.88781905147698      122.73585121253784      106.42504718721705
C          111.44264808938038      122.57807653340359      107.83955947777125
C          111.53334607236098      123.91220009312183      108.57911615541671
C          111.87596232672148      123.76863557546112      110.06453164163447
C          110.74033918575903      123.15203083969556      110.87863318525892
C          111.04176944728709      123.08967471207936      112.37477869634094
C          109.89888977003987      122.41536383021852      113.12961703740966
C          110.13309530816542      122.29996397351239      114.63478510487411
C          109.01557856647628      121.49687446735990      115.29798401203081
C          109.11025176068343      121.45051757499701      116.82105434915270
C          108.01997279756706      120.55328754949396      117.40273750542543
C          108.03843050530963      120.48306402300618      118.92739105499085
C          106.98781740579977      119.50515564496199      119.44904471907400
C          106.97037692675100      119.40986919832119      120.97217718178337
C          105.90831255423267      118.43216739871757      121.46102847029914
H          107.95201529847014      119.08621471441563      121.32617237092929
H          106.77691113820626      120.39898001694043      121.39478024216392
H          106.00092396612867      119.81628420011432      119.09650086559755
H          107.18540217168804      118.51326037139940      119.03318109975659
H          109.02826946406054      120.16786153606485      119.26817814010502
H          107.85109665762198      121.47638680030462      119.34301012159133
H          107.04275285404175      120.91877486924599      117.07651975185277
H          108.14376490760914      119.54440110380047      117.00218923617480
H          110.09055346330497      121.07036877754180      117.11508550124323
H          109.01191935647117      122.46068462579150      117.22651368064101
H          108.05048099003238      121.92643923132466      115.01549260786820
H          109.04033920176981      120.47432599911538      114.91396943601143
H          111.09260619410320      121.81103364712123      114.82130748860948
H          110.18278170999812      123.29845181654402      115.07609591767635
H          108.97555683091061      122.97509385490812      112.95610117796056
H          109.75414338317337      121.41460552054215      112.71540979482744
H          111.96499755859598      122.52881059845237      112.53463476708458
H          111.19654710506211      124.09966813710933      112.76249702716090
H          109.82950906492169      123.73637635435111      110.72137908750166
H          110.54389298939523      122.13784998731397      110.52575139973779
H          112.77458843204811      123.15948552576434      110.17434234966710
H          112.09891394185206      124.75978303075006      110.46847787823552
H          112.29349110839853      124.53166514771249      108.09644744926055
H          110.57803725679022      124.43644204962443      108.48739106671722
H          110.78949749659571      121.89917527543673      108.39085472169121
H          112.43339375167584      122.11879775566037      107.79265253133605
H          111.54369365771807      123.38496720924505      105.84064060823953
H          109.91005469464002      123.22260585528014      106.48165134077915
H          110.19991004011409      120.70483198920941      106.38806064644879
H          111.72038324026381      120.95840058205302      105.53534342835530
H          110.47682699605549      122.17074022455837      103.73065754809814
H          108.97306107999884      121.91498108763804      104.61366037315840
H          109.41876826756730      119.41614837169720      104.48163912475459
H          110.75735859686812      119.77070784234368      103.38657511032160
H          109.09438522910102      121.02980890087049      101.92125840670604
H          107.80809188608477      120.40511161913044      102.94471568088592
H          109.76928309557607      118.79613649365446      101.25403849121594
H          108.06592076680629      119.07766106619501      100.89845249686614
H          109.16679460773733      117.45275348589358      103.23304109804009
H          108.50445688121820      116.80971762965187      101.73806341215219
H          106.28981076670013      117.82939583696917      102.28182988008091
H          106.94420438862097      118.40715287962632      103.81242966495030
H          107.50117552879232      116.04930256683004      104.44343462590167
H          106.77008587129153      115.49080612851955      102.94222912051073
H          104.57729117874518      116.46122253562099      103.67558009111185
H          105.33274179685121      116.98146596058015      105.18084023467853
H          105.97743745586594      114.55413177187275      105.59532851020005
H          104.97017199009072      114.11283465700063      104.21678674933224
H          102.99970162006389      115.17507201225743      105.37654907293621
H          104.04822566297194      115.55017133908210      106.73798085416115
H          104.56782725286097      113.00466470085060      106.82481868548726
H          103.16522026103887      112.80785838549473      105.77180159836122
H          101.77474089274165      114.02630016849616      107.47811816656917
H          103.20335192583448      114.15315197323829      108.50422307777281
H          103.30876684321889      111.55730514982098      108.36934047732356
H          101.65642223859669      111.64691889202258      107.76826206443184
H          101.08340484225934      113.03929996793865      109.82867116201282
H          102.70898549092131      112.71736588814692      110.41882140622168
H          102.20826862492176      110.25447120249493      110.36530516468582
H          100.58106063163159      110.62432557952427      109.80123819855480
H          100.28497608759184      110.32556593349045      112.12784657583767
H          100.35518204135984      112.07538194546477      111.94357183329137
H          102.85792539641065      111.90237676019757      112.47920407818098
H          102.56788179543854      110.21817179953732      112.90494484344302
H          100.91756535727998      110.93209280564744      114.61593355606738
H          101.18591257504087      112.62026011637930      114.17318663345345
H          103.21370423873128      110.73269055792221      115.44819895293200
H          102.38112880277060      112.08543544917299      116.20780630655960
H          103.46701181165143      113.59587874875824      114.45699252606224
H          104.49314751520973      112.22823313928271      114.02257270520198
H          105.30539461496190      112.13913407199946      116.40148863799992
H          104.31093211158532      113.54513656407103      116.75993951713271
H          105.52641570818960      114.78634893614843      114.90328392539992
H          106.61970226562660      113.41469052724987      114.77199065690488
H          107.26096260695275      113.73678443885086      117.18202289297628
H          106.19119497653729      115.13351761847676      117.25830229761077
H          107.50120504630780      116.21861381930917      115.42090215871328
H          108.60183369594975      114.84362243050519      115.41054622995001
H          109.15762128012119      115.31682248655164      117.81982336153801
H          108.10845227475826      116.72853806407144      117.75860765808564
H          109.51644765201350      117.67405283200593      115.91281394601897
H          110.58642223583237      116.27923191732141      116.03456815472688
H          111.08939167195466      116.89441523343478      118.40694814589544
H          110.02221822487535      118.28528876491214      118.26137158207273
H          111.46760193573391      119.12816156340945      116.36190232221480
H          112.58199091435978      117.80230744028857      116.67635259731091
H          112.87906948635722      118.64306818512937      119.02323364048887
H          111.80409524820043      119.98916636903510      118.65491781633759
H          113.37849776364230      120.73253440151332      116.85429752777605
H          114.43936690062250      119.38423587729025      117.24854368537677
H          115.37131005934114      121.29160885089686      118.32047036573273
H          114.63773030405545      120.32287470307377      119.59917571712990
H          112.74110557872274      121.85026024884782      119.74063106602289
H          113.22719326632563      122.66243354056989      118.25503529226397
H          113.80160233995180      124.06495435136701      120.12408217115367
H          115.29268443534859      123.48536371285282      119.38454369286603
H          115.59875925925967      121.84239741131903      121.16625811489483
H          114.00928051895633      122.21245270620966      121.83861680944868
H          114.74821700099132      124.54335781623091      122.29144060557627
H          116.36093005061102      124.15241826515232      121.70070675193854
H          115.03914918291841      122.66099242563689      124.00441513934435
H          115.99929213362923      124.11846918376924      124.24339094784064
H          117.98294430420412      123.03518604595155      123.29737697182958
H          117.04878603121669      121.58648207788951      122.92109418285585
H          116.64798270995564      121.13899737018149      125.27501647485163
H          117.35017032695181      122.68616130926910      125.74165593791358
H          118.90862367893496      120.86187688730445      126.19317168806060
H          119.57417527517202      121.96140091064106      124.98699587213953
H          119.05951262243330      120.41555953975664      123.18778544515433
H          118.14420275123670      119.36864898043822      124.27548270890840
H          120.18303788514423      118.75120079837498      125.47284165478158
H          121.12608542324146      119.93309112646055      124.56707961644811
H          120.74806882127653      118.72313554219581      122.47599868771265
H          119.63631942238499      117.61211012111313      123.27950411139696
H          121.44747978828457      116.66256891098055      124.60816451662942
H          122.56646072046887      117.90167705431413      124.05746124951011
H          122.95415365266226      115.75351864035660      122.92292644517936
H          122.56482522096809      117.05504159642744      121.79967663938233
H          121.47721605109152      114.97926438871397      121.13909641888694
H          120.28636453104089      116.21430551923270      121.51755336791093
H          119.90483999384053      115.16844753174563      123.74489602237894
H          121.12405304942432      113.94939897680037      123.38180144368178
H          119.75863779297698      113.15240313796521      121.46481861496990
H          118.57406784261092      114.41804182710518      121.77045596740552
H          118.13450586856685      113.45048755243752      124.03075952611002
H          119.29138569145633      112.16558087923897      123.70088227262002
H          117.90876632347798      111.37697026320853      121.80458559163203
H          116.78705925781588      112.71135076097929      122.04596841185005
H          116.25929806195167      111.85293179068964      124.32637480826119
H          117.35872913806001      110.50190028907609      124.07104111894675
H          115.97217606278718      109.72662775768836      122.15772888020216
H          114.89300490925166      111.10123443780911      122.37717279764838
H          114.32985946118608      110.29359923129375      124.66602881514447
H          115.39245106842861      108.90915317080913      124.43849989747186
H          113.99450645750856      108.14525524377339      122.52582247947483
H          112.94461083021882      109.54471671077792      122.73065758472237
H          112.37530261349342      108.77351758890055      125.03423111293110
H          113.40226821212875      107.36134717337872      124.81208046050213
H          111.97172606632851      106.62137329625791      122.90877019065462
H          110.95603562834664      108.04362973891357      123.12008808796907
H          110.43779051454123      107.28448608420516      125.46052225881469
H          111.37535301673068      105.82286402106581      125.17077358484374
H          109.83328138949334      105.21877878373803      123.29752138934187
H          108.90908481095835      106.68754779960624      123.59636801356338
H          108.47975780136447      105.87250934851083      125.95086691238737
H          109.26757550585977      104.35503915252231      125.52950251071741
H          107.56623372669827      103.98648314123952      123.73320574781647
H          106.80529050136617      105.51821391096341      124.16104310207166
H          106.41394093767495      104.62425817829171      126.48534872034834
H          107.09761964202508      103.08442502317092      125.97293801753433
H          104.72266467143747      102.85661572791213      125.89205212302646
H          105.27827600983240      102.92603790044257      124.21987609424743
H          104.57176719784154      105.27364001670588      124.04327886864441
H          104.17209378081658      105.31773053819514      125.75951487242496
H          102.39394336470203      103.63562201165654      125.40823459836031
H          102.84957556802476      103.48541117131001      123.71547897327893
H          102.30136435045817      105.92450026768218      123.39257806795538
H          101.71385181755973      105.97960575737666      125.05374845433762
H          100.03111171359248      104.21699134446568      124.50365602336771
H          100.64825919629325      104.15214291972507      122.85465677759609
H          100.06400977529579      106.59757306992893      122.59815263863132
H           99.29021931167183      106.53713388672162      124.18060032112578
H           97.78196731559252      104.71489934117098      123.34217563935802
H           98.56118192217110      104.82270335202982      121.76695585985388
H           97.83695284766175      107.25330873736647      121.65494634265171
H           96.92134230752247      106.99376120041252      123.13956927841173
H           95.77696078700592      105.03230753227673      121.92065138075712
H           96.49918423793996      105.65497697271738      120.43700045749107
H           94.61244123149972      107.19712652734499      122.27168380472368
H           94.14517200791261      106.38029495478999      120.78291011409732
H           95.71254624660685      107.87176657973926      119.50672443614167
H           96.05581153417565      108.74536596251357      121.00031516823677
H           93.61894536160207      109.27531276051430      121.22411187328889
H           93.31468367807378      108.44800848054678      119.69869193460370
H           94.81843741948772      110.05805990770236      118.53269469959493
H           95.09426894911523      110.90060395342302      120.05717190886611
H           92.64088182138534      111.37168902041343      120.21792605308323
H           92.39443429949587      110.55233188401921      118.67881886051659
H           93.96057978588109      112.21334742905626      117.60484839254052
H           94.02478822883830      113.08614567870961      119.13772074501563
H           91.47949844696771      113.24677118579933      119.03366509685071
H           91.56972466447654      112.59803022398309      117.39897501307240
H           92.83029470944598      115.19347942072631      118.39086587274785
H           91.37757852338781      115.05218579415860      117.40380220105330
H           92.77825901471653      113.98027949918412      115.59227417403065
H           94.20531656703832      114.28323305199278      116.58591453269729
H           93.62519211883244      116.73638039921670      116.58625574575404
H           92.29089893293397      116.38498728178594      115.49124647600065
H           94.13764974725707      117.20487988696119      114.18848850499487
H           93.94029175881278      115.49312086245375      113.81747073987275
H           95.85090245067350      114.90762583818582      115.21421946875864
H           95.94233528439344      116.54287287973121      115.86315689773789
H           96.59827629990308      117.42244801294008      113.66784762057137
H           96.36171920458874      115.84148587095402      112.92486160922735
H           98.15084660074218      114.87546847721789      114.29814055658626
H           98.37617284412667      116.40216714548400      115.14787884979168
H           99.17409268502466      117.49043612088867      113.11368132373100
H           98.72009576548905      116.09635149301128      112.13900707783586
H          100.35993891945698      114.69419067682637      113.39365887715225
H          100.86271339628928      116.11253632434956      114.30996473515262
H          101.64019320799500      117.20288536810273      112.22391038265815
H          101.04108794732092      115.84044365883848      111.27545166269772
H          102.57742883528117      114.31653311553626      112.49052732822102
H          103.23892081114845      115.69311516059173      113.38059246299512
H          104.04289960452580      116.68943202268845      111.26522099087993
H          103.28404678829064      115.39344074271683      110.34909103195524
H          104.75829677815038      113.73095233656278      111.51135082133875
H          105.55939764429603      115.05002128996779      112.35525473048115
H          106.26154409757831      116.02083965042762      110.16889756189781
H          105.44526701370025      114.70760817786382      109.32437888880992
H          106.95088053109042      113.05722808242589      110.41929125811367
H          107.77484754168907      114.36900688629197      111.26253312041001
H          108.38051829573716      115.36865712398867      109.04268157856262
H          107.58223451892583      114.01630107526184      108.24227659277953
H          109.84638358504780      113.42891773615992      108.18136858334559
H          109.22055596206701      112.49000721813378      109.53700412162294
H          110.13282257156570      114.20330893823504      111.11263646766464
H          110.73293158884844      115.12901156063378      109.73454533604649
H          112.10181407599006      113.11314507329671      109.06091305195014
H          111.54748663145813      112.29990864495161      110.52025619289081
H          113.64170346816178      113.10655658931896      111.14521833662970
H          112.56780920652703      114.34793879237927      111.78983584287150
H          113.05898540893823      115.77795940113305      109.80180335023466
H          114.08393342874454      114.50041010626359      109.14760370458839
H          115.49838022222271      114.64513828402661      111.23606381032536
H          114.54386725194992      116.03589226525213      111.74158710078731
H          115.20998457738436      117.18338144041189      109.57202405888778
H          116.26758675233941      115.81243896104222      109.23666417305435
H          117.40647066166261      116.25453419054607      111.46841628005028
H          116.44566788712180      117.72402670139573      111.60583386826875
H          117.43038152426642      118.52788047045695      109.43617324371276
H          118.43911284105990      117.08172927833034      109.38722889195371
H          119.41038579303680      117.75761315271501      111.62361161428311
H          118.47867555630440      119.24955288692171      111.53194305100384
H          119.66078751513501      119.81670206760305      109.38914305874478
H          120.63081313573240      118.35793565338922      109.56244973070363
H          121.86292599967381      120.33730349455263      110.41193745707973
H          120.55184626570220      120.68267005605034      111.54521588780426
H          121.52298478697485      119.22722570447010      111.73934521820600
H          105.91125385348764      118.37159810840751      122.54716013273693
H          104.91883550255166      118.75043204014446      121.13851441401542
H          106.09424926615583      117.43794610277220      121.06109173954567
C           94.44809043975565      116.42746199817471      109.15436200456371
C           93.89632287411133      115.57226292586415      110.28865749368848
C           92.98042243826046      114.46758659987663      109.76439042082087
C           92.20962071075323      113.73996350905945      110.86626163154824
C           93.09568621984033      112.89772297060306      111.78016272523566
C           92.27721679318438      112.14807983579055      112.82889659020773
C           93.15190280891765      111.27388561943097      113.72347409982514
C           92.34705942796957      110.57955059120326      114.81933631075940
C           93.19454487101319      109.64954032189611      115.69009646731512
C           93.53823105195957      108.33810947307177      114.99019590081271
C           94.32410095613734      107.36014976137562      115.86352517477347
C           95.78351768080647      107.75842006150131      116.07225175278677
C           96.59995142633649      106.61577436287625      116.67368848744628
C           98.09548661256646      106.92457474447505      116.75390093417094
C           98.48115555522175      107.85445659560780      117.90397987196144
C           99.92937424818624      108.31896049021842      117.77093599421366
C          100.41940879164292      109.13467952224821      118.96600945343498
C          101.77407807557543      109.77186329800057      118.66905118822862
C          102.34100140948786      110.58646334796188      119.82913049152620
C          103.62671183019840      111.29908063383300      119.41678601306056
C          104.28139625298940      112.08203897833960      120.55146425143053