3258
 energy: -3427.643967029788 gnorm: 0.000903104983 xtb: 6.6.1 (8d0f1dd)
C          121.06878629616034      119.88933842482056      111.00736503230982
C          120.09331764866968      119.12784736684362      110.11929016804532
C          118.97469246727314      118.48224289857579      110.93237712051456
C          117.93712443995064      117.78374828405605      110.05729977554918
C          116.90239506705288      117.03411996406544      110.89219583121108
C          115.80909261374276      116.39602112240331      110.03878617630689
C          114.90598033540107      115.48700845059528      110.86871163701686
C          113.71748036330874      114.95000035234725      110.07435476272745
C          112.94277805744991      113.90042386237511      110.86853524296414
C          111.78151509570301      113.27787324192744      110.09206166351144
C          110.50834088286537      114.12129887701522      110.09105243353355
C          109.43886873225507      113.50339819798455      109.19278194441618
C          108.13997608611669      114.30828615201693      109.13640712309316
C          107.23481308313269      114.11053115586786      110.34923297539534
C          105.97606230763648      114.96885174596800      110.24331250778243
C          105.03698122970916      114.78559706230187      111.43237351827544
C          103.77296260277576      115.63216010451029      111.29606671237700
C          102.78775739708115      115.38713631149658      112.43392627502216
C          101.46586511462679      116.12432203437442      112.24094704509622
C          100.46934790214411      115.78151521481738      113.34534508249854
C           99.09309778120901      116.40066027388254      113.11816196858365
C           98.09679802530474      115.96063924574992      114.18760435932488
C           96.65945921829406      116.34568718341940      113.84662249620865
C           95.69961433403762      115.96039537766231      114.96976185105143
C           94.23686716795852      116.19603138064861      114.59863320718469
C           93.29158158050646      116.06193633324658      115.79322273901226
C           93.20465427549918      114.64177070039304      116.34969090169842
C           92.34904130762227      114.59473127247371      117.61389026661600
C           92.11495284975092      113.18098390042444      118.14607231817006
C           93.40154709466889      112.44330743901125      118.51219364360905
C           93.10962628748159      111.14295696440966      119.25720924979323
C           94.36721973165085      110.31076173043741      119.49446573982094
C           94.05892399660650      109.02426309627039      120.25545371572157
C           95.29918647154270      108.16133905449269      120.47467364315239
C           94.96657609552639      106.90676636068522      121.27885777479875
C           96.14063281185668      105.94022717144216      121.42874933745196
C           97.30627351738192      106.50281705986356      122.24233830588463
C           98.28120555221436      105.39962387298829      122.65063025293544
C           99.55090296126158      105.94035384136046      123.30317147038927
C          100.49512980569298      104.81184390444831      123.71189316254059
C          101.85107425135756      105.32719765340060      124.18796668994810
C          102.79664696488381      104.18477757157814      124.55268686430267
C          104.20626124365712      104.67298597358564      124.87740668522021
C          105.16470393124573      103.51076492238438      125.13506255365184
C          106.54150166489137      103.96059355714915      125.62614739354629
C          107.36946242765565      104.67342622289138      124.55914336126263
C          108.69078150134764      105.19006131534179      125.12339967390103
C          109.52494896111281      105.92128086273111      124.07445873294346
C          110.75733758563318      106.58286397145164      124.68555755610387
C          111.59224658603092      107.32911102640138      123.64819011729476
C          112.76096695691520      108.07439598139250      124.28745645727740
C          113.59084922100332      108.84284053897478      123.26264930256393
C          114.73681598606473      109.61067192312977      123.91616225580570
C          115.55333008554358      110.40709370978092      122.90225252010957
C          116.68102475662492      111.19381433054258      123.56441632609329
C          117.47006701545310      112.03065461196282      122.56137855043480
C          118.57207147947248      112.84381202875944      123.23506418235816
C          119.30032031433720      113.75598383029683      122.25155573970808
C          120.36996931304235      114.60328648183194      122.93665567126017
C          121.04247945551126      115.56050976738815      121.95671276929625
C          122.14991445400898      116.41112343603011      122.58065943078650
C          121.71111409190381      117.28978578036362      123.75496572281277
C          120.53946613169222      118.20832616247917      123.41677876533828
C          120.27570436503142      119.24854391659866      124.50415406874652
C          119.00284349979511      120.03987414187021      124.20953673805963
C          118.79678284605129      121.21326537590441      125.16364539545968
C          117.42106339664008      121.86750694286167      125.01989958100054
C          117.14244390740519      122.41590044186157      123.62080709652066
C          115.86250926295891      123.24991648946477      123.59255405949725
C          115.47893045202191      123.73557321881636      122.19251731775512
C          114.87088011274058      122.63953065198757      121.31835839879783
C          114.41848166011575      123.17628712019929      119.96136540969601
C          113.60545326930861      122.16428480420288      119.15206702681853
C          114.41871381066800      120.94244064429546      118.72832631047096
C          113.71734186934933      120.08934186106660      117.67054755710492
C          112.53285683308482      119.30072992440137      118.22311851046341
C          111.84843572006764      118.46560929105540      117.14378495243460
C          110.69779247058882      117.63370525996238      117.70493587614256
C          109.91336889931745      116.92525594370976      116.60450836384489
C          108.76169157153694      116.08979482199369      117.15753419347303
C          107.94194177918602      115.43842885446715      116.04722254434726
C          106.82844298666625      114.54700754237435      116.59130850295978
C          105.97915256719686      113.96456943590944      115.46553801051353
C          104.87080820573385      113.04178761162582      115.96770565573065
C          103.91716340759493      112.67679339774283      114.83385498058946
C          102.80253051239285      111.72720010031041      115.26454428506624
C          101.66490861872562      111.63903573291432      114.24479063613119
C          102.10690159749959      111.20579889339120      112.84905192722069
C          100.94320444750086      111.15687253961057      111.85914042692573
C          101.40932182314663      110.99754729507133      110.40804530462651
C          101.89999002201485      112.31400556347882      109.80778582309081
C          102.40367964730197      112.16751977736028      108.37213197667540
C          102.70920642834172      113.53179372679293      107.75187148211529
C          103.61644822695800      113.45502863467836      106.52687843201896
C          103.88044670791717      114.83793636876203      105.92767759496478
C          105.10092773811716      114.85071895714435      105.01156017090926
C          105.36433934062980      116.22405241590988      104.39523391934667
C          106.72572427449838      116.27122839503960      103.70542576071961
C          107.02903183124032      117.62169898869323      103.05953023641878
C          108.42896591704800      117.63611951724583      102.44920369191058
C          108.78368745681686      118.92667916264959      101.70977099173939
C          108.81053799465816      120.19382034684146      102.56710365227299
C          109.78644327692369      120.12723454218755      103.74031459960410
C          109.95967682605192      121.48992307671378      104.41070938950716
C          110.73334956220920      121.38856800267214      105.72277709032252
C          110.88736197877621      122.73638998412143      106.42482403558270
C          111.44226088633403      122.57755617808525      107.83940202792532
C          111.53326820325350      123.91178575900928      108.57909532557211
C          111.87636909656992      123.76814576539684      110.06439951448404
C          110.74059852768816      123.15134029868786      110.87839240990661
C          111.04248485885144      123.08964387761411      112.37463494234669
C          109.89931362918608      122.41527772424756      113.12938955921624
C          110.13395082358174      122.30015023869618      114.63471309300024
C          109.01618215481763      121.49705281243243      115.29789868147392
C          109.11132917514706      121.45112691631297      116.82113782148572
C          108.02101443944760      120.55352455911492      117.40265657007305
C          108.03979353666818      120.48311503475844      118.92741535345901
C          106.98893456659046      119.50506980326112      119.44869660616945
C          106.97211504158047      119.40987138462283      120.97188699217456
C          105.91006021184636      118.43214920395553      121.46046218898836
H          107.95394668226011      119.08705389095698      121.32584549075786
H          106.77763127674366      120.39867022482440      121.39344037188562
H          106.00253271039223      119.81710501754812      119.09670767158829
H          107.18560900596950      118.51307735177566      119.03219017625318
H          109.02978205447015      120.16870342670785      119.26848975734204
H          107.85136747522462      121.47599485795511      119.34194074680941
H          107.04447418795314      120.92004312410110      117.07704287101886
H          108.14388003275224      119.54469882973073      117.00113127779922
H          110.09213391765007      121.07230388195626      117.11540806676918
H          109.01147440291517      122.46080079479631      117.22566556218702
H          108.05184326020613      121.92728675497409      115.01602527211340
H          109.04031611568948      120.47432268393949      114.91384335171531
H          111.09371567743626      121.81172710176959      114.82188289678203
H          110.18243891662841      123.29826205785686      115.07554441616479
H          108.97695562624105      122.97555026021217      112.95653731490853
H          109.75393677277013      121.41470202673790      112.71475676090681
H          111.96607552263795      122.52929012667317      112.53492739042520
H          111.19620842544033      124.09949322324991      112.76153059652604
H          109.83087716512783      123.73631382272374      110.72165583864448
H          110.54361247706930      122.13718681963741      110.52555982576382
H          112.77576188030937      123.16001038366366      110.17449386205733
H          112.09810931971225      124.75912372409695      110.46824724603799
H          112.29334457829547      124.53082866782295      108.09644697865012
H          110.57789291257643      124.43471331081962      108.48818265864557
H          110.78901124448407      121.89844107778805      108.39036314957050
H          112.43278607388119      122.11740741881925      107.79236803303078
H          111.54361234491066      123.38477901464114      105.84083968463469
H          109.90985100743472      123.22202269908389      106.48209514633955
H          110.19894804794255      120.70547092762973      106.38801000742758
H          111.71967446256870      120.95788052909532      105.53580681880312
H          110.47684979951457      122.17020342895702      103.73047818196638
H          108.97288182900390      121.91407580334266      104.61365614904717
H          109.41851598478799      119.41629934271683      104.48212340512288
H          110.75706841280530      119.76953976998044      103.38701532306733
H          109.09515643327488      121.02921340744851      101.92158672064519
H          107.80830987482649      120.40501137113905      102.94519495193954
H          109.76873455414149      118.79579909555197      101.25430382553546
H          108.06507962358837      119.07770776432078      100.89939023221250
H          109.16669531480439      117.45212484593050      103.23253054476902
H          108.50325356589831      116.80998287164135      101.73808765126485
H          106.28987695706446      117.82897505902127      102.28208281239321
H          106.94427431585426      118.40771190929014      103.81266249030310
H          107.50089966127636      116.04862395224602      104.44315081580343
H          106.76909541308898      115.49174631632826      102.94232471445876
H          104.57727542639535      116.46069458701218      103.67571869000001
H          105.33238048455058      116.98151640151609      105.18145551494905
H          105.97739405395481      114.55370597425362      105.59506034034435
H          104.96963086464341      114.11339140169061      104.21699949583771
H          102.99971663825048      115.17448150247660      105.37621151327437
H          104.04796645841594      115.55034736000971      106.73808982403173
H          104.56773103679602      113.00458436352812      106.82476837838934
H          103.16488400111962      112.80825958883503      105.77199697941730
H          101.77422218142550      114.02516322606792      107.47644949797174
H          103.20228247879835      114.15334825996406      108.50402796898078
H          103.30913258598157      111.55787418562838      108.36937153811424
H          101.65670836971867      111.64651070571207      107.76876406079205
H          101.08299826568984      113.03868927701150      109.82804449024766
H          102.70889179350068      112.71791441940415      110.41869377421315
H          102.20851410626310      110.25471579896434      110.36525628950065
H          100.58160472469760      110.62484409268531      109.80119132890620
H          100.28584969691913      110.32596369952650      112.12802394465864
H          100.35671702823765      112.07600865785973      111.94346227882527
H          102.85860502467557      111.90235749650097      112.47904326961641
H          102.56842583248324      110.21837937613832      112.90460190130248
H          100.91839001648898      110.93214656756703      114.61535632245202
H          101.18742689155586      112.62055806496205      114.17247026489441
H          103.21419936518458      110.73315124175043      115.44840685296235
H          102.38182022021961      112.08670525325407      116.20689220485890
H          103.46712326279862      113.59614983313297      114.45726701528029
H          104.49345809510359      112.22911522482505      114.02181520172888
H          105.30515685573238      112.13927646962263      116.40155096323524
H          104.31107398752592      113.54604256309891      116.75864228226281
H          105.52641228936656      114.78648787492899      114.90416874222730
H          106.61980009217936      113.41552653231616      114.77108475325718
H          107.26085850777959      113.73699168986226      117.18242768427940
H          106.19129903263851      115.13415926971581      117.25699455767422
H          107.50069498535069      116.21866497569542      115.42171786832229
H          108.60152987793843      114.84440184665250      115.40927035665921
H          109.15753760953662      115.31683251147396      117.81990491347949
H          108.10878272115976      116.72890234248291      117.75736977811145
H          109.51670625989465      117.67400272663367      115.91351578438064
H          110.58685329286646      116.27962102164635      116.03428913114877
H          111.08888311134305      116.89499573337163      118.40781012793293
H          110.02184438870900      118.28608966403802      118.26013424130217
H          111.46725103609246      119.12833594532722      116.36283977009704
H          112.58193407716820      117.80289673482876      116.67626381652818
H          112.87900280574500      118.64348805702814      119.02371947175354
H          111.80436252141173      119.98987330073136      118.65440725894486
H          113.37757981323865      120.73251537151744      116.85483795766272
H          114.43893906488840      119.38456891265781      117.24767075933208
H          115.37135853882279      121.29082861009222      118.32081999616730
H          114.63702324836079      120.32261949542232      119.59905319643700
H          112.74180274154450      121.84980725524439      119.74104971166901
H          113.22677698962505      122.66164326294367      118.25475001525012
H          113.80202872775335      124.06458698745514      120.12360164355761
H          115.29276593544766      123.48543389395267      119.38314749790075
H          115.59846795237694      121.84168997863570      121.16592613417005
H          114.00922961739732      122.21326722593628      121.83757902254263
H          114.74799942739011      124.54230036111485      122.29108654486915
H          116.36106329080620      124.15274467151366      121.70047919823176
H          115.03926355290407      122.66065812438110      124.00362723995244
H          116.00020532963940      124.11769668682052      124.24230850999547
H          117.98311425056119      123.03435452354923      123.29715327673325
H          117.04921726814568      121.58578683743805      122.92039020942953
H          116.64737346806135      121.13907676470623      125.27488900327648
H          117.34999379852383      122.68642261279713      125.74033710179214
H          118.90808823575053      120.86150027400645      126.19259208970576
H          119.57345524171858      121.96113016606409      124.98639008929237
H          119.05913394617131      120.41542979121449      123.18765947721734
H          118.14371007192919      119.36857601504717      124.27531910777553
H          120.18169385327903      118.75068206871948      125.47226283371711
H          121.12524794606873      119.93283136973709      124.56692743299881
H          120.74775141158386      118.72299285720740      122.47586317392775
H          119.63526584695974      117.61263953154628      123.27905593830415
H          121.44595389653914      116.66256822313666      124.60807795772010
H          122.56502930559785      117.90190994761498      124.05734379291600
H          122.95328187652017      115.75367900345614      122.92364283015128
H          122.56383923760582      117.05497506058951      121.80006219401831
H          121.47652411760610      114.97908542847270      121.13982842490668
H          120.28590113788512      116.21384942745621      121.51815632674661
H          119.90439299769177      115.16920940033725      123.74535493812756
H          121.12381691133577      113.94975769295493      123.38253169616357
H          119.75829475700995      113.15275120857781      121.46580355858816
H          118.57400943771020      114.41792866783527      121.77133970479275
H          118.13373199899675      113.45104915941758      124.03106639107945
H          119.29103835333721      112.16587782362807      123.70174281548705
H          117.90842276986196      111.37740732441101      121.80525487442927
H          116.78706979242941      112.71128371265723      122.04681706660469
H          116.25872933480137      111.85346766843131      124.32643085177304
H          117.35846912600501      110.50209494488246      124.07168162355090
H          115.97175117972348      109.72716220100178      122.15820813236932
H          114.89301408019942      111.10128052597901      122.37804456573018
H          114.32942179315698      110.29377768376536      124.66612379381610
H          115.39234354616966      108.90914182056451      124.43880120025290
H          113.99418007334518      108.14573552722990      122.52614310711112
H          112.94469151398373      109.54473173863111      122.73136556814009
H          112.37470731278101      108.77353828222307      125.03404648266307
H          113.40217868720707      107.36130667010327      124.81226399372436
H          111.97160311864550      106.62156324310705      122.90893438911161
H          110.95622760198594      108.04339373045929      123.12046826549860
H          110.43726073496710      107.28502780340732      125.45991247736049
H          111.37517788704798      105.82306259854158      125.17121422506067
H          109.83298480074757      105.21923011978433      123.29754921588049
H          108.90908150351248      106.68763004452940      123.59723706628290
H          108.47948291218849      105.87265004295483      125.95061418772775
H          109.26726962661870      104.35492064047246      125.52957658390226
H          107.56599202552788      103.98735176797938      123.73280474444380
H          106.80561383608777      105.51892790064397      124.16145880744295
H          106.41275039768408      104.62527950035957      126.48404887133110
H          107.09695503824311      103.08503481928673      125.97282170176236
H          104.72212231221151      102.85792432324459      125.89172706374704
H          105.27785625486786      102.92535171518726      124.21983662343962
H          104.57186704057976      105.27502405644518      124.04326827973064
H          104.17161851993129      105.31688606762063      125.75924316993643
H          102.39410366945276      103.63726273297881      125.40794766791151
H          102.84892620185103      103.48492863390899      123.71546267438234
H          102.30152356474468      105.92635978141956      123.39301263510403
H          101.71311220637112      105.97863233385394      125.05373400818323
H          100.03142279859915      104.21854068419508      124.50325437711471
H          100.64782542656651      104.15175261611265      122.85435885171354
H          100.06405898311586      106.59921705136009      122.59828794944696
H           99.29000926914945      106.53644183414150      124.18037270808071
H           97.78204108592283      104.71685970528817      123.34236190432573
H           98.56071872072077      104.82227952440117      121.76704903373258
H           97.83716171888079      107.25490796663576      121.65503090198193
H           96.92115259612889      106.99345591408134      123.13898651335901
H           95.77763248340901      105.03361687220176      121.92055034063591
H           96.49945698469604      105.65521457732159      120.43634524170022
H           94.61388165910347      107.19819985742109      122.27107954408463
H           94.14561261521281      106.38149321861087      120.78242325030385
H           95.71321019570696      107.87307186585907      119.50632916611335
H           96.05600013156977      108.74653187962936      120.99985354210877
H           93.62007183159193      109.27634712202655      121.22390065689721
H           93.31486408840773      108.44858302088598      119.69883380046858
H           94.81947479450594      110.05881473625216      118.53269467755584
H           95.09429516660074      110.90109303395515      120.05716963265900
H           92.64244048757637      111.37291116825993      120.21780860374295
H           92.39439728587537      110.55304734133510      118.67920943200578
H           93.96161989155047      112.21396884142564      117.60467627524334
H           94.02520427342800      113.08644414205288      119.13748924488438
H           91.48119140279391      113.24726235306467      119.03424204574894
H           91.56968506073591      112.59850231894136      117.39954146296913
H           92.83153286730915      115.19338233839287      118.39070005408914
H           91.37867706544743      115.05248097515805      117.40374554453805
H           92.77854543597475      113.98019409834150      115.59246339322419
H           94.20585794608223      114.28275676994896      116.58592416317879
H           93.62653498877502      116.73573764751559      116.58612735834519
H           92.29169186328734      116.38457075867453      115.49173809924497
H           94.13832975073386      117.20433963055338      114.18851567291446
H           93.93965832000377      115.49293605155145      113.81718108073369
H           95.85115337173907      114.90722645401743      115.21455132626336
H           95.94230751933569      116.54296887048895      115.86188743770786
H           96.59852862474645      117.42162570283276      113.66809302315852
H           96.36182756242221      115.84137639355214      112.92378700512133
H           98.15146442074004      114.87529335555634      114.29858432354837
H           98.37580057625765      116.40286073977485      115.14688293320333
H           99.17394064902912      117.48990227804150      113.11377586853190
H           98.71982890701456      116.09629367486279      112.13848425612289
H          100.36031754152731      114.69440164816015      113.39392893461607
H          100.86227422343653      116.11351446060984      114.30926126403770
H          101.64065986544924      117.20283068129739      112.22472513492666
H          101.04159302126627      115.84078709532155      111.27519427625489
H          102.57806430817841      114.31698321907163      112.49125572798818
H          103.23913664601977      115.69422250110586      113.38031659651074
H          104.04352445971634      116.68950222465266      111.26617123797220
H          103.28421833028649      115.39414639119522      110.34921685771948
H          104.75867594262688      113.73120264174752      111.51157331745070
H          105.55967093185068      115.05038279718462      112.35485635143621
H          106.26163177825860      116.02056493867825      110.16892392993388
H          105.44544161687536      114.70680930705133      109.32449607727094
H          106.95056178386122      113.05723350192356      110.41912934517121
H          107.77447017073050      114.36887637292701      111.26271435577654
H          108.38047872588515      115.36800801842770      109.04242974911926
H          107.58222838401861      114.01456142686905      108.24289845976318
H          109.84606375473517      113.42828352302605      108.18210123541186
H          109.22029141061928      112.48981210504914      109.53812581061572
H          110.13268755799753      114.20294652339589      111.11280258232084
H          110.73271289334031      115.12842085850605      109.73416824671880
H          112.10135369010659      113.11341857396211      109.06113176582505
H          111.54709444059256      112.29988725878056      110.52011872775167
H          113.64089202490113      113.10622732441954      111.14514689567534
H          112.56718061128534      114.34779103525257      111.78978800961799
H          113.05843972984991      115.77754242477681      109.80256984564561
H          114.08317857016998      114.49992392235792      109.14793853452507
H          115.49751021783419      114.64443747241906      111.23615333534170
H          114.54352780221825      116.03558337365203      111.74129065928993
H          115.20970748501753      117.18243986864816      109.57262631241079
H          116.26729976499259      115.81154615791124      109.23695375567355
H          117.40578588779698      116.25382505984008      111.46875355129215
H          116.44530000661591      117.72353009934179      111.60529814955834
H          117.42983599625194      118.52711736178111      109.43714219480040
H          118.43857177707729      117.08108991489947      109.38704035669205
H          119.41003785335580      117.75684483804241      111.62385120633705
H          118.47836699671083      119.24869972879502      111.53143486357911
H          119.65994156548503      119.81584317430143      109.38985122627433
H          120.62975216418241      118.35691577812108      109.56180876318447
H          121.86278070194473      120.33511231251241      110.41213252827498
H          120.55096004369659      120.68130443864132      111.54463016956173
H          121.52164915853982      119.22575030881842      111.74007223970452
H          105.91343263445638      118.37184226642415      122.54646414558783
H          104.92089776673930      118.75114322133274      121.13815308358757
H          106.09475415276205      117.43757843546273      121.06057753463485
C           94.44779606941950      116.42557721806814      109.15326732447498
C           93.89652230325609      115.57119519276755      110.28839347395133
C           92.98013621331083      114.46669115510478      109.76428213310328
C           92.20914763184197      113.73984188238666      110.86646103709853
C           93.09545555247411      112.89766987633961      111.78035789598417
C           92.27659946542654      112.14836417821179      112.82920095989165
C           93.15179983846583      111.27430073822589      113.72368422208835
C           92.34664715834734      110.57971644137213      114.81943840561937
C           93.19453632152293      109.65054244601812      115.69076547679605
C           93.53802604512128      108.33895074028938      114.99059323259655
C           94.32369252690884      107.36069853438069      115.86410221111740
C           95.78338345023705      107.75936662441879      116.07230347570861
C           96.59960976991809      106.61650577750611      116.67417385726492
C           98.09548554110255      106.92539407479052      116.75397242080760
C           98.48070160717303      107.85544349529823      117.90448905401743
C           99.92944336111161      108.31937064822833      117.77157076890174
C          100.41889603674343      109.13540158882287      118.96705593025192
C          101.77408606151715      109.77209135952768      118.66975862021165
C          102.34070590573874      110.58714087227379      119.83002809504475
C          103.62693578425610      111.29920341499924      119.41729356672518
C          104.28116118498218      112.08257689584443      120.55232059384923