3795
 energy: -5103.682738789792 gnorm: 0.000900917366 xtb: 6.6.1 (8d0f1dd)
C          116.46111004011455      126.97593759227965      116.73248682164582
C          117.78818973966884      126.53098838966854      117.28813830712176
C          115.49820950711496      127.50664011622108      117.80070385352481
C          116.06469245475931      128.66869016269337      118.61802200838707
H          114.60331629325532      127.85085109680769      117.27946777307686
H          115.19927635819340      126.70684752810811      118.47804681854690
C          114.90557099212660      129.43795435780930      119.25794742670077
H          116.72703823182229      128.29102218756282      119.39968078750113
H          116.64730823697148      129.33360051450947      117.97891289159563
C          115.35016964755054      130.49438587584152      120.25010076546992
H          114.33312597189526      129.93507518405033      118.47247185288802
H          114.26481315251132      128.71987956851407      119.76692020710288
N          115.32503079997311      130.08630297314718      121.52223035787785
O          117.72663106634802      125.40055249971873      117.94693638425210
O          118.82736170493486      127.14732890368310      117.12147899772607
H          118.63107745541487      125.02721229060164      118.17193365039256
H          116.00176602114803      126.10964335999702      116.25414444514297
H          116.62645649352531      127.75507872071462      115.98724024700641
C          115.53332272292297      130.94152600646092      122.66759961640901
H          115.08950773456510      129.11950921257167      121.71238121782397
C          114.21793828562920      131.18179351902896      123.41809666460900
H          116.25881474358339      130.46596769280092      123.33325160406947
H          115.94400697985493      131.88699482656517      122.30652046909067
C          113.30878890080449      132.17221641891828      122.68926861083884
H          113.71178486395726      130.22218705856275      123.53748678119121
H          114.44737040596677      131.56857455228626      124.41186910108800
C          111.89303026774672      132.23045872803110      123.27343219915758
H          113.76463418175463      133.16265564145726      122.74434803546673
H          113.24275103743668      131.90309430743321      121.63314277465403
C          111.00288503949210      131.11872741110901      122.72391678887941
H          111.94429162342449      132.16113489019429      124.36216867930996
H          111.43952178299459      133.19136287730663      123.02459307757930
C          109.63034721230861      131.07082425055569      123.39314691152364
H          110.87042349854511      131.27056812967970      121.65033220798699
H          111.48349006249943      130.15105270345509      122.87570369861777
N          108.86605856810493      129.96480989018175      122.85880547640743
H          109.74742766107329      130.94869173853112      124.47791471641943
H          109.06666108960037      131.99015024344394      123.21261241987571
C          107.56006142678211      130.00478289442535      122.58971290490719
H          109.39186267288581      129.09590460596291      122.73907033360449
O          115.69376605088736      131.62521422014430      119.90932431702687
C          107.01079265494849      128.74876271641858      121.92892410608364
C          106.62245929958588      129.05624631744098      120.47935359522833
H          107.76220452370305      127.96232054753760      121.96643095854361
H          106.12774158445445      128.42181833087520      122.48167919428701
C          106.00160541116450      127.85276399550510      119.77227509861881
H          105.91467493300415      129.88748945298389      120.47775159491680
H          107.51131542593164      129.38567361251182      119.94093226542665
C          105.76582893432571      128.08479380968902      118.27127397652860
H          106.66306149235236      126.99195916684232      119.88239393616331
H          105.05669074968048      127.60695654782872      120.25611294376505
C          105.11256014855054      129.42333498614880      117.98462477296958
H          106.72494896393928      128.07395727758012      117.75013292701719
H          105.13704723404487      127.28655082234170      117.87724287117688
N          103.78151306813020      129.44506473119046      117.99688267790647
C          103.04655131337454      130.67009254734938      117.75274708570197
H          103.23759569246086      128.60368903736054      118.16512154581964
O          106.84786767473844      130.98130677841766      122.81753788056442
C          101.56077270033491      130.41346501491552      117.53309000524972
H          103.17427995136585      131.34126452259855      118.61306590080360
H          103.49353767764951      131.16795169502569      116.88683390481083
C          101.23785960667513      129.51444343206671      116.33859756929202
H          101.14809604324957      129.95345645608589      118.43278792540660
H          101.07218100697342      131.38128899800896      117.40456546073526
C          101.77095116057338      130.06811213366618      115.01974621385604
H          101.64393303690440      128.51964000914137      116.52055415925183
H          100.15142940737152      129.42412669935987      116.27827831071001
C          101.17547678835480      129.38081735847709      113.78849258491415
H          101.53077592506718      131.13223421741480      114.95679166628877
H          102.85625636302034      129.97374187316001      115.00301341730776
C          101.33058637431594      127.86272158344784      113.76689028379562
N          102.68373569377692      127.43349631131480      114.05602104108516
H          100.66976740471452      127.40269255831397      114.50923805389967
H          101.02832273861357      127.48342805735031      112.78189199109839
C          102.95809060733784      126.18143272079588      114.41136949798410
H          103.42025299366402      128.13236389243781      114.10095995799770
O          105.78335152479764      130.43138939562425      117.75357722624271
C          104.39570546850697      125.92866691406441      114.80587931826935
C          105.21666697270375      125.54448664137827      113.56961244095874
H          104.79744731763493      126.83595046949740      115.25519921519371
H          104.42194099404045      125.11824889033511      115.53609569866707
C          106.70101951191698      125.33146521822222      113.87482867218323
H          104.80571939281991      124.62654470028608      113.14445738382766
H          105.12393648231540      126.33421202834063      112.82561686501620
C          107.46568683072287      126.64014701453857      114.08513438761958
H          106.80471923676771      124.70469110063054      114.76174744547424
H          107.15157687947283      124.80030966167956      113.03549805663422
C          107.63516421871788      127.43908642468284      112.80755063143444
H          106.92163347668966      127.28470942922917      114.78032007068272
H          108.44831162407995      126.44878715763301      114.51746280974658
N          108.63100045385072      128.33433902724875      112.83233918405740
C          108.78740286067352      129.31044752976561      111.77394970603630
H          109.21545854384715      128.44898252827375      113.65864440166581
H          100.10786031508231      129.60061082062310      113.73179118576816
H          101.64356197955127      129.80295215458708      112.89682045165117
O          102.10743105503799      125.28389725654503      114.37461548288123
O          106.92527057398405      127.28323289401457      111.81670033688980
C          110.20492896019468      129.84754553284185      111.63407835072938
H          108.46349908662182      128.83661206875863      110.84266150014841
H          108.12417720068188      130.16186591391997      111.97057651852457
C          110.20073981678522      130.96792732006389      110.59663334970713
H          110.54062329183462      130.23855015843179      112.59562037773615
H          110.88832727301826      129.05083111338877      111.33649305082309
C          111.56527475975673      131.61183294099519      110.38244510932526
H          109.85164311474686      130.56488448075265      109.64403261265157
H          109.49710116906570      131.74136690227363      110.91025005444790
C          111.48398019127262      132.65407611019367      109.26897577308834
H          111.89605771735582      132.08525709258052      111.30855929428232
H          112.30134404512285      130.85132901784789      110.12293453333564
C          112.85064179301695      133.20413798129385      108.89156198983252
H          111.03087286739385      132.20817343352695      108.38155775824022
H          110.83712120235947      133.47346264254770      109.58529683255438
N          112.71717046175098      134.29891211578081      107.95083655414936
H          113.38168960717007      133.58258988028771      109.77103136848744
H          113.46988666892115      132.41051528694118      108.45556349316594
C          113.74744516894206      135.09022042035460      107.63858241131743
H          111.85424375908376      134.34717412572013      107.42178906337561
C          113.43451056020564      136.19073192954772      106.63937656459740
C          113.07556124071782      135.62444018745543      105.25937762938121
H          112.59859089127671      136.78224412695505      107.01466833844783
H          114.30818386826122      136.84070602124578      106.57410235513146
C          113.99355991262404      134.48013941086964      104.83500849265910
H          112.05383866280972      135.24097788338514      105.28656966634780
H          113.11615679910555      136.42902354808740      104.52364536821426
C          115.47535918250146      134.86400303434957      104.72687377158584
H          113.90111522234754      133.67526140881458      105.56778961877254
H          113.66234964551823      134.09114048608973      103.87085397236723
C          116.26378747407341      133.57353739987269      104.66314844336570
H          115.64902202033039      135.45015368275230      103.82463987748480
H          115.78361484341590      135.43815955336967      105.59826094507902
N          116.68937678366430      133.12246486921231      105.84649579338560
C          117.37647491891198      131.85265112069143      105.99999168924003
H          116.50875788487272      133.66164099241726      106.68081416907303
O          114.86641250842352      134.94607965484943      108.12932335241535
C          117.64395042964824      131.53187503996068      107.46493964621969
H          116.75694010364275      131.06934038596313      105.54714162349751
H          118.31755720766256      131.89062216430401      105.43948963824691
C          116.36183715692444      131.45995504082316      108.29550687459866
H          118.15895684426519      130.57062788903048      107.50693254396298
H          118.31236841109295      132.28332855317433      107.88841034797944
C          116.60149234138861      130.81433986721908      109.65949515893365
H          115.96120812981039      132.46472593241373      108.44524735772652
H          115.61452591196009      130.87398231227559      107.75571967891425
C          115.33237675361282      130.85755555944607      110.50885994667713
H          116.89896258819695      129.77406638633008      109.51466329755556
H          117.41373520410049      131.33678143112002      110.16571800213804
C          115.39941441739754      129.97746522285135      111.74751487652077
H          115.11859610773789      131.88751097332482      110.79579792497823
H          114.50085325070879      130.49081753855864      109.90632025390131
N          116.43771395712503      130.39954295821678      112.66886321281591
H          114.44121451326865      130.00270064571367      112.27711516346749
H          115.58514686867186      128.94068085573483      111.44408834313569
O          116.43413458356071      132.94953633651545      103.61796892119813
C          116.50114682535295      129.94428865378984      113.91939280429750
H          117.13081671758590      131.05384897937688      112.32194346454351
C          117.68801931898791      130.42150099998088      114.73401245667607
C          117.24863387539719      131.39931121936729      115.82613691270370
H          118.14877470348064      129.55370568083677      115.20997742067419
H          118.42397815095470      130.89211554844780      114.08259844940568
C          118.44418554045481      131.89475667179792      116.63454481908806
H          116.75042433906714      132.25649451400582      115.37153663976471
H          116.53519485729656      130.90521194213210      116.48893684326143
C          118.02274027921189      132.78255775833907      117.80729038953788
H          118.99674461845700      131.03956109497483      117.02753352844827
H          119.10683102772445      132.45478080714537      115.97311024413823
C          117.09521395561499      133.90199988642277      117.36599554915642
H          117.51991908885348      132.18503978632285      118.56697613797627
H          118.91085508552131      133.23427298444744      118.25445082712478
N          116.01150060969510      134.03354361046149      118.13417691404210
O          115.65317347150877      129.18881855462246      114.39492936167471
C          114.92069315732148      134.94146857175789      117.85690763652384
H          115.86486043524579      133.37609074397287      118.89062101218984
C          113.57999678728612      134.27335014272339      118.16209010972754
H          115.02330561219604      135.84626034216453      118.46786261313171
H          115.00225572392551      135.23891418889687      116.80829607041942
C          113.37834704977513      132.94027617187362      117.43879409756521
H          113.52790800937272      134.08715204019117      119.23628554330361
H          112.77436076039253      134.96264552611800      117.90681382990918
C          113.12190742372226      133.10155707801667      115.94055843891250
H          114.26432538147202      132.32288181010071      117.59449778034477
H          112.52930308560381      132.43797723546925      117.90556043023705
C          113.37008095099274      131.82209586656123      115.14293050217337
H          112.08907283214270      133.42444974964079      115.79690486228567
H          113.77882476981458      133.87545434354735      115.54405921991815
C          112.52973100463214      130.65043018803507      115.63476454606247
H          113.14380227346184      132.00076433765767      114.08869015438540
H          114.42356180512985      131.54804898882915      115.21930288483499
N          112.78019419133341      129.46669140186697      114.84494894385330
H          112.75531774594926      130.44619864010991      116.68600293779343
H          111.46511581530157      130.88354306901087      115.55839855863695
C          111.82496632496131      128.59650805991484      114.51194616069706
H          113.75365728788769      129.26445996236782      114.62642498130866
O          117.32623273323165      134.62201225886659      116.39433164763453
C          112.32064669341732      127.40194241319804      113.72542381234348
C          113.14022162546821      126.47011929478930      114.62551482215449
H          111.46561730352212      126.86806879609280      113.31148447196709
H          112.94271890282396      127.76490404560886      112.90795348564281
C          113.81068602711321      125.33995292442988      113.84501233123314
H          113.91218343181063      127.04988003215436      115.13197605439248
H          112.48509977981136      126.04217740405062      115.38687521466150
C          114.97349969153393      125.84519340015518      112.98682138772305
H          114.19556766140009      124.60222605386247      114.55287489380962
H          113.07670769205082      124.84472615686522      113.21067981255855
C          115.65148443418848      124.70050122388915      112.26643927408985
H          114.62339540411018      126.57834299400189      112.26310883087524
H          115.71450436197954      126.32376545951603      113.62944322666752
N          115.16831282901637      124.30926023957666      111.08943389009920
C          114.08470558776061      124.84832866841379      110.29515689801352
H          115.76222767101309      123.65022152387625      110.58932007230621
O          110.64014011692652      128.75910641036222      114.81073509109126
C          114.38173301085283      124.62995592262097      108.81370879890964
H          113.15161324496229      124.34140568914340      110.56577176010236
H          113.96998875650989      125.91901347455874      110.46980991266423
C          114.29115283252280      123.16312503427419      108.40405687231166
H          113.69725316348914      125.23480455056838      108.21941011185567
H          115.39554058327273      124.98536936033940      108.62625879308814
C          115.01367084934959      122.89793042982252      107.08758613987958
H          114.77393445673769      122.55418552240521      109.16821332657477
H          113.24763530003952      122.85624549840591      108.32668963759940
C          115.08421321170965      121.40221385957221      106.79266967961972
H          114.51365000840920      123.41890790769803      106.26877658045106
H          116.02537623645347      123.29608303988284      107.17556518577545
C          115.83273724550946      121.08115732808183      105.50831219430727
H          115.56841184045328      120.88594109713456      107.62405550869154
H          114.07587382649005      120.99987787183311      106.70192635986116
N          117.21729696985487      121.50075984878967      105.59482087529624
H          115.78409250321728      120.00344480466106      105.31034460088719
H          115.38253868521178      121.60139631179908      104.65870022830917
C          118.03091267821668      121.58246073797564      104.53911114859103
H          117.56370284139862      121.71768524495641      106.51619441303920
O          116.61377912553182      124.11075636923547      112.77051087669733
C          119.42073058272955      122.10392100892963      104.85712798112381
C          119.39198699940877      123.61360088593780      105.14343620942415
H          119.80295938073556      121.57590535808569      105.73316226023907
H          120.07452244388995      121.88496547809669      104.01293771110259
C          120.59344692942452      124.08964873421355      105.96048200158383
H          119.35086366014329      124.16341038753296      104.20246053811613
H          118.48759087652535      123.85218847431692      105.70665859071212
C          121.92481474034102      123.99745790097587      105.21259919040826
H          120.44399815552622      125.13641325023569      106.23316123240473
H          120.65018715542421      123.50897551465182      106.88383117837387
C          122.14704726889671      125.18132115814234      104.29020528334543
H          122.74697538234344      124.03219372450803      105.93539454075250
H          122.01373326171709      123.06651234990851      104.65510239643316
N          122.67151976445646      124.87650340478463      103.09974173141678
O          117.67182854696109      121.27319328653168      103.40540429982674
C          123.13837326618197      125.85856411592881      102.14500167500981
H          122.92980372161739      123.91393964233049      102.90184580016613
C          122.74885228783626      125.49319060624188      100.71443850287451
H          122.70967153879867      126.82231422728876      102.42268735374245
H          124.23081795788013      125.93399584505255      102.21575073177326
C          121.26397905693328      125.70800231875231      100.42864437522115
H          123.33724198591659      126.10990954451356      100.03323509483731
H          123.01519921318955      124.44948757657325      100.53629251069015
C          120.92863205419110      125.38325279281646       98.97411983330061
H          120.67108760889690      125.07710995825397      101.09267109268605
H          121.00753739636887      126.74893615539187      100.63548710157224
C          119.46081576013007      125.64173978593949       98.64442181902805
H          121.55677053398308      125.98631083102931       98.31568401662113
H          121.16009195489497      124.33457125554510       98.77926182436430
C          119.12539884402153      125.21006476955647       97.22122381134548
H          118.83172730998115      125.07809091350457       99.33408629995350
H          119.23885017766146      126.70379644999527       98.76044465381565
N          117.72059771258220      125.39173112623587       96.92398529830855
H          119.69011629374739      125.79082952881529       96.48746446937395
H          119.38651512868897      124.15240473270055       97.08959438141950
C          117.26609083973948      125.84723471534956       95.75028164618520
H          117.05770076172371      125.16411160527331       97.65607405132363
O          121.87282901705468      126.33131930418868      104.63441273710242
C          115.75585178173174      125.79133768482917       95.61112501032574
C          115.40102723924709      124.46051043198324       94.93594717154780
H          115.29639941593648      125.86457715818723       96.59440145899181
H          115.42288019439432      126.61919885239935       94.98475167925298
C          113.89863264070738      124.24239741032147       94.75969482826784
H          115.87678551874795      124.44401948486410       93.95259505571377
H          115.82234222747448      123.63812448875737       95.51741176994796
C          113.15233469262616      123.99096952801567       96.07645142501785
H          113.46140259106006      125.11201530691902       94.26600686710096
H          113.74723722930521      123.37607791589298       94.11194862133863
C          113.65754915343803      122.71503978466855       96.72842070500813
H          113.27778201005685      124.83584778679939       96.75075710716071
H          112.09199673427918      123.86872322193673       95.84864970996354
N          114.53466843813179      122.89839109628998       97.71400860492392
C          115.26137554186708      121.83551776423961       98.37977068128495
H          114.78628865002369      123.84017289081639       98.01158144003898
O          118.00023398705807      126.21871706762315       94.83777072761688
C          116.68642526721980      122.30777159711788       98.65299989333090
H          114.76173840594572      121.58271672822389       99.32045307000514
H          115.23978794735467      120.95367399055331       97.73513705638980
C          117.50450564433845      121.35775664284341       99.52392343162657
H          117.19935390134738      122.45729417390156       97.70062296597035
H          116.62289855376180      123.27623159870518       99.15264593074383
C          118.87000936365983      121.97335162064563       99.82151647942267
H          116.98579697753598      121.16880669962961      100.46495079334083
H          117.63393716855336      120.40141080401355       99.01459891544880
C          119.76091182806005      121.07176560455046      100.67016643753749
H          119.37551217281995      122.19001642858591       98.87807830249537
H          118.72622700040073      122.91779735999820      100.34899452952399
C          121.12106494385812      121.72370305976089      100.90306392509923
H          119.27085845051079      120.87622530117596      101.62471864734398
H          119.91253905919162      120.11695573083500      100.16249141929400
N          122.11511403626960      120.74501371534150      101.29207887573442
H          121.45558694912899      122.20638828957428       99.97496440638621
H          121.06849371005028      122.49516432801128      101.67653994272654
C          123.20294452856987      121.02661082862033      102.00730005100279
H          121.95479031961877      119.79515363852722      100.96097393640790
O          113.27856415653115      121.60001260105408       96.36135349988699
C          124.19014122868175      119.88551004465874      102.17266755027180
C          123.94532383518474      119.10501739257431      103.46863447829935
H          124.13623132416033      119.21598207674730      101.31507099846452
H          125.18651739806842      120.32922402034266      102.21245209390345
C          122.69292209562798      118.23194030503662      103.43685102789799
H          124.81331827400922      118.47227160829551      103.66391187867809
H          123.86292496608056      119.82101421686627      104.28953149848678
C          122.82650669224383      117.01071594215719      102.52287544304639
H          122.49803054105264      117.87449208817957      104.44993127216789
H          121.83608341644928      118.82938063498710      103.11840546953700
C          122.55507349333995      117.29340028724720      101.05720224665610
H          123.81397940688117      116.56445678588754      102.62935154920028
H          122.08614205383608      116.26503702955900      102.82864253189611
N          123.34610805805876      116.64423760050940      100.20279060713295
O          123.41572256552622      122.13543908149070      102.50253400914183
C          123.18163209872149      116.73114272706712       98.76374572484477
H          124.10934466926398      116.06809605912450      100.56072012466370
C          124.01244982511547      115.65255539006357       98.08096349817954
H          122.11625165177817      116.61876480090820       98.54090617435219
H          123.48560561869250      117.72566353382916       98.41382160395455
C          123.76687954603118      115.54371863717786       96.57443842668516
H          125.06864567096291      115.87309427154071       98.24912370107151
H          123.80061538976798      114.69502070388228       98.55570173249714
C          122.34169688640797      115.13863268663930       96.18061930146320
H          124.00161170205160      116.49974889502461       96.10256543151438
H          124.46284612260955      114.80164162621881       96.17771039517666
C          121.85491563355966      113.90231860909603       96.93182330966849
H          121.65512207928641      115.96602460823098       96.36634406786594
H          122.32682614249858      114.94104546741737       95.10667394445422
C          120.51628933287913      113.36888058082823       96.41719561202648
H          122.60789498538645      113.11429771505033       96.86094365091022
H          121.71785850390019      114.15742070921068       97.98282743848802
N          119.93209046552637      112.50620667642669       97.44355244159571
H          119.82996505575355      114.20145420092680       96.24819776607492
H          120.65765092268710      112.85506227709580       95.45552093049587
H          119.00764152803252      112.16915111874681       97.18340207193313
H          120.51336743919910      111.68262335346790       97.56381531910360
O          121.64495174049081      118.03513111121678      100.67672360189127
C          128.83766047095784      101.82819034740497      107.71280139077382
C          127.60037802237942      102.51025611693169      107.17830806250197
C          129.11777389760866      100.49466938053388      107.02484154922378
C          127.92588083606159       99.54801423967109      107.15773085873928
H          129.33537809730686      100.66825534485844      105.97048166863104
H          129.99745581713518      100.03991225057527      107.48412213948652
C          128.30054766920551       98.12154939474513      106.75468013458519
H          127.57180423343654       99.55323280851329      108.18920194407285
H          127.11219549332806       99.90199247740387      106.52067935520736
C          127.08499455027672       97.21878685936591      106.65919547239912
H          128.78873755315348       98.12069486048293      105.77873886938471
H          128.99013770353017       97.70167971869560      107.48922438105691
N          126.37384636529677       97.11207677994301      107.78812944002117
O          127.55455336895449      102.57911245818893      105.87943627545343
O          126.72959205708177      102.94908241512425      107.91239634531463
H          126.71596216640991      103.10365443090478      105.52018080694413
H          128.70893102618103      101.68403565798326      108.78578781953054
H          129.66182468274579      102.52255169935316      107.54096030379455
C          125.16029515074362       96.33284428445451      107.87493668278152
H          126.63363812539434       97.65746240217810      108.60545408563492
C          123.93505734665820       97.19582456186289      108.17661549649750
H          125.03951014424212       95.82538295357584      106.91467082719963
H          125.27823180311246       95.57595209863727      108.65848586007355
C          122.65624487718924       96.35019265757668      108.18120109450888
H          124.07738714505163       97.68400052805258      109.14151254124168
H          123.85703481600150       97.98046038342154      107.42269558779608
C          121.93773750280990       96.41516247090689      106.83391784719905
H          122.91232617535103       95.31376629980011      108.40899483393969
H          121.98356169713446       96.70329802419703      108.96225516121444
C          120.87005387513020       95.33686176987989      106.63893997282278
H          121.47499305701713       97.39910423897518      106.73617269881458
H          122.67061355792919       96.31483227084375      106.03028207441722
C          119.90168893637845       95.19533746976037      107.81355677821028
H          120.29919625451194       95.57330020183829      105.73860206488195
H          121.35016760752525       94.36857720631819      106.48910658171998
N          119.29538985591569       96.45237945181837      108.19160937226084
H          119.11387949788889       94.48442776879352      107.53994827072937
H          120.41952868121770       94.81526692592824      108.69639997993194