3795
 energy: -5103.664041596318 gnorm: 0.000896754683 xtb: 6.6.1 (8d0f1dd)
C          108.83341784700892      119.21541295812753      125.45880107193641
C          107.52824892734542      119.84588031192112      125.86969231957215
C          109.84582911280887      119.36313129122263      126.59997270250344
C          111.17881643767383      118.67307203311525      126.32683472800777
H          110.02942924912250      120.42606987484575      126.77291343548794
H          109.40175251442187      118.94959289198056      127.50705515213309
C          111.08866064183132      117.14444328436609      126.34230615082529
H          111.57594106738998      119.00691697844722      125.36689456789375
H          111.88108987704025      118.98643188179872      127.10296275724228
C          112.46187638720852      116.52667645572286      126.55565698593054
H          110.42817916402403      116.81227040980509      127.14204846597684
H          110.69172613541042      116.77674339041634      125.39459781533083
N          112.47703488501432      115.43584248485341      127.31327445460246
O          107.02636764837739      119.29682600807725      126.95124293573049
O          107.00281111935254      120.78076071169718      125.29301970113173
H          106.17452336237727      119.74011209032334      127.24759105803848
H          109.19372249980329      119.68562735798960      124.54519538924932
H          108.64556798118683      118.15774490309101      125.27191845159662
C          113.70086856381789      114.78836991724994      127.74196981766137
H          111.60103229255822      115.04691211352132      127.64861235689661
C          113.43584114548609      113.46235798674159      128.44022538125216
H          114.34716560891299      114.63530018720394      126.87179771862183
H          114.22852571320550      115.45417335464617      128.43249799057455
C          112.57268481835948      113.61747097715281      129.69225916550678
H          112.96384600421817      112.77402649245083      127.73831877348387
H          114.40684938051821      113.05883790418093      128.73303283643273
C          112.54835244604523      112.36463666284625      130.57026576700576
H          112.97067794471606      114.44003362748929      130.28936604699950
H          111.54981615175981      113.86461376606486      129.40785423617967
C          112.01281854111961      111.11270978857534      129.85888706616396
H          113.55635915272279      112.16857572932453      130.94067672256267
H          111.92119461600068      112.58004312469404      131.43667089907009
C          113.14231827822441      110.21863345985051      129.36749542505839
H          111.38737791309686      110.53272528354174      130.53973254323000
H          111.38796081372637      111.40698464611251      129.01440644299274
N          112.65089521880458      109.11255383201289      128.56772566411331
H          113.85192307044839      110.79330046679308      128.76343495645932
H          113.69801493618959      109.81003289719239      130.22000569213378
C          113.47691634244831      108.15245265948435      128.15139730497759
H          111.66982678730612      109.10363729536343      128.31307461888525
O          113.48392833991829      117.01768607074557      126.06948467323645
C          112.86891617013499      107.09728645709605      127.25121945426945
C          113.69465120827523      106.96122070225486      125.96722250654315
H          112.88229569208085      106.14487154507745      127.78628013077834
H          111.83806553842982      107.36090744758808      127.02448728193630
C          113.84401876460360      108.27864982845544      125.20702819380507
H          114.69064079797637      106.59526413308829      126.22644342931930
H          113.21799490135953      106.22850090936782      125.31471114349674
C          112.48548887568082      108.86559511207601      124.81975390091070
H          114.39770874496826      108.99695571447687      125.81523630948664
H          114.42828520487053      108.09252205320848      124.30300336233888
C          112.60947441098497      109.91855118054613      123.73744543777708
H          111.84594734097456      108.06503531688486      124.45562182988331
H          112.01695394087260      109.33204526306734      125.68874897682691
N          111.98448856791440      109.59976313192675      122.60365720360404
C          111.84255074734641      110.47910501731501      121.46451185677037
H          111.52821840250536      108.69659372152810      122.54474967825141
O          114.66687470908710      108.13316468895154      128.46662086666723
C          111.64788471255656      109.69033053376704      120.17337159410502
H          110.97105576177816      111.12877777569150      121.62134590375746
H          112.73117819461834      111.11167030364804      121.41656518039302
C          112.92886376616364      109.04782186467934      119.64289397000890
H          110.89763388971885      108.91743868815432      120.35165479708135
H          111.25425262729154      110.37327387525393      119.41863937129193
C          112.67568076382021      108.33912706425120      118.31116356612111
H          113.67873857093826      109.82619458678612      119.50413329710821
H          113.31825132016452      108.34287311263803      120.37903634952545
C          113.95066515249007      107.88123791137561      117.59744234526380
H          112.03547964338657      107.47448317496770      118.49024684155188
H          112.14159232813240      109.02345824855401      117.64888411838129
C          114.67761729948218      109.04511306656997      116.93689357080267
N          115.96944931721994      108.65289285449725      116.40293415449206
H          114.06418176715763      109.46330567461241      116.12886077733640
H          114.85922089059123      109.84662380582212      117.65869663633288
C          116.90477270030102      109.56340997609648      116.11628454565184
H          116.15415351949042      107.66497593111197      116.26098724789757
O          113.21723355257207      110.97839572672736      123.89888823261913
C          118.18866714428367      109.01452305730446      115.52209054539897
C          118.24915496822643      109.37142697443068      114.03429795818377
H          119.03982791018987      109.46705173842891      116.03490437470909
H          118.22682620840872      107.93590514933591      115.66128629347006
C          119.51997835677906      108.86032328568406      113.36020886083887
H          117.37861498460529      108.95042810366863      113.53281669718490
H          118.18795207155016      110.45739383035190      113.93462224947804
C          119.60060883597909      109.29400698856597      111.89151065865002
H          120.39260512621823      109.24400118667781      113.89071103009563
H          119.54757543314258      107.77214696221141      113.41856968266733
C          118.47430325933217      108.69381973793698      111.07233656428545
H          119.52680697316187      110.37948217574450      111.83519613337029
H          120.55025258157406      108.97031305928120      111.46458230056218
N          118.65068721986459      107.40585392744021      110.76013665901611
C          117.75128341162085      106.65393903503561      109.90886003154218
H          119.58037503289613      107.01857995068818      110.87245167000114
H          114.61835547748169      107.39214072564221      118.30627562301315
H          113.69104703579332      107.15207680710881      116.82879719458813
O          116.73436515081784      110.76671144068938      116.30330179840671
O          117.47189948731773      109.33551736390088      110.75581291348810
C          118.48031333340094      106.14883911732188      108.66387029698569
H          117.34114317128943      105.80929866405114      110.47409071687696
H          116.93201370836010      107.31930526056929      109.62361724839117
C          117.51960778855745      105.71666056848447      107.56254381617586
H          119.11535683733369      106.95183291316394      108.28609621657789
H          119.12744597141406      105.31558507079566      108.94066942790977
C          118.25342447781927      105.13150680196414      106.35133410969976
H          116.82288970413727      104.97921285164809      107.95819333845192
H          116.93219629283725      106.58077058621362      107.25204943559373
C          118.49000630604046      103.62612900821560      106.46940976410174
H          117.66801467746858      105.32095392679318      105.45045960263582
H          119.21402824044668      105.63595741940549      106.23247232793852
C          119.25465924666372      103.08337153663157      105.25750853888594
H          119.04569597531915      103.39620684752566      107.38027386558169
H          117.52793486657616      103.11043912103625      106.52964647460340
N          119.18774098591902      101.64044316947319      105.16654588107029
H          118.82169356232143      103.49520051698443      104.34446516078870
H          120.30570450092348      103.38077760463976      105.32106392232041
C          118.38616186504599      100.96235502294147      104.34138235639568
H          119.68100114509001      101.10656846659730      105.88039632525275
C          118.44903362271359       99.45499992231345      104.48898895851589
C          117.12057938473519       98.90086423478100      105.01206743970852
H          118.64193582754554       99.03216913049339      103.50101166620165
H          119.25505472170970       99.17757574680073      105.16484787789429
C          116.80873108416742       99.37229354881273      106.43050148088849
H          116.31547936082221       99.20568262681593      104.33908528567278
H          117.17105805834905       97.81019176278143      104.99914491113078
C          115.58916730510124       98.64029476756046      106.98945365190455
H          117.67068306128563       99.19393084416477      107.07607083701033
H          116.61810825249296      100.44817979307065      106.42641281608167
C          115.28298090686306       99.00293693262989      108.42804054721007
H          114.71352916094814       98.82676165534562      106.36773626221212
H          115.78845524426724       97.56478780980086      106.97686114307731
N          113.98070854561205       99.16649852815944      108.69669135245785
C          113.45729303521584       99.31093706734698      110.04066418810692
H          113.31681419481706       99.06964107820558      107.93771014299998
O          117.66250265947454      101.48997634979997      103.49589044894527
C          112.34584056975501      100.35048446670542      110.15084290484711
H          113.07763886502937       98.33886743572050      110.38081058285046
H          114.29478233851003       99.59062595870259      110.68255871538074
C          111.89966812295667      100.47183429802212      111.60853831935906
H          112.69853241352587      101.31051131874500      109.77602459402412
H          111.50261682829357      100.03471738517948      109.53592610495411
C          110.61717584656105      101.27842676733688      111.80414948307580
H          111.72623570852737       99.46386139733737      111.99318331588441
H          112.70323054859206      100.91380230386139      112.19958790399352
C          110.77230047013828      102.79440975924965      111.65718918833977
H          109.85962832408309      100.92498774590008      111.10559713591651
H          110.23903743386258      101.08083014638883      112.80710286917808
C          109.61885484369573      103.47558037283954      112.38240108680461
H          111.71679907988100      103.11701401062126      112.09261010195985
H          110.76538630918294      103.08889868775526      110.60700519859755
N          109.50845005191735      104.88867292442549      112.07795926660235
H          108.67549507078311      102.97638800149636      112.12887947348131
H          109.73635920776253      103.37044587621600      113.46542850679602
O          116.15827282782929       99.11769527745906      109.28513581579647
C          108.65914973902879      105.66063910348646      112.75405003188490
H          109.94856627464205      105.24186954024603      111.23290610187063
C          108.55228194162770      107.09609649487288      112.28429072427868
C          109.69344006140078      107.95557150668830      112.83704923986571
H          108.57563368001476      107.11775668537472      111.19506981934443
H          107.59447187806707      107.48993129457368      112.63024809756737
C          109.71211516422484      107.97363876661029      114.36359956575808
H          110.63885711235042      107.56877750669359      112.45631240481318
H          109.57173629544070      108.97725698388948      112.46951539003382
C          110.67181408566967      109.02944795037600      114.91471050270476
H          108.70807587554202      108.19931904500933      114.73061519715809
H          109.99000988245099      106.98833165523037      114.73976057883290
C          110.11892518685853      110.42776517015396      114.70270676311658
H          110.76332910373841      108.88358452378901      115.99273724139968
H          111.65982729543720      108.94067467747132      114.46902692825864
N          110.96870084894032      111.31072523912522      114.17399843210725
O          108.00089402740812      105.23952102869454      113.70767393487091
C          110.64621217231836      112.70948548445305      113.99258149980189
H          111.91605091752366      111.02825437965961      113.93758822717302
C          110.84085389232501      113.20149562932818      112.56126589153997
H          109.60279113652366      112.82792469069790      114.28653266981553
H          111.27444336746066      113.30766929697934      114.65979782708222
C          110.01853461611059      112.39600384749600      111.56085456324246
H          110.54309193462450      114.24870920751349      112.53124865456633
H          111.89519115804754      113.16683576104930      112.29037787056750
C          109.90147034308339      113.06995553831410      110.19238656912204
H          110.48612872255306      111.41736574487841      111.42713058527426
H          109.02790025866388      112.21949810800629      111.97892777645120
C          109.07287584748356      114.35779187346779      110.16065041898047
H          110.90541768186569      113.31166982952112      109.83821522513792
H          109.45544602996482      112.36191695792533      109.48913977745933
C          107.67674294926358      114.20394194506314      110.75018050211857
H          109.60145356847383      115.15213486318152      110.68870309233257
H          108.96262660076395      114.65587206624140      109.11624546651707
N          106.85049427274068      115.35550240459463      110.45025574323584
H          107.17634637691769      113.32904719323858      110.32654744311741
H          107.73996776755160      114.08062114384225      111.83744841216941
C          105.52257012617756      115.28249246322913      110.36405517787173
H          107.31368678652615      116.25860307422025      110.38143793575581
O          108.96519504581590      110.70778927315111      115.02932447890024
C          104.83734068417776      116.59495853766545      110.03831465256604
C          104.63674995019430      117.42601503435704      111.30845921982004
H          105.45309942105743      117.15737260922155      109.33833525196376
H          103.87219042218800      116.38284376317981      109.57624146213240
C          103.97399407928535      118.76676375884061      111.00279432493076
H          104.01964432336204      116.87203368857291      112.01680394108911
H          105.60643919016729      117.60294176816835      111.77469386140089
C          103.97416762899411      119.68364137672259      112.22829645453461
H          104.51247204049002      119.26117075430089      110.19233536514852
H          102.94462410530657      118.60447973788213      110.67855868568836
C          103.12768554548492      119.10170949090698      113.34617231624101
H          104.99405611837639      119.84111758536815      112.57701362013937
H          103.54022391753443      120.64713887418412      111.94996756048779
N          103.76961787268168      118.89820208469219      114.49919195761142
C          103.11378750061546      118.37938532042139      115.67815064957053
H          104.73926380658014      119.19719744934568      114.60926295687322
O          104.89238978368547      114.23838727242821      110.54534953478384
C          103.81068675666252      117.13603345159123      116.22717552489054
H          103.09374809563866      119.15408284260339      116.45314636883596
H          102.08275250755410      118.14672615454006      115.40084029433690
C          103.12911163322161      116.67070350450378      117.51042061229114
H          103.77580130480656      116.33674434846414      115.48476248578460
H          104.85810173625534      117.36760369889549      116.42643042657943
C          103.75631765257772      115.39602088943184      118.06953147592073
H          103.19041271807687      117.47090827734715      118.24863512896837
H          102.07279721658979      116.48648831612290      117.30346690264992
C          103.03795260004873      114.89233979638485      119.32085465938546
H          103.70741571534964      114.61920289393626      117.30379843644839
H          104.80751019222197      115.57462687016147      118.30075190572653
C          103.21346283263516      115.82421826044701      120.51799695819845
H          101.97292459119757      114.77931179182232      119.10986409643877
H          103.43138425443880      113.91173405159789      119.59363503084688
N          102.50748054566141      115.31876222539530      121.67534346019112
H          104.27872400155272      115.92189248428906      120.74794294250147
H          102.80542673763082      116.81495430343908      120.31109342092513
C          101.62338413496875      116.04189407173324      122.36964759794562
H          102.68490964422041      114.34974635529497      121.93475891325406
O          101.93695359562429      118.83806776732531      113.18823558070412
C          100.91948810793319      115.27196710780484      123.46997863141736
C           99.90404502169103      114.28005639527669      122.89480340587590
H          101.66410382334108      114.72467512481789      124.04914423375577
H          100.41526620638668      115.98078797402040      124.12773951068169
C           98.76186521001870      114.98615104956946      122.16792103531121
H          100.41303865620084      113.59694300061523      122.21125532644876
H           99.49486502397406      113.68444978358887      123.71191499288739
C           97.75218031674262      113.98988856994940      121.58977229093722
H           98.24249105110096      115.64073664699276      122.87042373452894
H           99.17177222856769      115.62099242476243      121.37968192352064
C           98.36966806298577      113.03912201956771      120.57971390065730
H           97.32920083555074      113.38775165824698      122.39494289128054
H           96.93930274390677      114.53138370896646      121.10199830159516
N           98.89884623331142      113.63177247508854      119.50284817450159
O          101.40853775708290      117.23276484494764      122.14379597595939
C           99.56329476230314      112.89831650632722      118.44646979748354
H           98.90612889706698      114.63781896790790      119.44180113225084
C           99.57844126284267      113.66824795965404      117.13346163341082
H          100.59605631642299      112.67897428313206      118.74451661552871
H           99.05061235768714      111.94139115423204      118.33924782376637
C           98.19676055560694      113.94481525273575      116.53625034451056
H          100.08043195820410      114.62615032820418      117.29464854029332
H          100.18643743262018      113.10039351408464      116.42955575245077
C           97.32449813751761      112.70891713214340      116.28670052194438
H           97.64036097033481      114.61202001887854      117.19807318925436
H           98.34471595336514      114.47982227099369      115.59644508058503
C           98.03383426726117      111.53469571008173      115.61054101488526
H           96.93524359870392      112.34980813370949      117.24131149535536
H           96.46852965344065      113.01435426030547      115.68150729557070
C           98.63148015048158      111.85533242308141      114.23992592972016
H           98.84113587436032      111.19737857404698      116.25672690908154
H           97.32696094720018      110.70958645344800      115.51831886083060
N           99.93098737372941      111.22776888317607      114.09750330547961
H           97.99715133041587      111.49890629889234      113.42440312809090
H           98.75106411243365      112.93672591701583      114.12077243483299
C          100.46666105027924      110.88198027451232      112.93483098943510
H          100.46538365406298      111.10890609275087      114.94931920230319
O           98.36549282901484      111.82106725836020      120.72705149234626
C          101.86693479340708      110.30799703950957      112.99782640371832
C          101.91969813391208      108.80306546109982      112.69934169701256
H          102.48710441518098      110.84887461669450      112.28176029146678
H          102.26562507446791      110.48228247295353      113.99687899544529
C          101.31717014118271      108.35977730637508      111.36380867899763
H          102.96435973754684      108.48418607539891      112.74929341888553
H          101.38661244370915      108.28777088583880      113.50098768142851
C          102.21447415561549      108.44600139069293      110.13105472453715
H          101.05022786453024      107.30517278783813      111.45961579335098
H          100.38746255238004      108.89218869806822      111.17992117707487
C          102.53102580015300      109.78748551344120      109.51350412989576
H          103.16660900579282      107.94212207373651      110.31893862584727
H          101.70961902679599      107.87551852541019      109.34388527220713
N          101.84687988718254      110.85275151548804      109.90776873096338
C          102.14642936534898      112.17524618676751      109.40523377744532
H          101.09601216354775      110.78867436322298      110.59658547502738
O           99.86975411507778      111.03417927227649      111.86124958417382
C          100.93570604105443      113.09279901797798      109.44272582382349
H          102.95988936410097      112.61510459119491      109.99736425490856
H          102.49985158135506      112.07200309426607      108.37717154532731
C          101.32738419039572      114.47584001046071      108.93170226133368
H          100.13543593872036      112.67017374336159      108.83369578748193
H          100.56492364621926      113.15959193195717      110.46649346539228
C          100.14073601074185      115.43224663517729      108.87524676932273
H          102.09559507475420      114.87834021604245      109.59534440072308
H          101.76549110940060      114.38284156259006      107.93735221535098
C          100.56903241964628      116.89226827019756      108.73915495890695
H           99.50066493703034      115.15881995624085      108.03649949790240
H           99.54617156427453      115.32856980040067      109.78397983137509
C          101.00356162292348      117.26280302034161      107.32146114799684
H           99.73188612270212      117.52855426564697      109.03475074471189
H          101.39524506549176      117.09419509330840      109.42357104561907
N           99.85138179121969      117.37284339236521      106.45565685919037
H          101.49447910492508      118.24039829829822      107.31563074418405
H          101.70225108359226      116.51965261447666      106.93003048415829
C           99.60174406761932      118.40939449298963      105.65493975379012
H           99.11548934926810      116.68857632001379      106.57863281194821
O          103.38823704796033      109.86309786946775      108.61734614554250
C           98.17830470028660      118.46197564423888      105.14396065033417
C           97.35628052708491      119.37820757734144      106.06524847669553
H           98.16807119834588      118.88017403745157      104.13669987571939
H           97.74669936939299      117.46369847661826      105.13030777507602
C           97.37897773533763      119.02016993192697      107.55599494817079
H           97.75556233924229      120.39082291473542      105.96397475433115
H           96.32361648773013      119.39144973603038      105.71162064789613
C           96.44489281404046      117.89505422820767      108.02533079826507
H           98.39939944020811      118.80319049457151      107.86802337160564
H           97.06397325541820      119.91618532802313      108.09702601149401
C           96.84695677045966      116.44651069029801      107.78822448639903
H           96.29392756048819      118.01435102366197      109.09904790779224
H           95.47502725943973      118.01883324504780      107.53427874843685
N           96.64164110583020      115.65209568756649      108.84299961957858
O          100.43441883227440      119.27972445251835      105.39687749719494
C           96.70369239614824      114.20316989536012      108.76457386687737
H           96.49839971264726      116.06202234572976      109.75689052545988
C           96.83194633480267      113.56990684377415      110.14635754871875
H           95.78238658654901      113.84745453919307      108.28558866726927
H           97.53766173425328      113.92502669997080      108.11582623474477
C           96.36977164024776      112.11175419747461      110.16888003565195
H           97.86606820214284      113.62581066170762      110.48792325578613
H           96.21455289166012      114.14226119063463      110.84270223718643
C           97.32335083593087      111.16885992785873      109.43642415668840
H           96.28347470029991      111.79587889915450      111.20942939727271
H           95.37788608943794      112.03955062454079      109.71780242538551
C           96.72359292677058      109.77984921435778      109.20673771201545
H           97.56534507991053      111.59451073026371      108.46173098495119
H           98.25271760182504      111.08877769842002      110.00354790331967
C           96.48047006106401      108.97634115092089      110.49180732141656
H           95.77299360661617      109.87903141453539      108.67811890294594
H           97.40727439853607      109.20166998611970      108.57631601540592
N           97.67708898351441      108.55562869464492      111.20572391181121
H           95.86899910208952      109.55600569470735      111.18685578029667
H           95.91822207405825      108.07258854801005      110.23618917290047
H           98.20342100928222      109.37691521960608      111.48725480476526
H           98.27919609207326      108.02687561370448      110.57861560733650
O           97.24637410650624      116.00357760454588      106.70951991353010
C          118.05989703076983      112.97618710337589      131.56301283789199
C          117.14928245640905      114.15850865019902      131.80551329976635
C          119.54057049046962      113.31075986038918      131.73062999528133
C          120.05597075459787      114.19454394144897      130.59684941473319
H          119.67945027844921      113.82356382819454      132.68393945935193
H          120.11446928382109      112.38261552004415      131.75759470557307
C          121.53545164647676      114.54641909605336      130.74659244729358
H          119.93472665146133      113.66721401572173      129.64776555463220
H          119.46210249153266      115.10722059734044      130.54717781771555
C          121.88430977308629      115.24369609754930      132.04684974814342
H          122.14833002179770      113.64494432467802      130.68635607041711
H          121.82305117162576      115.20165616031173      129.92197760254371
N          121.06893529434048      116.22742329959090      132.42443556252536
O          115.95212438610679      113.97880974697583      131.27749626094374
O          117.45874560329356      115.14827036425470      132.42761725090071
H          115.34647103726955      114.74573461751073      131.44747343681897
H          117.84995227282367      112.58855780696567      130.56633125424750
H          117.76856794392515      112.20551515010402      132.28055394778653
C          121.24780014782198      116.94496097902068      133.67164779755774
H          120.32518926444304      116.52789238217152      131.80759263516919
C          120.31537527267999      118.14489687115440      133.76817119753809
H          121.06332644699683      116.25483931037466      134.50373880553718
H          122.29535718876409      117.26314034964260      133.74449199844264
C          118.84764236808356      117.73283485907936      133.86849488047881
H          120.59614721444414      118.72103139812157      134.65151942450589
H          120.45977029462590      118.77839502059446      132.89108319889610
C          117.93507529690721      118.93701851384046      134.09210847107030
H          118.55536635915247      117.21318125918437      132.95850699042811
H          118.72479594024422      117.02906857727017      134.69386540968063
C          116.44967878862991      118.57897340085817      134.03782124695473
H          118.15730059051451      119.37424682009281      135.06764228049258
H          118.14473184009849      119.69352449841587      133.33387615549103
C          116.01708458658204      118.15034566400176      132.63553538305965
H          116.23630715628575      117.77830363863193      134.74678163500008
H          115.86970470439263      119.45702640094794      134.33253301719151
N          114.57587939407544      118.16717567864197      132.49340657714910
H          116.45422466903825      118.83993479874916      131.90342030482262
H          116.36266836642604      117.14086757032322      132.41346873535903