3536
 energy: -3716.243140365668 gnorm: 0.000969504277 xtb: 6.6.1 (8d0f1dd)
C           65.10907452788074       54.01575594550434       45.89395475225251
C           66.26610129899089       54.91678709204884       46.32008210113967
C           67.32729199164385       54.94313788678517       45.22040557301847
C           66.91155318610741       54.44450462773379       47.62926463170578
C           65.98900768106341       54.38806899517654       48.85215417284738
C           65.48103177005265       55.78023475119334       49.22792173133482
C           66.70762532452501       53.78328604461455       50.06867652686148
C           67.27708470171169       52.37108673434849       49.88661011317372
C           66.21370506532070       51.39079954710458       49.39270264470116
C           67.85095501773429       51.83105863631403       51.20429518198821
C           68.97368042025283       52.64617203029855       51.85898063259393
C           70.11649214745387       52.91644073324785       50.88074708367193
C           69.53009765407663       51.88881708759146       53.07457776024870
C           68.59892115101242       51.81724634246266       54.29072510296449
C           68.60068061222219       53.14748657892008       55.04368252393940
C           69.02943366233599       50.69675032406464       55.24663518544959
C           68.81515066391654       49.25645724181413       54.75842199049688
C           67.35310474136244       48.99569137168585       54.40325068114279
C           69.27238557799865       48.29759897224300       55.86740064388094
C           69.57766425769988       46.85770010735170       55.43122327301321
C           69.59506376639570       45.96746134213042       56.67349605274750
C           70.92081923658786       46.78988941973219       54.69523561927005
C           71.21594138212555       45.46848795333965       53.96877163128356
C           72.70999352902841       45.40332732957479       53.65208690403851
C           70.37839445366977       45.34617224905232       52.69034358832226
C           70.39549056753869       43.95903401047170       52.03349342723776
C           69.70964635026024       44.04038092999854       50.66928511375837
C           69.72475782128195       42.88650523685781       52.91398538989198
C           70.69836629915272       41.85719756130492       53.50313107721725
C           71.21605756125759       40.92739780183091       52.40593626927896
C           70.01630545785719       41.01759904060491       54.59307899519501
C           69.82712887763910       41.73108811781294       55.93839859835252
C           71.12542933826137       41.72415546702754       56.74291997107201
C           68.69900978462989       41.06887016134785       56.74480951292867
C           67.30124685623589       41.49115067574199       56.27270856559993
C           66.94555976951528       42.87207792751384       56.82076655370062
C           66.20762032686980       40.47284963877787       56.65311412244268
C           65.36411572646176       40.03114734563834       55.44875782068105
C           64.03152663208398       39.44470408794754       55.91194113216429
C           66.12587156609328       39.00611680523812       54.59539343287563
C           65.71298928742280       39.00003242504268       53.11442462365937
C           65.90039859422892       37.60703822558732       52.51718715233018
C           66.52863649150191       40.03810512753980       52.33342493710025
C           65.98351252892924       40.35179441134448       50.92651829626357
C           66.98113156232893       39.92249098676744       49.85012107027282
C           65.67474329969754       41.84556406892748       50.75697183604196
C           64.52153095648733       42.36418416126913       51.62271120991468
C           63.17853213322805       41.82682123878283       51.12597683212888
C           64.45680694425256       43.89848747027023       51.62365941882111
C           65.69552280678404       44.64980316847299       52.12861798710659
C           66.10260464841978       44.17540023299418       53.52183876389513
C           65.42056105030591       46.15804166761682       52.18861544558821
C           65.22494964160693       46.85249583123093       50.83484602576742
C           66.57583792711243       47.25393953907690       50.24377148821227
C           64.33385857101935       48.09202564617894       50.98552297901474
C           62.86152300992844       47.78529509482831       51.28394810681240
C           62.17665552672351       47.16436057801142       50.06730155281706
C           62.09976687317400       49.05272461007130       51.69212706158342
C           62.54358556098121       49.72097058230950       52.99780056621983
C           62.47569251703109       48.75050653574379       54.17648571337214
C           61.65190444237891       50.92675331382146       53.32707537776328
C           61.56343550424702       52.03162285352134       52.26957766726311
C           62.95378505963617       52.51420563506706       51.85584593250205
C           60.77043932851181       53.23577514004960       52.80079621904954
C           59.36697497520333       52.95276711399331       53.35056315261298
C           58.45777863378525       52.37043539828093       52.27133999251038
C           58.77818058814516       54.25112692169397       53.92162732731907
C           57.62008786406090       54.04725838834818       54.90804471921736
C           56.90682842791011       55.38267046753525       55.12337782808572
C           58.08759643807778       53.46906796473252       56.26084836535942
C           57.66591845794714       52.01665067885311       56.53335819102919
C           56.14600867584806       51.90817704287781       56.66218935189635
C           58.31434362295454       51.48344963145117       57.82725500903719
C           59.56874577897339       50.60675575766741       57.68634470215928
C           60.73495593948221       51.37952854253201       57.07782836810544
C           59.33629920877346       49.30966046603177       56.90139498318721
C           58.38273547408289       48.30586688256377       57.56063907719224
C           59.01346699595823       47.70930166092689       58.81737873361417
C           58.02916862058336       47.17667656839407       56.58131913863840
C           57.01472111942171       47.56160747148375       55.49652211005327
C           55.59403855908786       47.55131352539814       56.05585181205679
C           57.10604010461500       46.59867130160605       54.30536893208084
C           58.29383561186314       46.86797827090210       53.37384541291314
C           57.99891538575041       48.06957422698323       52.47820636033067
C           58.60258819675473       45.63003386928093       52.51900047885258
C           59.37456834535686       44.53169191174742       53.26568902234028
C           60.84756053056598       44.91468395001250       53.39056980991992
C           59.22178535761431       43.18439969446806       52.54666895522315
C           59.66646482136740       41.98995560009663       53.38939349489188
C           59.50898812567603       40.67372102287504       52.63731980991131
H           64.75705060016833       54.29789716060314       44.90361105184409
H           65.42991549367748       52.97585795275906       45.85888128033508
H           64.27385899168786       54.09971332617611       46.58381446839664
H           60.10308115281916       40.68026200825192       51.72572970427640
H           59.83676804654991       39.84028671481980       53.25434679140557
H           58.46933737953253       40.50674648949865       52.36575891520078
H           58.17097085152225       43.04105014279754       52.28160710322836
H           59.79170400079057       43.20713824059549       51.61424993832642
H           57.65591018214374       45.22727788576606       52.15015087336024
H           59.18854081217990       45.92765612648027       51.64610887982647
H           59.17489392201839       47.10550335628810       53.97700926254286
H           58.84353630041895       48.27750969786071       51.82384056660810
H           57.12430394647947       47.87543687193639       51.86087520126500
H           57.80363023261500       48.96093214733443       53.06995331347164
H           57.16300797582144       45.57972531719987       54.69311183496565
H           56.18855577325358       46.66777655745008       53.71581559392250
H           58.95371148300271       46.83216635150420       56.11258910923304
H           57.62052804191865       46.33215474782261       57.14208156810856
H           58.95659502717868       44.42595251073755       54.27272743166694
H           60.95981582487173       45.87238456713356       53.89188028066858
H           61.39596229087071       44.17553137483188       53.96841873715108
H           61.29768793106264       44.99034215910823       52.40245932012132
H           57.23009985125813       48.57524447656538       55.14750456161068
H           55.31416296392150       46.54248254058764       56.35152385503044
H           55.51803250958211       48.19872357115244       56.92555857487299
H           54.88441490905420       47.90197549159860       55.30858716214064
H           57.46049457281532       48.81951020835723       57.84547653539966
H           58.32954073447305       47.01202707128983       59.29629924933300
H           59.92592849421642       47.17494860345040       58.56071843720803
H           59.26507144835696       48.48101926164863       59.53873700789012
H           58.96659466246076       49.55848288889732       55.90583370191860
H           60.30366327768598       48.81747508121467       56.76736829274068
H           59.86648511300717       50.33349622512000       58.70420713692458
H           60.52739127601750       51.64282716710658       56.04518987905566
H           60.91807305562589       52.29030095965742       57.64305482034543
H           61.64044533855508       50.77563997896620       57.09879821054827
H           58.57107841286525       52.33313312920350       58.46512795822058
H           57.57115330648124       50.90134327280178       58.37439613203829
H           57.97616449159703       51.39998871497151       55.68569938263043
H           55.84688622629820       50.86377568244409       56.72175022388271
H           55.80431727723057       52.41831280494110       57.56048163457630
H           55.64097928166855       52.34922109358305       55.80845963164635
H           59.17306464479724       53.54094632411118       56.32228502859593
H           57.68553281173207       54.08523551109498       57.06880925229217
H           56.90562641498855       53.35834266964565       54.45144708882471
H           57.59057021223944       56.11110701298637       55.55583708003277
H           56.53720926157152       55.78022421331623       54.18025846561005
H           56.06103059085613       55.25985876412605       55.79566569778969
H           59.56574642243410       54.81404517352580       54.42804643302023
H           58.42964222196141       54.86710512085929       53.08881112365236
H           59.44751540278995       52.23339017397395       54.16836093420628
H           58.41478608244874       53.03674775135214       51.41248557827382
H           58.81853745053566       51.40155904686389       51.93522581668741
H           57.44699405718207       52.23655074306803       52.64992553418426
H           61.35805833161953       53.69861171560466       53.59642832482336
H           60.68240790473413       53.97157147302136       51.99716879013286
H           61.05275449769741       51.64211076006087       51.38428090960701
H           63.53299860422138       52.80250331539932       52.73068591851370
H           63.50050057261140       51.73484782955119       51.33189583555187
H           62.87689290668381       53.37795610133950       51.19872284917489
H           60.64802050101600       50.54517185271713       53.52325910019624
H           62.02439606995868       51.37517149451795       54.25199993729120
H           63.57649797491415       50.06588593772556       52.90149729378407
H           61.48490188716158       48.30519687032526       54.24225254561102
H           63.21083699796269       47.95708174784752       54.07976381668524
H           62.67046295258051       49.27868560166343       55.10803862098337
H           62.18859882975278       49.76968358059746       50.87518557002717
H           61.04202439191867       48.79552147107308       51.79312836968317
H           62.79561715883117       47.06414298738454       52.10089328199857
H           62.61899995088347       46.20375014358638       49.81783619357346
H           61.11804360273584       47.00723767969326       50.26512461355161
H           62.26668626876943       47.81989927222206       49.20451172029109
H           64.75020624560845       48.70321132141402       51.78785484187950
H           64.38260202577310       48.67970853252967       50.06531333860802
H           64.74909745624200       46.16517226379210       50.13360777417903
H           67.23382430177844       46.39221137304837       50.16236453018217
H           66.44997413473016       47.67699944960060       49.24910673991842
H           67.06077916775172       47.99715161481529       50.87430471125986
H           64.53931703299348       46.30745298894504       52.81434022469149
H           66.25644869188267       46.64514299817714       52.69570385948265
H           66.52897397045778       44.47883261962009       51.44107247467540
H           66.44148489772935       43.14453869241099       53.50592668254677
H           66.91556026566838       44.78525505331472       53.91079992196357
H           65.26060013712654       44.25425759238503       54.20711609789048
H           64.24093832127491       44.21950078166076       50.60247135069201
H           63.60850264338606       44.19745056800244       52.24487140282124
H           64.65722204463616       42.01848885268200       52.65063239464470
H           62.36463274219444       42.23430425429024       51.72128828658611
H           63.01581579473507       42.10574287504948       50.08609346652813
H           63.13738949700780       40.74328329338982       51.19763168289657
H           66.58533356179203       42.39979042072443       50.98970551579524
H           65.43412251304979       42.04088953907740       49.70863576352485
H           65.06059134606066       39.78669778764619       50.76906867034100
H           66.56894731335791       40.08683331162943       48.85644909280397
H           67.90188528051152       40.49729475950540       49.93472581822112
H           67.22505986527578       38.86723804218790       49.94781793541377
H           66.56532300462911       40.95806305958426       52.91859220516097
H           67.55534259459031       39.67314091895517       52.25303027250163
H           64.65222833237961       39.26426721799734       53.04453355376029
H           66.93881056229685       37.29396211374511       52.60786938912826
H           65.27697139471191       36.88129027527629       53.03555347392683
H           65.62901735094708       37.59544327084166       51.46439461082436
H           67.19815119808838       39.20023584268586       54.65521741184613
H           65.95692369911852       38.01605044246406       55.02442079241733
H           65.14934583860720       40.91766052892108       54.84193784810108
H           63.44411404576219       40.19367976545036       56.43910523356350
H           63.45053036172789       39.09195932444012       55.06255340557298
H           64.20176543410255       38.60330378163009       56.58138517035009
H           66.65158119866722       39.58731801239040       57.11207578738752
H           65.54730653680868       40.92213964451404       57.39679124121971
H           67.32958049618701       41.56509177910062       55.18163558499042
H           65.97263047051207       43.18618087125527       56.45312252902661
H           66.91744617742033       42.85214950666508       57.90863760393047
H           67.67521675997254       43.61636102091668       56.51462436900199
H           68.81003968398778       39.98545475967451       56.65979399193937
H           68.80706263295542       41.32549471182283       57.80103496429388
H           69.54991827586917       42.77204653656634       55.75082267425690
H           71.39766714426079       40.70590146893614       57.01350798154212
H           71.94202588962011       42.15453956988831       56.16780357251800
H           71.01212577478749       42.30251388094645       57.65778756586253
H           69.04565697414361       40.69831034567568       54.20878236482191
H           70.60684575104156       40.11501893076209       54.76857114907526
H           71.55178359715312       42.38416789418233       53.94090186120596
H           71.96401410055950       40.24408956977170       52.80269147640585
H           70.39763456249800       40.33797035302599       51.99603537582649
H           71.66912615123478       41.48977176559928       51.59327332587223
H           69.18427354228629       43.37743232135040       53.72376140384063
H           68.98352521984677       42.34332500374386       52.32321905285303
H           71.43680719011486       43.67641508404901       51.85869581710534
H           69.73332204881019       43.07505698790281       50.16825422087793
H           68.67081220082481       44.34275829200345       50.78524533820795
H           70.20557770129109       44.76779424300292       50.02954228137062
H           69.33991327654046       45.60439392701559       52.90870346964527
H           70.74777986194788       46.07957244966543       51.96827429244911
H           70.97412666013898       44.63557552523094       54.63312600597151
H           72.96874831367417       44.47300936573031       53.15342406669409
H           72.99687183326057       46.22965630851252       53.00434414112955
H           73.29545413674373       45.46722982213342       54.56710484573220
H           70.97230638486809       47.59719776893184       53.96152078665261
H           71.71107773885683       46.96884077183849       55.42899112168646
H           68.78103683699638       46.50904660435133       54.76724162277105
H           68.62170490114127       45.97487059708864       57.16103327162732
H           69.84171542065729       44.93932723908880       56.42312431217837
H           70.34065372341129       46.32616254184393       57.38073763784826
H           70.17170239556197       48.69856064638683       56.33930389461167
H           68.48946752293239       48.27206957099063       56.62732862514222
H           69.42532809705494       49.08526960313171       53.86696190236696
H           67.18496346679780       47.93284866228696       54.25197758170632
H           66.69982570493320       49.32698377818156       55.20723356121264
H           67.07164285677506       49.51129738199765       53.48889487215833
H           70.08969486988400       50.83389727340629       55.47726499469527
H           68.47493786989502       50.81340484856739       56.18212265364574
H           67.57700693514666       51.61998240642031       53.96050073320225
H           67.92083970855710       53.11241482673881       55.89281296863000
H           69.59686985021551       53.37258098646650       55.41939856550808
H           68.28899183854732       53.95914638661796       54.39169073858017
H           69.78131148359353       50.87744560249420       52.75038296921154
H           70.46160973302779       52.36514564749848       53.39142424743097
H           68.57334594904115       53.60731698581374       52.19350854218079
H           70.50337826885928       51.98096894655065       50.48162135475908
H           69.78833279856030       53.53661957013664       50.05142459257898
H           70.92938969525136       53.43567447292059       51.38439361388468
H           67.02486810890350       51.73820364842245       51.91305258538087
H           68.23316862001383       50.82432682925800       51.01270931333771
H           68.08296399551105       52.39775408832124       49.14893404570738
H           66.62262958352262       50.38408176348451       49.34429935133535
H           65.36411352371866       51.38106788606559       50.07118207925809
H           65.85802039832674       51.65710362983356       48.40228327239655
H           67.52054735595283       54.45626386422241       50.34832152687204
H           65.99876075507210       53.76047425205321       50.90113920343023
H           65.12512894989158       53.76165584056526       48.61941358371654
H           66.31506495091574       56.44805365838366       49.43451504805769
H           64.88798631726574       56.21173808770074       48.42648832185264
H           64.85718485972322       55.72755054622330       50.11812847499500
H           67.32005579210123       53.44901134744267       47.44812374791953
H           67.75036587819697       55.10655361637332       47.86044861233278
H           65.88817148469103       55.93571737522743       46.44878280965721
H           66.90195186187684       55.30194908880794       44.28593485394527
H           68.15043839332461       55.59841121023619       45.49532318846886
H           67.72507514520277       53.94387633840484       45.05352324019980
H           60.71229444404107       42.10518133568396       53.67913564500267
H           59.07032600205261       41.95773669324206       54.30432157255639
C           64.06462661976104       40.78890461896408       60.45779573762278
C           63.90504003773800       39.31192864321242       60.80540088265274
C           65.26354298430603       38.62004971123169       60.69616028039930
C           62.89509788181042       38.60817318074260       59.88690788567187
C           61.42686895539916       38.96379314802213       60.15555792258833
C           60.91310683496682       38.25471754215587       61.40708666405543
C           60.49925667028663       38.73048940599827       58.94487608968734
C           60.10314632758220       37.28842869532102       58.59597837802199
C           61.24483373221685       36.51662517864240       57.93310003837289
C           58.90296807924239       37.26069003751214       57.63242345251772
C           57.58926196706813       37.87937963941781       58.12647559210442
C           57.17526126836487       37.32528806942491       59.49010857380851
C           56.45237458318002       37.61089622201528       57.12727544586287
C           56.66293634673677       38.11601381455298       55.69416173343870
C           57.05606394799105       39.59248241608999       55.67744264762860
C           55.38159467071914       37.93384595153341       54.86550177452840
C           54.98254868242153       36.48825225045853       54.54583127812575
C           55.94382366220832       35.87485635069843       53.52749730637530
C           53.55293940163077       36.43095027150650       53.98298869142452
C           52.43068702613520       36.66318971224634       55.00143878700523
C           52.37336532707589       35.52575116588040       56.02229426072036
C           51.05960693713524       36.76225567033766       54.31457567788526
C           50.87479102094274       37.88718228536034       53.28816675206845
C           51.32861463991443       39.24222396751425       53.83313514210703
C           49.40017766892586       38.00858558697826       52.87161593508070
C           48.72115689889370       36.74589224124719       52.32828573888754
C           49.45684602494138       36.19753218734626       51.10641362810860
C           47.26607650098841       37.05125644386707       51.93734962516699
C           46.28657034137904       37.26368500543464       53.10246840912263
C           45.96042537888509       35.93702127143240       53.78362801431006
C           45.01870437196272       37.93630787887527       52.55647866350933
C           43.92895206419747       38.32711958502487       53.57000291524884
C           42.70261443559215       38.77606859039611       52.77276623420586
C           44.42894572780141       39.42525245824813       54.52124331819277
C           43.79991792477360       39.51360701816719       55.92403722137249
C           43.94422426086611       38.19602279766772       56.68678445320010
C           42.33374661789099       39.96338155430941       55.97370135847778
C           42.04327881176265       41.34615246259412       55.37265119696472
C           42.64438142420335       42.44930705548411       56.23978512819623
C           40.52487241742476       41.51658883727819       55.21757305503628
C           40.04688531389317       42.88384416160866       54.70444236599124
C           38.51941911324736       42.89197165993594       54.65846857222893
C           40.64423239178975       43.19380803186325       53.32789945506683
C           40.33411627022323       44.57967506874928       52.73966076979575
C           41.01214604777412       44.67251597330303       51.37349459376120
C           40.81866367168564       45.68493926437991       53.68541860864229
C           40.76284035198692       47.12868634839408       53.16366986689473
C           41.28145099795780       48.04868173783775       54.26878364100627
C           39.34061467357366       47.51164555288129       52.73619850596131
C           39.11401161807015       48.98797540537387       52.37078100555142
C           37.64284757259093       49.18020743941791       52.00183502865228
C           40.03581575161580       49.42778704994146       51.22687240699812
C           39.91576931947333       50.89335206342911       50.77433560741153
C           40.86326929778478       51.10911526165815       49.59399409722150
C           40.23594438118865       51.84589537611289       51.93297136484092
C           40.17157251164215       53.35241330444034       51.63914762625547
C           40.72505716214173       54.10288818625241       52.85128658789278
C           38.74146064862541       53.81374912255244       51.33188601327070
C           38.65553223110764       55.21546548246807       50.70980555501553
C           37.24701034730007       55.78064591197539       50.88868424128437
C           39.03250038021459       55.18430223751997       49.22167084705987
C           39.59808670392364       56.50901399459826       48.68548603434587
C           39.50190919620616       56.53023616430862       47.16082502600485
C           41.04934338683692       56.67319728244748       49.15002430931379
C           41.76931747860358       57.97127747408207       48.75544755062482
C           43.20045801655397       57.89317443279521       49.28506938463160
C           41.03805476162502       59.20689010292705       49.29265479318225
C           41.75579668392017       60.55266669948595       49.10084364885699
C           40.92163846863805       61.65023185232915       49.76187965388755
C           41.98770239689591       60.84203402566826       47.61371910964213
C           42.70868349370113       62.15642407423280       47.28120927972397
C           42.81658331965170       62.29521732978046       45.76259475233314
C           44.07405578649208       62.31387632693409       47.97072139673228
C           45.14012688222107       61.24900348559275       47.64651526682027
C           45.87489945405598       60.84614403808876       48.92536346183834
C           46.14345814152618       61.76400507339201       46.60618195638301
C           47.02840302791903       60.67013549434549       45.99106187876448
C           48.23251287541395       61.32329358155835       45.31486150000593
C           46.25032260946605       59.79261971743843       44.99471524240431
C           46.42968116956728       58.28250956385267       45.19564445903059
C           47.88757265595825       57.85832967830105       45.01962757395474
C           45.56860301795523       57.49792429642761       44.19472234303432
C           44.05720942229957       57.52395884190258       44.44987495003159
C           43.69975634606835       56.61625271549212       45.62635438616524
C           43.27311609093162       57.05855967843502       43.21385609580872
C           43.39641291994364       57.92678753808973       41.95491687129708
C           43.05304076823587       59.38925887516491       42.23849295588705
C           42.46972953359487       57.40723351816578       40.84585769925329
C           42.75363598147490       55.98825420368548       40.34962698852758
C           44.14518587881531       55.82791688316188       39.74926295651861
H           64.77066655067448       41.26261303391322       61.13743563101938
H           64.44363235859298       40.89524500063477       59.44384983508306
H           63.11904627828458       41.32014936542087       60.52982829841181
H           44.91478116737874       55.94655963263704       40.50745060441728
H           44.25298703285413       54.83884168535872       39.30913518626472
H           44.30787778462076       56.57076382156829       38.97144566928213
H           41.43787207957352       57.45101057933982       41.20468540282599
H           42.54607526720437       58.08558713477601       39.99169280816046
H           43.60193388016840       56.04494600992394       42.97472782937772
H           42.21482342253545       57.00558102417079       43.48457864659539
H           43.74140646340614       58.53925952212758       44.70071250116264
H           44.21457831279175       56.93069848334131       46.53026100479141
H           42.62939275876749       56.63984399219605       45.81905837448808
H           43.98365741710916       55.58911924761389       45.40784649987229
H           45.78103081258213       57.89552084120658       43.20183016773840
H           45.89093498049045       56.45345117944888       44.20235847193146
H           45.18764864407747       60.02088670603545       45.07940759803336
H           46.55222431514938       60.04806935268002       43.97808669085035
H           44.42364007624352       57.88601647195324       41.58239880449035
H           42.07250126684047       59.46876295649017       42.70348814932091
H           43.78711983849538       59.84534992290758       42.89710011255296