      -----------------------------------------------------------      
     |                   =====================                   |     
     |                           x T B                           |     
     |                   =====================                   |     
     |                         S. Grimme                         |     
     |          Mulliken Center for Theoretical Chemistry        |     
     |                    University of Bonn                     |     
      -----------------------------------------------------------      

   * xtb version 6.6.1 (8d0f1dd) compiled by 'stahn@M-Bot' on 2023-08-01

   xtb is free software: you can redistribute it and/or modify it under
   the terms of the GNU Lesser General Public License as published by
   the Free Software Foundation, either version 3 of the License, or
   (at your option) any later version.
   
   xtb is distributed in the hope that it will be useful,
   but WITHOUT ANY WARRANTY; without even the implied warranty of
   MERCHANTABILITY or FITNESS FOR A PARTICULAR PURPOSE.  See the
   GNU Lesser General Public License for more details.
   
   Cite this work as:
   * C. Bannwarth, E. Caldeweyher, S. Ehlert, A. Hansen, P. Pracht,
     J. Seibert, S. Spicher, S. Grimme, WIREs Comput. Mol. Sci., 2020, 11,
     e01493. DOI: 10.1002/wcms.1493
   
   for GFN2-xTB:
   * C. Bannwarth, S. Ehlert and S. Grimme., J. Chem. Theory Comput., 2019,
     15, 1652-1671. DOI: 10.1021/acs.jctc.8b01176
   for GFN1-xTB:
   * S. Grimme, C. Bannwarth, P. Shushkov, J. Chem. Theory Comput., 2017,
     13, 1989-2009. DOI: 10.1021/acs.jctc.7b00118
   for GFN0-xTB:
   * P. Pracht, E. Caldeweyher, S. Ehlert, S. Grimme, ChemRxiv, 2019, preprint.
     DOI: 10.26434/chemrxiv.8326202.v1
   for GFN-FF:
   * S. Spicher and S. Grimme, Angew. Chem. Int. Ed., 2020, 59, 15665-15673.
     DOI: 10.1002/anie.202004239
   
   for ALPB and GBSA implicit solvation:
   * S. Ehlert, M. Stahn, S. Spicher, S. Grimme, J. Chem. Theory Comput.,
     2021, 17, 4250-4261. DOI: 10.1021/acs.jctc.1c00471
   
   for DFT-D4:
   * E. Caldeweyher, C. Bannwarth and S. Grimme, J. Chem. Phys., 2017,
     147, 034112. DOI: 10.1063/1.4993215
   * E. Caldeweyher, S. Ehlert, A. Hansen, H. Neugebauer, S. Spicher,
     C. Bannwarth and S. Grimme, J. Chem. Phys., 2019, 150, 154122.
     DOI: 10.1063/1.5090222
   * E. Caldeweyher, J.-M. Mewes, S. Ehlert and S. Grimme, Phys. Chem. Chem. Phys.
     2020, 22, 8499-8512. DOI: 10.1039/D0CP00502A
   
   for sTDA-xTB:
   * S. Grimme and C. Bannwarth, J. Chem. Phys., 2016, 145, 054103.
     DOI: 10.1063/1.4959605
   
   in the mass-spec context:
   * V. Asgeirsson, C. Bauer and S. Grimme, Chem. Sci., 2017, 8, 4879.
     DOI: 10.1039/c7sc00601b
   * J. Koopman and S. Grimme, ACS Omega 2019, 4, 12, 15120-15133.
     DOI: 10.1021/acsomega.9b02011
   
   for metadynamics refer to:
   * S. Grimme, J. Chem. Theory Comput., 2019, 155, 2847-2862
     DOI: 10.1021/acs.jctc.9b00143
   
   for SPH calculations refer to:
   * S. Spicher and S. Grimme, J. Chem. Theory Comput., 2021, 17, 1701-1714
     DOI: 10.1021/acs.jctc.0c01306
   
   with help from (in alphabetical order)
   P. Atkinson, C. Bannwarth, F. Bohle, G. Brandenburg, E. Caldeweyher
   M. Checinski, S. Dohm, S. Ehlert, S. Ehrlich, I. Gerasimov, C. Hölzer
   A. Katbashev, J. Koopman, C. Lavigne, S. Lehtola, F. März, M. Müller,
   F. Musil, H. Neugebauer, J. Pisarek, C. Plett, P. Pracht, F. Pultar,
   J. Seibert, P. Shushkov, S. Spicher, M. Stahn, M. Steiner, T. Strunk,
   J. Stückrath, T. Rose, and J. Unsleber
   
 * started run on 2024/10/04 at 14:12:37.573     

           -------------------------------------------------
          |                Calculation Setup                |
           -------------------------------------------------

          program call               : /home/abt-grimme/AK-bin/xtb input.xyz --input input.inp --opt
          hostname                   : boar033.thch.uni-bonn.de
          coordinate file            : input.xyz
          omp threads                :                     8

   ID    Z sym.   atoms
    1    6 C      1-90, 273-362, 545-634, 817-906, 1089-1178, 1361-1450,
                  1633-1722, 1905-1994, 2177-2266, 2449-2538, 2721-2810,
                  2993-3082, 3265-3354
    2    1 H      91-272, 363-544, 635-816, 907-1088, 1179-1360, 1451-1632,
                  1723-1904, 1995-2176, 2267-2448, 2539-2720, 2811-2992,
                  3083-3264, 3355-3536

molecular fragmentation (1/2 indicates fragments):
111111111111111111111111111111111111111111111111111111111111111111111111
111111111111111111111111111111111111111111111111111111111111111111111111
111111111111111111111111111111111111111111111111111111111111111111111111
111111111111111111111111111111111111111111111111111111112222222222222222
222222222222222222222222222222222222222222222222222222222222222222222222
222222222222222222222222222222222222222222222222222222222222222222222222
222222222222222222222222222222222222222222222222222222222222222222222222
222222222222222222222222222222222222222222222222222222222222222222222222
222222222222222222222222222222222222222222222222222222222222222222222222
222222222222222222222222222222222222222222222222222222222222222222222222
222222222222222222222222222222222222222222222222222222222222222222222222
222222222222222222222222222222222222222222222222222222222222222222222222
222222222222222222222222222222222222222222222222222222222222222222222222
222222222222222222222222222222222222222222222222222222222222222222222222
222222222222222222222222222222222222222222222222222222222222222222222222
222222222222222222222222222222222222222222222222222222222222222222222222
222222222222222222222222222222222222222222222222222222222222222222222222
222222222222222222222222222222222222222222222222222222222222222222222222
222222222222222222222222222222222222222222222222222222222222222222222222
222222222222222222222222222222222222222222222222222222222222222222222222
222222222222222222222222222222222222222222222222222222222222222222222222
222222222222222222222222222222222222222222222222222222222222222222222222
222222222222222222222222222222222222222222222222222222222222222222222222
222222222222222222222222222222222222222222222222222222222222222222222222
222222222222222222222222222222222222222222222222222222222222222222222222
222222222222222222222222222222222222222222222222222222222222222222222222
222222222222222222222222222222222222222222222222222222222222222222222222
222222222222222222222222222222222222222222222222222222222222222222222222
222222222222222222222222222222222222222222222222222222222222222222222222
222222222222222222222222222222222222222222222222222222222222222222222222
222222222222222222222222222222222222222222222222222222222222222222222222
222222222222222222222222222222222222222222222222222222222222222222222222
222222222222222222222222222222222222222222222222222222222222222222222222
222222222222222222222222222222222222222222222222222222222222222222222222
222222222222222222222222222222222222222222222222222222222222222222222222
222222222222222222222222222222222222222222222222222222222222222222222222
222222222222222222222222222222222222222222222222222222222222222222222222
222222222222222222222222222222222222222222222222222222222222222222222222
222222222222222222222222222222222222222222222222222222222222222222222222
222222222222222222222222222222222222222222222222222222222222222222222222
222222222222222222222222222222222222222222222222222222222222222222222222
222222222222222222222222222222222222222222222222222222222222222222222222
222222222222222222222222222222222222222222222222222222222222222222222222
222222222222222222222222222222222222222222222222222222222222222222222222
222222222222222222222222222222222222222222222222222222222222222222222222
222222222222222222222222222222222222222222222222222222222222222222222222
222222222222222222222222222222222222222222222222222222222222222222222222
222222222222222222222222222222222222222222222222222222222222222222222222
222222222222222222222222222222222222222222222222222222222222222222222222
22222222
# atoms in fragment 1/2:   272  3264
 fragment masses (1/2) :     1264.41    15172.94
CMA distance (Bohr)    :  24.364
constraining FC (au)   :  0.0500

           -------------------------------------------------
          |                 G F N 2 - x T B                 |
           -------------------------------------------------

        Reference                      10.1021/acs.jctc.8b01176
      * Hamiltonian:
        H0-scaling (s, p, d)           1.850000    2.230000    2.230000
        zeta-weighting                 0.500000
      * Dispersion:
        s8                             2.700000
        a1                             0.520000
        a2                             5.000000
        s9                             5.000000
      * Repulsion:
        kExp                           1.500000    1.000000
        rExp                           1.000000
      * Coulomb:
        alpha                          2.000000
        third order                    shell-resolved
        anisotropic                    true
        a3                             3.000000
        a5                             4.000000
        cn-shift                       1.200000
        cn-exp                         4.000000
        max-rad                        5.000000


          ...................................................
          :                      SETUP                      :
          :.................................................:
          :  # basis functions                7046          :
          :  # atomic orbitals                7046          :
          :  # shells                         4706          :
          :  # electrons                      7046          :
          :  max. iterations                   250          :
          :  Hamiltonian                  GFN2-xTB          :
          :  restarted?                      false          :
          :  GBSA solvation                  false          :
          :  PC potential                    false          :
          :  electronic temp.          300.0000000     K    :
          :  accuracy                    1.0000000          :
          :  -> integral cutoff          0.2500000E+02      :
          :  -> integral neglect         0.1000000E-07      :
          :  -> SCF convergence          0.1000000E-05 Eh   :
          :  -> wf. convergence          0.1000000E-03 e    :
          :  Broyden damping             0.4000000          :
          ...................................................

 iter      E             dE          RMSdq      gap      omega  full diag
   1  -3766.7311545 -0.376673E+04  0.226E+00   11.54       0.0  T
   2  -3771.7767368 -0.504558E+01  0.126E+00   11.53       1.0  T
   3  -3771.9889554 -0.212219E+00  0.558E-01   11.48       1.0  T
   4  -3772.0109499 -0.219945E-01  0.143E-01   11.49       1.0  T
   5  -3772.0304728 -0.195230E-01  0.512E-02   11.49       1.0  T
   6  -3772.0304947 -0.218445E-04  0.698E-03   11.48       1.0  T
   7  -3772.0305265 -0.317894E-04  0.154E-03   11.49       1.1  T
   8  -3772.0305283 -0.187865E-05  0.545E-04   11.49       3.1  T
   9  -3772.0305284 -0.967684E-07  0.184E-04   11.49       9.1  T
  10  -3772.0305285 -0.153382E-07  0.707E-05   11.49      23.8  T

   *** convergence criteria satisfied after 10 iterations ***

         #    Occupation            Energy/Eh            Energy/eV
      -------------------------------------------------------------
         1        2.0000           -0.6265481             -17.0492
       ...           ...                  ...                  ...
      3517        2.0000           -0.3946069             -10.7378
      3518        2.0000           -0.3944477             -10.7335
      3519        2.0000           -0.3942112             -10.7270
      3520        2.0000           -0.3941972             -10.7267
      3521        2.0000           -0.3940229             -10.7219
      3522        2.0000           -0.3936514             -10.7118
      3523        2.0000           -0.3935424             -10.7088 (HOMO)
      3524                          0.0285532               0.7770 (LUMO)
      3525                          0.0293892               0.7997
      3526                          0.0294588               0.8016
      3527                          0.0302070               0.8220
      3528                          0.0303197               0.8250
       ...                                ...                  ...
      7046                          0.3872289              10.5370
      -------------------------------------------------------------
                  HL-Gap            0.4220956 Eh           11.4858 eV
             Fermi-level           -0.1824946 Eh           -4.9659 eV

 SCC (total)                   0 d,  0 h, 17 min, 27.914 sec
 SCC setup                      ...        0 min,  0.487 sec (  0.046%)
 Dispersion                     ...        0 min,  4.164 sec (  0.397%)
 classical contributions        ...        0 min,  0.151 sec (  0.014%)
 integral evaluation            ...        0 min,  7.029 sec (  0.671%)
 iterations                     ...       12 min, 49.932 sec ( 73.473%)
 molecular gradient             ...        4 min, 15.409 sec ( 24.373%)
 printout                       ...        0 min, 10.742 sec (  1.025%)

         :::::::::::::::::::::::::::::::::::::::::::::::::::::
         ::                     SUMMARY                     ::
         :::::::::::::::::::::::::::::::::::::::::::::::::::::
         :: total energy           -3716.242631552030 Eh    ::
         :: gradient norm              0.019499326277 Eh/a0 ::
         :: HOMO-LUMO gap             11.485806554961 eV    ::
         ::.................................................::
         :: SCC energy             -3772.030528452759 Eh    ::
         :: -> isotropic ES            0.586718183111 Eh    ::
         :: -> anisotropic ES          1.294956721366 Eh    ::
         :: -> anisotropic XC          2.078476953618 Eh    ::
         :: -> dispersion             -4.547762036906 Eh    ::
         :: repulsion energy          55.112713257077 Eh    ::
         :: add. restraining           0.000000000000 Eh    ::
         :: total charge              -0.000000000009 e     ::
         :::::::::::::::::::::::::::::::::::::::::::::::::::::

      ----------------------------------------------------------- 
     |              Fast Inertial Relaxation Engine              |
      ----------------------------------------------------------- 

          ...................................................
          :                      SETUP                      :
          :.................................................:
          :   energy convergence        0.5000000E-05 Eh    :
          :   grad. convergence         0.1000000E-02 Eh/a0 :
          :   optimization log               true           :
          :   writing optlog all                1     steps :
          :   Hessian reset                    20     steps :
          :   time step scaling                 5     steps :
          :   maximium step len.        1.0000000     a0    :
          :   initial time step         0.2500000     fs    :
          :   maximum time step         1.2500000     fs    :
          :   power reset thr           0.0000000     au    :
          :   alpha parameter           0.1000000           :
          :   BFGS update                   false           :
          :   preconditioning               false           :
          ...................................................

........................................................................
.............................. CYCLE    1 ..............................
........................................................................

 iter      E             dE          RMSdq      gap      omega  full diag
   1  -3772.0340595 -0.377203E+04  0.260E-04   11.49       0.0  T
   2  -3772.0340595 -0.287810E-07  0.154E-04   11.49      10.9  T
   3  -3772.0340595 -0.477485E-09  0.492E-05   11.49      34.2  T
     SCC iter.                  ...        3 min, 56.859 sec
     gradient                   ...        4 min, 16.716 sec
 * total energy  : -3716.2426745 Eh     change    :  -0.4292646E-04 Eh
   gradient norm :     0.0180777 Eh/a0  converged?    E=F G=F D=F
   time step     :     0.2500000 fs     power     :   0.2191932E-08
   step length   :     0.0022853 a0     speed     :   0.2211131E-03

........................................................................
.............................. CYCLE    2 ..............................
........................................................................

 iter      E             dE          RMSdq      gap      omega  full diag
   1  -3772.0391959 -0.377204E+04  0.381E-04   11.49       0.0  T
   2  -3772.0391960 -0.584346E-07  0.226E-04   11.49       7.4  T
   3  -3772.0391960 -0.971795E-09  0.691E-05   11.49      24.3  T
     SCC iter.                  ...        3 min, 43.970 sec
     gradient                   ...        4 min, 19.819 sec
 * total energy  : -3716.2427315 Eh     change    :  -0.5699694E-04 Eh
   gradient norm :     0.0160406 Eh/a0  converged?    E=F G=F D=F
   time step     :     0.2500000 fs     power     :   0.2841271E-08
   step length   :     0.0033443 a0     speed     :   0.3235792E-03

........................................................................
.............................. CYCLE    3 ..............................
........................................................................

 iter      E             dE          RMSdq      gap      omega  full diag
   1  -3772.0457084 -0.377205E+04  0.488E-04   11.49       0.0  T
   2  -3772.0457085 -0.938994E-07  0.290E-04   11.49       5.8  T
   3  -3772.0457085 -0.145337E-08  0.871E-05   11.49      19.3  T
     SCC iter.                  ...        3 min, 45.841 sec
     gradient                   ...        4 min, 14.822 sec
 * total energy  : -3716.2427945 Eh     change    :  -0.6303928E-04 Eh
   gradient norm :     0.0135194 Eh/a0  converged?    E=F G=F D=F
   time step     :     0.2500000 fs     power     :   0.3048601E-08
   step length   :     0.0042824 a0     speed     :   0.4143406E-03

........................................................................
.............................. CYCLE    4 ..............................
........................................................................

 iter      E             dE          RMSdq      gap      omega  full diag
   1  -3772.0532953 -0.377205E+04  0.578E-04   11.49       0.0  T
   2  -3772.0532954 -0.127686E-06  0.343E-04   11.49       4.9  T
   3  -3772.0532954 -0.205546E-08  0.101E-04   11.49      16.7  T
     SCC iter.                  ...        3 min, 46.711 sec
     gradient                   ...        4 min, 16.178 sec
 * total energy  : -3716.2428551 Eh     change    :  -0.6054873E-04 Eh
   gradient norm :     0.0107224 Eh/a0  converged?    E=F G=F D=F
   time step     :     0.2500000 fs     power     :   0.2807001E-08
   step length   :     0.0050672 a0     speed     :   0.4902814E-03

........................................................................
.............................. CYCLE    5 ..............................
........................................................................

 iter      E             dE          RMSdq      gap      omega  full diag
   1  -3772.0615736 -0.377206E+04  0.647E-04   11.49       0.0  T
   2  -3772.0615738 -0.153142E-06  0.384E-04   11.49       4.4  T
   3  -3772.0615738 -0.248338E-08  0.109E-04   11.49      15.4  T
     SCC iter.                  ...        3 min, 49.944 sec
     gradient                   ...        4 min, 17.480 sec
 * total energy  : -3716.2429056 Eh     change    :  -0.5054136E-04 Eh
   gradient norm :     0.0080032 Eh/a0  converged?    E=F G=F D=F
   time step     :     0.2500000 fs     power     :   0.2190978E-08
   step length   :     0.0056713 a0     speed     :   0.5487257E-03

........................................................................
.............................. CYCLE    6 ..............................
........................................................................

 iter      E             dE          RMSdq      gap      omega  full diag
   1  -3772.0709345 -0.377207E+04  0.765E-04   11.49       0.0  T
   2  -3772.0709347 -0.200714E-06  0.455E-04   11.49       3.7  T
   3  -3772.0709347 -0.320460E-08  0.123E-04   11.49      13.6  T
     SCC iter.                  ...        3 min, 50.007 sec
     gradient                   ...        4 min, 16.664 sec
 * total energy  : -3716.2429438 Eh     change    :  -0.3823243E-04 Eh
   gradient norm :     0.0058987 Eh/a0  converged?    E=F G=F D=F
   time step     :     0.2750000 fs     power     :   0.1258519E-08
   step length   :     0.0067163 a0     speed     :   0.5907603E-03

........................................................................
.............................. CYCLE    7 ..............................
........................................................................

 iter      E             dE          RMSdq      gap      omega  full diag
   1  -3772.0804744 -0.377208E+04  0.860E-04   11.49       0.0  T
   2  -3772.0804746 -0.216204E-06  0.512E-04   11.49       3.3  T
   3  -3772.0804746 -0.335103E-08  0.123E-04   11.49      13.6  T
     SCC iter.                  ...        3 min, 45.692 sec
     gradient                   ...        4 min, 15.613 sec
 * total energy  : -3716.2429635 Eh     change    :  -0.1962597E-04 Eh
   gradient norm :     0.0058740 Eh/a0  converged?    E=F G=F D=F
   time step     :     0.3025000 fs     power     :   0.2675032E-09
   step length   :     0.0075290 a0     speed     :   0.6020451E-03

........................................................................
.............................. CYCLE    8 ..............................
........................................................................

 iter      E             dE          RMSdq      gap      omega  full diag
   1  -3772.0886441 -0.377209E+04  0.897E-04   11.49       0.0  T
   2  -3772.0886443 -0.172502E-06  0.535E-04   11.49       3.1  T
   3  -3772.0886443 -0.262253E-08  0.102E-04   11.49      16.5  T
     SCC iter.                  ...        3 min, 42.299 sec
     gradient                   ...        4 min, 16.865 sec
 * total energy  : -3716.2429661 Eh     change    :  -0.2608258E-05 Eh
   gradient norm :     0.0074948 Eh/a0  converged?    E=T G=F D=F
   time step     :     0.3327500 fs     power     :  -0.3666087E-09
   step length   :     0.0077944 a0     speed     :   0.5666075E-03

........................................................................
.............................. CYCLE    9 ..............................
........................................................................
 * reset velocities

 iter      E             dE          RMSdq      gap      omega  full diag
   1  -3772.0883640 -0.377209E+04  0.302E-05   11.49       0.0  T
   2  -3772.0883640 -0.113687E-08  0.146E-05   11.49     115.3  T
   3  -3772.0883640 -0.909495E-10  0.799E-06   11.49     210.3  T
     SCC iter.                  ...        3 min, 42.941 sec
     gradient                   ...        4 min, 15.511 sec
 * total energy  : -3716.2429675 Eh     change    :  -0.1457760E-05 Eh
   gradient norm :     0.0073749 Eh/a0  converged?    E=T G=F D=T
   time step     :     0.1663750 fs     power     :   0.1144085E-09
   step length   :     0.0001945 a0     speed     :   0.2827959E-04

........................................................................
.............................. CYCLE   10 ..............................
........................................................................

 iter      E             dE          RMSdq      gap      omega  full diag
   1  -3772.0878083 -0.377209E+04  0.459E-05   11.49       0.0  T
   2  -3772.0878083 -0.639375E-09  0.272E-05   11.49      61.7  T
   3  -3772.0878083 -0.773070E-11  0.745E-06   11.49     225.8  T
     SCC iter.                  ...        3 min, 44.608 sec
     gradient                   ...        4 min, 16.628 sec
 * total energy  : -3716.2429703 Eh     change    :  -0.2798013E-05 Eh
   gradient norm :     0.0071325 Eh/a0  converged?    E=T G=F D=T
   time step     :     0.1663750 fs     power     :   0.2194963E-09
   step length   :     0.0003859 a0     speed     :   0.5610642E-04

........................................................................
.............................. CYCLE   11 ..............................
........................................................................

 iter      E             dE          RMSdq      gap      omega  full diag
   1  -3772.0869884 -0.377209E+04  0.666E-05   11.49       0.0  T
   2  -3772.0869884 -0.135242E-08  0.395E-05   11.49      42.6  T
   3  -3772.0869884  0.100044E-10  0.109E-05   11.49     154.9  T
     SCC iter.                  ...        3 min, 41.970 sec
     gradient                   ...        4 min, 17.246 sec
 * total energy  : -3716.2429743 Eh     change    :  -0.3965156E-05 Eh
   gradient norm :     0.0067814 Eh/a0  converged?    E=T G=F D=T
   time step     :     0.1663750 fs     power     :   0.3086006E-09
   step length   :     0.0005710 a0     speed     :   0.8301593E-04

........................................................................
.............................. CYCLE   12 ..............................
........................................................................

 iter      E             dE          RMSdq      gap      omega  full diag
   1  -3772.0859216 -0.377209E+04  0.870E-05   11.49       0.0  T
   2  -3772.0859216 -0.221235E-08  0.516E-05   11.49      32.6  T
   3  -3772.0859216 -0.541149E-10  0.140E-05   11.49     120.1  T
     SCC iter.                  ...        3 min, 45.336 sec
     gradient                   ...        4 min, 17.247 sec
 * total energy  : -3716.2429792 Eh     change    :  -0.4886348E-05 Eh
   gradient norm :     0.0063243 Eh/a0  converged?    E=T G=F D=T
   time step     :     0.1663750 fs     power     :   0.3760924E-09
   step length   :     0.0007469 a0     speed     :   0.1085863E-03

........................................................................
.............................. CYCLE   13 ..............................
........................................................................

 iter      E             dE          RMSdq      gap      omega  full diag
   1  -3772.0846310 -0.377208E+04  0.106E-04   11.49       0.0  T
   2  -3772.0846310 -0.335967E-08  0.628E-05   11.49      26.8  T
   3  -3772.0846310  0.954969E-11  0.168E-05   11.49      99.9  T
     SCC iter.                  ...        3 min, 50.566 sec
     gradient                   ...        4 min, 17.855 sec
 * total energy  : -3716.2429847 Eh     change    :  -0.5505241E-05 Eh
   gradient norm :     0.0057857 Eh/a0  converged?    E=F G=F D=T
   time step     :     0.1663750 fs     power     :   0.4185045E-09
   step length   :     0.0009107 a0     speed     :   0.1324061E-03

........................................................................
.............................. CYCLE   14 ..............................
........................................................................

 iter      E             dE          RMSdq      gap      omega  full diag
   1  -3772.0831458 -0.377208E+04  0.123E-04   11.49       0.0  T
   2  -3772.0831458 -0.449836E-08  0.729E-05   11.49      23.1  T
   3  -3772.0831458  0.118234E-10  0.192E-05   11.49      87.4  T
     SCC iter.                  ...        3 min, 45.531 sec
     gradient                   ...        4 min, 16.952 sec
 * total energy  : -3716.2429905 Eh     change    :  -0.5777301E-05 Eh
   gradient norm :     0.0051846 Eh/a0  converged?    E=F G=F D=F
   time step     :     0.1663750 fs     power     :   0.4342282E-09
   step length   :     0.0010601 a0     speed     :   0.1541246E-03

........................................................................
.............................. CYCLE   15 ..............................
........................................................................

 iter      E             dE          RMSdq      gap      omega  full diag
   1  -3772.0813183 -0.377208E+04  0.153E-04   11.49       0.0  T
   2  -3772.0813183 -0.675254E-08  0.908E-05   11.49      18.5  T
   3  -3772.0813183 -0.359250E-10  0.237E-05   11.49      71.0  T
     SCC iter.                  ...        3 min, 46.647 sec
     gradient                   ...        4 min, 18.261 sec
 * total energy  : -3716.2429968 Eh     change    :  -0.6321422E-05 Eh
   gradient norm :     0.0044830 Eh/a0  converged?    E=F G=F D=F
   time step     :     0.1830125 fs     power     :   0.4214453E-09
   step length   :     0.0013268 a0     speed     :   0.1753686E-03

........................................................................
.............................. CYCLE   16 ..............................
........................................................................

 iter      E             dE          RMSdq      gap      omega  full diag
   1  -3772.0791400 -0.377208E+04  0.186E-04   11.49       0.0  T
   2  -3772.0791400 -0.951695E-08  0.110E-04   11.49      15.2  T
   3  -3772.0791400 -0.126420E-09  0.280E-05   11.49      60.2  T
     SCC iter.                  ...        3 min, 43.483 sec
     gradient                   ...        4 min, 28.229 sec
 * total energy  : -3716.2430032 Eh     change    :  -0.6426816E-05 Eh
   gradient norm :     0.0037310 Eh/a0  converged?    E=F G=F D=F
   time step     :     0.2013138 fs     power     :   0.3757508E-09
   step length   :     0.0016241 a0     speed     :   0.1951388E-03

........................................................................
.............................. CYCLE   17 ..............................
........................................................................

 iter      E             dE          RMSdq      gap      omega  full diag
   1  -3772.0766484 -0.377208E+04  0.220E-04   11.49       0.0  T
   2  -3772.0766484 -0.125733E-07  0.130E-04   11.49      12.9  T
   3  -3772.0766484 -0.100499E-09  0.315E-05   11.49      53.3  T
     SCC iter.                  ...        3 min, 47.032 sec
     gradient                   ...        4 min, 15.242 sec
 * total energy  : -3716.2430092 Eh     change    :  -0.5974193E-05 Eh
   gradient norm :     0.0030599 Eh/a0  converged?    E=F G=F D=F
   time step     :     0.2214451 fs     power     :   0.2988770E-09
   step length   :     0.0019410 a0     speed     :   0.2120234E-03

........................................................................
.............................. CYCLE   18 ..............................
........................................................................

 iter      E             dE          RMSdq      gap      omega  full diag
   1  -3772.0739713 -0.377207E+04  0.250E-04   11.49       0.0  T
   2  -3772.0739713 -0.146465E-07  0.149E-04   11.49      11.3  T
   3  -3772.0739713 -0.114596E-09  0.332E-05   11.49      50.7  T
     SCC iter.                  ...        3 min, 41.699 sec
     gradient                   ...        4 min, 16.552 sec
 * total energy  : -3716.2430141 Eh     change    :  -0.4937742E-05 Eh
   gradient norm :     0.0027203 Eh/a0  converged?    E=T G=F D=F
   time step     :     0.2435896 fs     power     :   0.2048407E-09
   step length   :     0.0022542 a0     speed     :   0.2238493E-03

........................................................................
.............................. CYCLE   19 ..............................
........................................................................

 iter      E             dE          RMSdq      gap      omega  full diag
   1  -3772.0713755 -0.377207E+04  0.271E-04   11.49       0.0  T
   2  -3772.0713756 -0.140981E-07  0.161E-04   11.49      10.4  T
   3  -3772.0713756 -0.244199E-09  0.312E-05   11.49      54.0  T
     SCC iter.                  ...        4 min,  2.410 sec
     gradient                   ...        4 min, 22.661 sec
 * total energy  : -3716.2430178 Eh     change    :  -0.3697051E-05 Eh
   gradient norm :     0.0028822 Eh/a0  converged?    E=T G=F D=F
   time step     :     0.2679486 fs     power     :   0.1231912E-09
   step length   :     0.0025219 a0     speed     :   0.2276598E-03

........................................................................
.............................. CYCLE   20 ..............................
........................................................................

 iter      E             dE          RMSdq      gap      omega  full diag
   1  -3772.0692145 -0.377207E+04  0.279E-04   11.49       0.0  T
   2  -3772.0692145 -0.109176E-07  0.166E-04   11.49      10.1  T
   3  -3772.0692145 -0.251475E-09  0.253E-05   11.49      66.5  T
     SCC iter.                  ...        3 min, 46.844 sec
     gradient                   ...        4 min, 19.194 sec
 * total energy  : -3716.2430207 Eh     change    :  -0.2891054E-05 Eh
   gradient norm :     0.0033251 Eh/a0  converged?    E=T G=F D=F
   time step     :     0.2947435 fs     power     :   0.8506890E-10
   step length   :     0.0027215 a0     speed     :   0.2233465E-03
 * RMSD in coord.:     0.0006915 a0     energy gain  -0.3891575E-03 Eh

........................................................................
.............................. CYCLE   21 ..............................
........................................................................

 iter      E             dE          RMSdq      gap      omega  full diag
   1  -3772.0680960 -0.377207E+04  0.215E-04   11.49       0.0  T
   2  -3772.0680960 -0.409591E-08  0.128E-04   11.49      13.2  T
   3  -3772.0680960 -0.189630E-09  0.142E-05   11.49     118.6  T
     SCC iter.                  ...        3 min, 42.749 sec
     gradient                   ...        4 min, 16.081 sec
 * total energy  : -3716.2430231 Eh     change    :  -0.2417877E-05 Eh
   gradient norm :     0.0036122 Eh/a0  converged?    E=T G=F D=F
   time step     :     0.2500000 fs     power     :   0.1047768E-09
   step length   :     0.0022060 a0     speed     :   0.2134470E-03

........................................................................
.............................. CYCLE   22 ..............................
........................................................................

 iter      E             dE          RMSdq      gap      omega  full diag
   1  -3772.0676948 -0.377207E+04  0.199E-04   11.49       0.0  T
   2  -3772.0676948 -0.238742E-08  0.117E-04   11.49      14.4  T
   3  -3772.0676948 -0.959517E-10  0.115E-05   11.49     146.5  T
     SCC iter.                  ...        3 min, 41.098 sec
     gradient                   ...        4 min, 17.099 sec
 * total energy  : -3716.2430262 Eh     change    :  -0.3055215E-05 Eh
   gradient norm :     0.0036860 Eh/a0  converged?    E=T G=F D=F
   time step     :     0.2500000 fs     power     :   0.1472046E-09
   step length   :     0.0021340 a0     speed     :   0.2064785E-03

........................................................................
.............................. CYCLE   23 ..............................
........................................................................

 iter      E             dE          RMSdq      gap      omega  full diag
   1  -3772.0679680 -0.377207E+04  0.191E-04   11.49       0.0  T
   2  -3772.0679680 -0.237060E-08  0.112E-04   11.49      15.0  T
   3  -3772.0679680 -0.106411E-09  0.136E-05   11.49     123.2  T
     SCC iter.                  ...        3 min, 44.508 sec
     gradient                   ...        4 min, 17.165 sec
 * total energy  : -3716.2430300 Eh     change    :  -0.3824397E-05 Eh
   gradient norm :     0.0035276 Eh/a0  converged?    E=T G=F D=F
   time step     :     0.2500000 fs     power     :   0.1902410E-09
   step length   :     0.0021106 a0     speed     :   0.2042140E-03

........................................................................
.............................. CYCLE   24 ..............................
........................................................................

 iter      E             dE          RMSdq      gap      omega  full diag
   1  -3772.0688461 -0.377207E+04  0.192E-04   11.49       0.0  T
   2  -3772.0688461 -0.382852E-08  0.111E-04   11.49      15.1  T
   3  -3772.0688461 -0.181899E-10  0.185E-05   11.49      90.7  T
     SCC iter.                  ...        3 min, 42.273 sec
     gradient                   ...        4 min, 16.924 sec
 * total energy  : -3716.2430344 Eh     change    :  -0.4402664E-05 Eh
   gradient norm :     0.0031621 Eh/a0  converged?    E=T G=F D=F
   time step     :     0.2500000 fs     power     :   0.2168584E-09
   step length   :     0.0021323 a0     speed     :   0.2063163E-03

........................................................................
.............................. CYCLE   25 ..............................
........................................................................

 iter      E             dE          RMSdq      gap      omega  full diag
   1  -3772.0702409 -0.377207E+04  0.197E-04   11.49       0.0  T
   2  -3772.0702409 -0.598129E-08  0.114E-04   11.49      14.8  T
   3  -3772.0702409  0.436557E-10  0.234E-05   11.49      72.0  T
     SCC iter.                  ...        3 min, 41.084 sec
     gradient                   ...        4 min, 15.554 sec
 * total energy  : -3716.2430389 Eh     change    :  -0.4515324E-05 Eh
   gradient norm :     0.0026466 Eh/a0  converged?    E=T G=F D=F
   time step     :     0.2500000 fs     power     :   0.2175390E-09
   step length   :     0.0021837 a0     speed     :   0.2112881E-03

........................................................................
.............................. CYCLE   26 ..............................
........................................................................

 iter      E             dE          RMSdq      gap      omega  full diag
   1  -3772.0722494 -0.377207E+04  0.224E-04   11.49       0.0  T
   2  -3772.0722494 -0.990531E-08  0.129E-04   11.49      13.0  T
   3  -3772.0722494 -0.513865E-10  0.301E-05   11.49      55.9  T
     SCC iter.                  ...        3 min, 49.973 sec
     gradient                   ...        4 min, 16.103 sec
 * total energy  : -3716.2430434 Eh     change    :  -0.4521276E-05 Eh
   gradient norm :     0.0020290 Eh/a0  converged?    E=T G=F D=F
   time step     :     0.2750000 fs     power     :   0.1865262E-09
   step length   :     0.0024837 a0     speed     :   0.2184655E-03

........................................................................
.............................. CYCLE   27 ..............................
........................................................................

 iter      E             dE          RMSdq      gap      omega  full diag
   1  -3772.0747998 -0.377207E+04  0.249E-04   11.49       0.0  T
   2  -3772.0747998 -0.137697E-07  0.144E-04   11.49      11.7  T
   3  -3772.0747998 -0.659384E-10  0.352E-05   11.49      47.8  T
     SCC iter.                  ...        3 min, 42.816 sec
     gradient                   ...        4 min, 17.343 sec
 * total energy  : -3716.2430472 Eh     change    :  -0.3779046E-05 Eh
   gradient norm :     0.0015987 Eh/a0  converged?    E=T G=F D=F
   time step     :     0.3025000 fs     power     :   0.1275397E-09
   step length   :     0.0028171 a0     speed     :   0.2252623E-03

........................................................................
.............................. CYCLE   28 ..............................
........................................................................

 iter      E             dE          RMSdq      gap      omega  full diag
   1  -3772.0775901 -0.377208E+04  0.260E-04   11.49       0.0  T
   2  -3772.0775901 -0.142509E-07  0.149E-04   11.49      11.2  T
   3  -3772.0775901 -0.133241E-09  0.351E-05   11.49      47.9  T
     SCC iter.                  ...        3 min, 43.319 sec
     gradient                   ...        4 min, 15.274 sec
 * total energy  : -3716.2430499 Eh     change    :  -0.2652182E-05 Eh
   gradient norm :     0.0017697 Eh/a0  converged?    E=T G=F D=F
   time step     :     0.3327500 fs     power     :   0.6717231E-10
   step length   :     0.0031190 a0     speed     :   0.2267304E-03

........................................................................
.............................. CYCLE   29 ..............................
........................................................................

 iter      E             dE          RMSdq      gap      omega  full diag
   1  -3772.0800884 -0.377208E+04  0.245E-04   11.49       0.0  T
   2  -3772.0800884 -0.961973E-08  0.141E-04   11.49      11.9  T
   3  -3772.0800884 -0.645741E-10  0.277E-05   11.49      60.8  T
     SCC iter.                  ...        3 min, 43.765 sec
     gradient                   ...        4 min, 17.248 sec
 * total energy  : -3716.2430518 Eh     change    :  -0.1933012E-05 Eh
   gradient norm :     0.0022588 Eh/a0  converged?    E=T G=F D=F
   time step     :     0.3660250 fs     power     :   0.4318897E-10
   step length   :     0.0033099 a0     speed     :   0.2187360E-03

........................................................................
.............................. CYCLE   30 ..............................
........................................................................

 iter      E             dE          RMSdq      gap      omega  full diag
   1  -3772.0818646 -0.377208E+04  0.219E-04   11.49       0.0  T
   2  -3772.0818646 -0.387854E-08  0.127E-04   11.49      13.3  T
   3  -3772.0818646 -0.136424E-11  0.160E-05   11.49     105.2  T
     SCC iter.                  ...        3 min, 42.097 sec
     gradient                   ...        4 min, 20.678 sec
 * total energy  : -3716.2430541 Eh     change    :  -0.2315133E-05 Eh
   gradient norm :     0.0025699 Eh/a0  converged?    E=T G=F D=F
   time step     :     0.4026275 fs     power     :   0.6285933E-10
   step length   :     0.0034697 a0     speed     :   0.2084520E-03

........................................................................
.............................. CYCLE   31 ..............................
........................................................................

 iter      E             dE          RMSdq      gap      omega  full diag
   1  -3772.0826205 -0.377208E+04  0.200E-04   11.49       0.0  T
   2  -3772.0826205 -0.120826E-08  0.118E-04   11.49      14.3  T
   3  -3772.0826205 -0.152795E-09  0.904E-06   11.49     186.0  T
     SCC iter.                  ...        3 min, 39.620 sec
     gradient                   ...        4 min, 20.439 sec
 * total energy  : -3716.2430579 Eh     change    :  -0.3738286E-05 Eh
   gradient norm :     0.0024866 Eh/a0  converged?    E=T G=F D=F
   time step     :     0.4428903 fs     power     :   0.1021139E-09
   step length   :     0.0037230 a0     speed     :   0.2033371E-03

........................................................................
.............................. CYCLE   32 ..............................
........................................................................

 iter      E             dE          RMSdq      gap      omega  full diag
   1  -3772.0822124 -0.377208E+04  0.208E-04   11.49       0.0  T
   2  -3772.0822124 -0.522459E-08  0.125E-04   11.49      13.4  T
   3  -3772.0822124  0.977707E-10  0.186E-05   11.49      90.4  T
     SCC iter.                  ...        3 min, 45.285 sec
     gradient                   ...        4 min, 16.679 sec
 * total energy  : -3716.2430630 Eh     change    :  -0.5148067E-05 Eh
   gradient norm :     0.0020144 Eh/a0  converged?    E=F G=F D=F
   time step     :     0.4871793 fs     power     :   0.1234521E-09
   step length   :     0.0041483 a0     speed     :   0.2059677E-03

........................................................................
.............................. CYCLE   33 ..............................
........................................................................

 iter      E             dE          RMSdq      gap      omega  full diag
   1  -3772.0807975 -0.377208E+04  0.232E-04   11.49       0.0  T
   2  -3772.0807975 -0.143827E-07  0.142E-04   11.49      11.9  T
   3  -3772.0807975 -0.186446E-10  0.339E-05   11.49      49.5  T
     SCC iter.                  ...        3 min, 45.370 sec
     gradient                   ...        4 min, 18.715 sec
 * total energy  : -3716.2430683 Eh     change    :  -0.5325822E-05 Eh
   gradient norm :     0.0015544 Eh/a0  converged?    E=F G=F D=F
   time step     :     0.5358972 fs     power     :   0.1034658E-09
   step length   :     0.0047331 a0     speed     :   0.2136370E-03

........................................................................
.............................. CYCLE   34 ..............................
........................................................................

 iter      E             dE          RMSdq      gap      omega  full diag
   1  -3772.0791742 -0.377208E+04  0.235E-04   11.49       0.0  T
   2  -3772.0791742 -0.178179E-07  0.145E-04   11.49      11.6  T
   3  -3772.0791742 -0.194632E-09  0.376E-05   11.49      44.8  T
     SCC iter.                  ...        3 min, 41.263 sec
     gradient                   ...        4 min, 18.055 sec
 * total energy  : -3716.2430728 Eh     change    :  -0.4420095E-05 Eh
   gradient norm :     0.0017770 Eh/a0  converged?    E=T G=F D=F
   time step     :     0.5894869 fs     power     :   0.6960953E-10
   step length   :     0.0053485 a0     speed     :   0.2194680E-03

........................................................................
.............................. CYCLE   35 ..............................
........................................................................

 iter      E             dE          RMSdq      gap      omega  full diag
   1  -3772.0786512 -0.377208E+04  0.220E-04   11.49       0.0  T
   2  -3772.0786512 -0.833234E-08  0.134E-04   11.49      12.5  T
   3  -3772.0786512 -0.166892E-09  0.213E-05   11.49      78.8  T
     SCC iter.                  ...        3 min, 44.211 sec
     gradient                   ...        4 min, 15.028 sec
 * total energy  : -3716.2430773 Eh     change    :  -0.4506886E-05 Eh
   gradient norm :     0.0021843 Eh/a0  converged?    E=T G=F D=F
   time step     :     0.6484356 fs     power     :   0.7544661E-10
   step length   :     0.0058667 a0     speed     :   0.2188460E-03

........................................................................
.............................. CYCLE   36 ..............................
........................................................................

 iter      E             dE          RMSdq      gap      omega  full diag
   1  -3772.0800913 -0.377208E+04  0.264E-04   11.49       0.0  T
   2  -3772.0800913 -0.357386E-08  0.156E-04   11.49      10.8  T
   3  -3772.0800913  0.773070E-11  0.162E-05   11.49     103.6  T
     SCC iter.                  ...        3 min, 42.828 sec
     gradient                   ...        4 min, 16.585 sec
 * total energy  : -3716.2430835 Eh     change    :  -0.6191744E-05 Eh
   gradient norm :     0.0018642 Eh/a0  converged?    E=F G=F D=F
   time step     :     0.7132792 fs     power     :   0.1010672E-09
   step length   :     0.0065258 a0     speed     :   0.2213039E-03

........................................................................
.............................. CYCLE   37 ..............................
........................................................................

 iter      E             dE          RMSdq      gap      omega  full diag
   1  -3772.0835188 -0.377208E+04  0.345E-04   11.49       0.0  T
   2  -3772.0835189 -0.149780E-07  0.200E-04   11.49       8.4  T
   3  -3772.0835189  0.300133E-10  0.359E-05   11.49      46.9  T
     SCC iter.                  ...        3 min, 41.307 sec
     gradient                   ...        4 min, 16.992 sec
 * total energy  : -3716.2430905 Eh     change    :  -0.7070418E-05 Eh
   gradient norm :     0.0014474 Eh/a0  converged?    E=F G=F D=F
   time step     :     0.7846071 fs     power     :   0.9261723E-10
   step length   :     0.0074633 a0     speed     :   0.2300889E-03

........................................................................
.............................. CYCLE   38 ..............................
........................................................................

 iter      E             dE          RMSdq      gap      omega  full diag
   1  -3772.0871761 -0.377209E+04  0.344E-04   11.49       0.0  T
   2  -3772.0871761 -0.196665E-07  0.200E-04   11.49       8.4  T
   3  -3772.0871761 -0.428372E-09  0.392E-05   11.49      42.9  T
     SCC iter.                  ...        3 min, 41.525 sec
     gradient                   ...        4 min, 16.866 sec
 * total energy  : -3716.2430968 Eh     change    :  -0.6299696E-05 Eh
   gradient norm :     0.0017428 Eh/a0  converged?    E=F G=F D=F
   time step     :     0.8630678 fs     power     :   0.6989978E-10
   step length   :     0.0084965 a0     speed     :   0.2381288E-03

........................................................................
.............................. CYCLE   39 ..............................
........................................................................

 iter      E             dE          RMSdq      gap      omega  full diag
   1  -3772.0883456 -0.377209E+04  0.283E-04   11.49       0.0  T
   2  -3772.0883456 -0.921364E-08  0.166E-04   11.49      10.1  T
   3  -3772.0883456 -0.391992E-09  0.298E-05   11.49      56.4  T
     SCC iter.                  ...        3 min, 42.420 sec
     gradient                   ...        4 min, 16.731 sec
 * total energy  : -3716.2431043 Eh     change    :  -0.7456198E-05 Eh
   gradient norm :     0.0016914 Eh/a0  converged?    E=F G=F D=F
   time step     :     0.9493746 fs     power     :   0.8725176E-10
   step length   :     0.0094845 a0     speed     :   0.2416520E-03

........................................................................
.............................. CYCLE   40 ..............................
........................................................................

 iter      E             dE          RMSdq      gap      omega  full diag
   1  -3772.0862835 -0.377209E+04  0.345E-04   11.49       0.0  T
   2  -3772.0862835 -0.235536E-07  0.205E-04   11.49       8.2  T
   3  -3772.0862835  0.229193E-09  0.500E-05   11.49      33.6  T
     SCC iter.                  ...        3 min, 41.773 sec
     gradient                   ...        4 min, 17.433 sec
 * total energy  : -3716.2431128 Eh     change    :  -0.8545601E-05 Eh
   gradient norm :     0.0014162 Eh/a0  converged?    E=F G=F D=F
   time step     :     1.0443120 fs     power     :   0.7992115E-10
   step length   :     0.0108280 a0     speed     :   0.2508032E-03

........................................................................
.............................. CYCLE   41 ..............................
........................................................................

 iter      E             dE          RMSdq      gap      omega  full diag
   1  -3772.0843026 -0.377208E+04  0.364E-04   11.49       0.0  T
   2  -3772.0843026 -0.154155E-07  0.217E-04   11.49       7.8  T
   3  -3772.0843026  0.109594E-09  0.330E-05   11.49      51.0  T
     SCC iter.                  ...        3 min, 45.879 sec
     gradient                   ...        4 min, 16.169 sec
 * total energy  : -3716.2431212 Eh     change    :  -0.8325553E-05 Eh
   gradient norm :     0.0016554 Eh/a0  converged?    E=F G=F D=F
   time step     :     1.1487432 fs     power     :   0.7384054E-10
   step length   :     0.0122890 a0     speed     :   0.2587669E-03

........................................................................
.............................. CYCLE   42 ..............................
........................................................................

 iter      E             dE          RMSdq      gap      omega  full diag
   1  -3772.0861591 -0.377209E+04  0.409E-04   11.49       0.0  T
   2  -3772.0861591 -0.197201E-07  0.237E-04   11.49       7.1  T
   3  -3772.0861591  0.909495E-12  0.452E-05   11.49      37.2  T
     SCC iter.                  ...        3 min, 58.741 sec
     gradient                   ...        4 min, 16.749 sec
 * total energy  : -3716.2431310 Eh     change    :  -0.9836906E-05 Eh
   gradient norm :     0.0013347 Eh/a0  converged?    E=F G=F D=F
   time step     :     1.2500000 fs     power     :   0.7856098E-10
   step length   :     0.0137754 a0     speed     :   0.2665679E-03
 * RMSD in coord.:     0.0017390 a0     energy gain  -0.1102814E-03 Eh

........................................................................
.............................. CYCLE   43 ..............................
........................................................................

 iter      E             dE          RMSdq      gap      omega  full diag
   1  -3772.0866069 -0.377209E+04  0.686E-05   11.49       0.0  T
   2  -3772.0866069 -0.530235E-09  0.404E-05   11.49      41.7  T
   3  -3772.0866069 -0.236469E-10  0.666E-06   11.49     252.4  T
     SCC iter.                  ...        3 min, 46.339 sec
     gradient                   ...        4 min, 16.178 sec
 * total energy  : -3716.2431327 Eh     change    :  -0.1750921E-05 Eh
   gradient norm :     0.0013331 Eh/a0  converged?    E=T G=F D=F
   time step     :     0.2500000 fs     power     :   0.8893863E-10
   step length   :     0.0026419 a0     speed     :   0.2556141E-03

........................................................................
.............................. CYCLE   44 ..............................
........................................................................

 iter      E             dE          RMSdq      gap      omega  full diag
   1  -3772.0870441 -0.377209E+04  0.655E-05   11.49       0.0  T
   2  -3772.0870441 -0.689397E-09  0.383E-05   11.49      43.9  T
   3  -3772.0870441 -0.286491E-10  0.837E-06   11.49     200.8  T
     SCC iter.                  ...        3 min, 47.337 sec
     gradient                   ...        4 min, 15.939 sec
 * total energy  : -3716.2431346 Eh     change    :  -0.1896496E-05 Eh
   gradient norm :     0.0012467 Eh/a0  converged?    E=T G=F D=F
   time step     :     0.2500000 fs     power     :   0.9711769E-10
   step length   :     0.0025583 a0     speed     :   0.2475303E-03

........................................................................
.............................. CYCLE   45 ..............................
........................................................................

 iter      E             dE          RMSdq      gap      omega  full diag
   1  -3772.0874038 -0.377209E+04  0.734E-05   11.49       0.0  T
   2  -3772.0874039 -0.853561E-09  0.431E-05   11.49      39.0  T
   3  -3772.0874039 -0.418368E-10  0.843E-06   11.49     199.4  T
     SCC iter.                  ...        3 min, 45.387 sec
     gradient                   ...        4 min, 16.097 sec
 * total energy  : -3716.2431366 Eh     change    :  -0.1979305E-05 Eh
   gradient norm :     0.0011139 Eh/a0  converged?    E=T G=F D=F
   time step     :     0.2500000 fs     power     :   0.9948807E-10
   step length   :     0.0025057 a0     speed     :   0.2424376E-03

........................................................................
.............................. CYCLE   46 ..............................
........................................................................

 iter      E             dE          RMSdq      gap      omega  full diag
   1  -3772.0876407 -0.377209E+04  0.833E-05   11.49       0.0  T
   2  -3772.0876407 -0.767614E-09  0.489E-05   11.49      34.4  T
   3  -3772.0876407  0.291038E-10  0.821E-06   11.49     204.8  T
     SCC iter.                  ...        3 min, 43.267 sec
     gradient                   ...        4 min, 17.123 sec
 * total energy  : -3716.2431385 Eh     change    :  -0.1927551E-05 Eh
   gradient norm :     0.0010021 Eh/a0  converged?    E=T G=F D=F
   time step     :     0.2500000 fs     power     :   0.9615277E-10
   step length   :     0.0024783 a0     speed     :   0.2397874E-03

........................................................................
.............................. CYCLE   47 ..............................
........................................................................

 iter      E             dE          RMSdq      gap      omega  full diag
   1  -3772.0877391 -0.377209E+04  0.891E-05   11.49       0.0  T
   2  -3772.0877391 -0.713499E-09  0.522E-05   11.49      32.2  T
   3  -3772.0877391  0.654836E-10  0.746E-06   11.49     225.5  T
     SCC iter.                  ...        3 min, 47.215 sec
     gradient                   ...        4 min, 17.034 sec
 * total energy  : -3716.2431404 Eh     change    :  -0.1820351E-05 Eh
   gradient norm :     0.0009695 Eh/a0  converged?    E=T G=T D=F
   time step     :     0.2500000 fs     power     :   0.9073260E-10
   step length   :     0.0024630 a0     speed     :   0.2383091E-03

   *** GEOMETRY OPTIMIZATION CONVERGED AFTER 47 CYCLES ***

------------------------------------------------------------------------
 total energy gain   :        -0.0005088 Eh       -0.3193 kcal/mol
 total RMSD          :         0.0022403 a0        0.0012 Å
 total power (kW/mol):        -0.0284232 (step)   -0.0001 (real)
------------------------------------------------------------------------

 FIRE (total)                  0 d,  6 h, 36 min,  7.476 sec
 setup                          ...        0 min,  0.135 sec (  0.001%)
 velocities                     ...        0 min,  0.003 sec (  0.000%)
 propagation                    ...        0 min,  0.006 sec (  0.000%)
 singlepoint calculation        ...      396 min,  6.505 sec ( 99.996%)
 log and printout               ...        0 min,  0.765 sec (  0.003%)
 preconditioner                 ...        0 min,  0.000 sec (  0.000%)
 model hessian                  ...        0 min,  0.000 sec (  0.000%)
 hessian update                 ...        0 min,  0.000 sec (  0.000%)

================
 final structure:
================
3536
 xtb: 6.6.1 (8d0f1dd)
C           65.10907452788074       54.01575594550434       45.89395475225251
C           66.26610129899089       54.91678709204884       46.32008210113967
C           67.32729199164385       54.94313788678517       45.22040557301847
C           66.91155318610741       54.44450462773379       47.62926463170578
C           65.98900768106341       54.38806899517654       48.85215417284738
C           65.48103177005265       55.78023475119334       49.22792173133482
C           66.70762532452501       53.78328604461455       50.06867652686148
C           67.27708470171169       52.37108673434849       49.88661011317372
C           66.21370506532070       51.39079954710458       49.39270264470116
C           67.85095501773429       51.83105863631403       51.20429518198821
C           68.97368042025283       52.64617203029855       51.85898063259393
C           70.11649214745387       52.91644073324785       50.88074708367193
C           69.53009765407663       51.88881708759146       53.07457776024870
C           68.59892115101242       51.81724634246266       54.29072510296449
C           68.60068061222219       53.14748657892008       55.04368252393940
C           69.02943366233599       50.69675032406464       55.24663518544959
C           68.81515066391654       49.25645724181413       54.75842199049688
C           67.35310474136244       48.99569137168585       54.40325068114279
C           69.27238557799865       48.29759897224300       55.86740064388094
C           69.57766425769988       46.85770010735170       55.43122327301321
C           69.59506376639570       45.96746134213042       56.67349605274750
C           70.92081923658786       46.78988941973219       54.69523561927005
C           71.21594138212555       45.46848795333965       53.96877163128356
C           72.70999352902841       45.40332732957479       53.65208690403851
C           70.37839445366977       45.34617224905232       52.69034358832226
C           70.39549056753869       43.95903401047170       52.03349342723776
C           69.70964635026024       44.04038092999854       50.66928511375837
C           69.72475782128195       42.88650523685781       52.91398538989198
C           70.69836629915272       41.85719756130492       53.50313107721725
C           71.21605756125759       40.92739780183091       52.40593626927896
C           70.01630545785719       41.01759904060491       54.59307899519501
C           69.82712887763910       41.73108811781294       55.93839859835252
C           71.12542933826137       41.72415546702754       56.74291997107201
C           68.69900978462989       41.06887016134785       56.74480951292867
C           67.30124685623589       41.49115067574199       56.27270856559993
C           66.94555976951528       42.87207792751384       56.82076655370062
C           66.20762032686980       40.47284963877787       56.65311412244268
C           65.36411572646176       40.03114734563834       55.44875782068105
C           64.03152663208398       39.44470408794754       55.91194113216429
C           66.12587156609328       39.00611680523812       54.59539343287563
C           65.71298928742280       39.00003242504268       53.11442462365937
C           65.90039859422892       37.60703822558732       52.51718715233018
C           66.52863649150191       40.03810512753980       52.33342493710025
C           65.98351252892924       40.35179441134448       50.92651829626357
C           66.98113156232893       39.92249098676744       49.85012107027282
C           65.67474329969754       41.84556406892748       50.75697183604196
C           64.52153095648733       42.36418416126913       51.62271120991468
C           63.17853213322805       41.82682123878283       51.12597683212888
C           64.45680694425256       43.89848747027023       51.62365941882111
C           65.69552280678404       44.64980316847299       52.12861798710659
C           66.10260464841978       44.17540023299418       53.52183876389513
C           65.42056105030591       46.15804166761682       52.18861544558821
C           65.22494964160693       46.85249583123093       50.83484602576742
C           66.57583792711243       47.25393953907690       50.24377148821227
C           64.33385857101935       48.09202564617894       50.98552297901474
C           62.86152300992844       47.78529509482831       51.28394810681240
C           62.17665552672351       47.16436057801142       50.06730155281706
C           62.09976687317400       49.05272461007130       51.69212706158342
C           62.54358556098121       49.72097058230950       52.99780056621983
C           62.47569251703109       48.75050653574379       54.17648571337214
C           61.65190444237891       50.92675331382146       53.32707537776328
C           61.56343550424702       52.03162285352134       52.26957766726311
C           62.95378505963617       52.51420563506706       51.85584593250205
C           60.77043932851181       53.23577514004960       52.80079621904954
C           59.36697497520333       52.95276711399331       53.35056315261298
C           58.45777863378525       52.37043539828093       52.27133999251038
C           58.77818058814516       54.25112692169397       53.92162732731907
C           57.62008786406090       54.04725838834818       54.90804471921736
C           56.90682842791011       55.38267046753525       55.12337782808572
C           58.08759643807778       53.46906796473252       56.26084836535942
C           57.66591845794714       52.01665067885311       56.53335819102919
C           56.14600867584806       51.90817704287781       56.66218935189635
C           58.31434362295454       51.48344963145117       57.82725500903719
C           59.56874577897339       50.60675575766741       57.68634470215928
C           60.73495593948221       51.37952854253201       57.07782836810544
C           59.33629920877346       49.30966046603177       56.90139498318721
C           58.38273547408289       48.30586688256377       57.56063907719224
C           59.01346699595823       47.70930166092689       58.81737873361417
C           58.02916862058336       47.17667656839407       56.58131913863840
C           57.01472111942171       47.56160747148375       55.49652211005327
C           55.59403855908786       47.55131352539814       56.05585181205679
C           57.10604010461500       46.59867130160605       54.30536893208084
C           58.29383561186314       46.86797827090210       53.37384541291314
C           57.99891538575041       48.06957422698323       52.47820636033067
C           58.60258819675473       45.63003386928093       52.51900047885258
C           59.37456834535686       44.53169191174742       53.26568902234028
C           60.84756053056598       44.91468395001250       53.39056980991992
C           59.22178535761431       43.18439969446806       52.54666895522315
C           59.66646482136740       41.98995560009663       53.38939349489188
C           59.50898812567603       40.67372102287504       52.63731980991131
H           64.75705060016833       54.29789716060314       44.90361105184409
H           65.42991549367748       52.97585795275906       45.85888128033508
H           64.27385899168786       54.09971332617611       46.58381446839664
H           60.10308115281916       40.68026200825192       51.72572970427640
H           59.83676804654991       39.84028671481980       53.25434679140557
H           58.46933737953253       40.50674648949865       52.36575891520078
H           58.17097085152225       43.04105014279754       52.28160710322836
H           59.79170400079057       43.20713824059549       51.61424993832642
H           57.65591018214374       45.22727788576606       52.15015087336024
H           59.18854081217990       45.92765612648027       51.64610887982647
H           59.17489392201839       47.10550335628810       53.97700926254286
H           58.84353630041895       48.27750969786071       51.82384056660810
H           57.12430394647947       47.87543687193639       51.86087520126500
H           57.80363023261500       48.96093214733443       53.06995331347164
H           57.16300797582144       45.57972531719987       54.69311183496565
H           56.18855577325358       46.66777655745008       53.71581559392250
H           58.95371148300271       46.83216635150420       56.11258910923304
H           57.62052804191865       46.33215474782261       57.14208156810856
H           58.95659502717868       44.42595251073755       54.27272743166694
H           60.95981582487173       45.87238456713356       53.89188028066858
H           61.39596229087071       44.17553137483188       53.96841873715108
H           61.29768793106264       44.99034215910823       52.40245932012132
H           57.23009985125813       48.57524447656538       55.14750456161068
H           55.31416296392150       46.54248254058764       56.35152385503044
H           55.51803250958211       48.19872357115244       56.92555857487299
H           54.88441490905420       47.90197549159860       55.30858716214064
H           57.46049457281532       48.81951020835723       57.84547653539966
H           58.32954073447305       47.01202707128983       59.29629924933300
H           59.92592849421642       47.17494860345040       58.56071843720803
H           59.26507144835696       48.48101926164863       59.53873700789012
H           58.96659466246076       49.55848288889732       55.90583370191860
H           60.30366327768598       48.81747508121467       56.76736829274068
H           59.86648511300717       50.33349622512000       58.70420713692458
H           60.52739127601750       51.64282716710658       56.04518987905566
H           60.91807305562589       52.29030095965742       57.64305482034543
H           61.64044533855508       50.77563997896620       57.09879821054827
H           58.57107841286525       52.33313312920350       58.46512795822058
H           57.57115330648124       50.90134327280178       58.37439613203829
H           57.97616449159703       51.39998871497151       55.68569938263043
H           55.84688622629820       50.86377568244409       56.72175022388271
H           55.80431727723057       52.41831280494110       57.56048163457630
H           55.64097928166855       52.34922109358305       55.80845963164635
H           59.17306464479724       53.54094632411118       56.32228502859593
H           57.68553281173207       54.08523551109498       57.06880925229217
H           56.90562641498855       53.35834266964565       54.45144708882471
H           57.59057021223944       56.11110701298637       55.55583708003277
H           56.53720926157152       55.78022421331623       54.18025846561005
H           56.06103059085613       55.25985876412605       55.79566569778969
H           59.56574642243410       54.81404517352580       54.42804643302023
H           58.42964222196141       54.86710512085929       53.08881112365236
H           59.44751540278995       52.23339017397395       54.16836093420628
H           58.41478608244874       53.03674775135214       51.41248557827382
H           58.81853745053566       51.40155904686389       51.93522581668741
H           57.44699405718207       52.23655074306803       52.64992553418426
H           61.35805833161953       53.69861171560466       53.59642832482336
H           60.68240790473413       53.97157147302136       51.99716879013286
H           61.05275449769741       51.64211076006087       51.38428090960701
H           63.53299860422138       52.80250331539932       52.73068591851370
H           63.50050057261140       51.73484782955119       51.33189583555187
H           62.87689290668381       53.37795610133950       51.19872284917489
H           60.64802050101600       50.54517185271713       53.52325910019624
H           62.02439606995868       51.37517149451795       54.25199993729120
H           63.57649797491415       50.06588593772556       52.90149729378407
H           61.48490188716158       48.30519687032526       54.24225254561102
H           63.21083699796269       47.95708174784752       54.07976381668524
H           62.67046295258051       49.27868560166343       55.10803862098337
H           62.18859882975278       49.76968358059746       50.87518557002717
H           61.04202439191867       48.79552147107308       51.79312836968317
H           62.79561715883117       47.06414298738454       52.10089328199857
H           62.61899995088347       46.20375014358638       49.81783619357346
H           61.11804360273584       47.00723767969326       50.26512461355161
H           62.26668626876943       47.81989927222206       49.20451172029109
H           64.75020624560845       48.70321132141402       51.78785484187950
H           64.38260202577310       48.67970853252967       50.06531333860802
H           64.74909745624200       46.16517226379210       50.13360777417903
H           67.23382430177844       46.39221137304837       50.16236453018217
H           66.44997413473016       47.67699944960060       49.24910673991842
H           67.06077916775172       47.99715161481529       50.87430471125986
H           64.53931703299348       46.30745298894504       52.81434022469149
H           66.25644869188267       46.64514299817714       52.69570385948265
H           66.52897397045778       44.47883261962009       51.44107247467540
H           66.44148489772935       43.14453869241099       53.50592668254677
H           66.91556026566838       44.78525505331472       53.91079992196357
H           65.26060013712654       44.25425759238503       54.20711609789048
H           64.24093832127491       44.21950078166076       50.60247135069201
H           63.60850264338606       44.19745056800244       52.24487140282124
H           64.65722204463616       42.01848885268200       52.65063239464470
H           62.36463274219444       42.23430425429024       51.72128828658611
H           63.01581579473507       42.10574287504948       50.08609346652813
H           63.13738949700780       40.74328329338982       51.19763168289657
H           66.58533356179203       42.39979042072443       50.98970551579524
H           65.43412251304979       42.04088953907740       49.70863576352485
H           65.06059134606066       39.78669778764619       50.76906867034100
H           66.56894731335791       40.08683331162943       48.85644909280397
H           67.90188528051152       40.49729475950540       49.93472581822112
H           67.22505986527578       38.86723804218790       49.94781793541377
H           66.56532300462911       40.95806305958426       52.91859220516097
H           67.55534259459031       39.67314091895517       52.25303027250163
H           64.65222833237961       39.26426721799734       53.04453355376029
H           66.93881056229685       37.29396211374511       52.60786938912826
H           65.27697139471191       36.88129027527629       53.03555347392683
H           65.62901735094708       37.59544327084166       51.46439461082436
H           67.19815119808838       39.20023584268586       54.65521741184613
H           65.95692369911852       38.01605044246406       55.02442079241733
H           65.14934583860720       40.91766052892108       54.84193784810108
H           63.44411404576219       40.19367976545036       56.43910523356350
H           63.45053036172789       39.09195932444012       55.06255340557298
H           64.20176543410255       38.60330378163009       56.58138517035009
H           66.65158119866722       39.58731801239040       57.11207578738752
H           65.54730653680868       40.92213964451404       57.39679124121971
H           67.32958049618701       41.56509177910062       55.18163558499042
H           65.97263047051207       43.18618087125527       56.45312252902661
H           66.91744617742033       42.85214950666508       57.90863760393047
H           67.67521675997254       43.61636102091668       56.51462436900199
H           68.81003968398778       39.98545475967451       56.65979399193937
H           68.80706263295542       41.32549471182283       57.80103496429388
H           69.54991827586917       42.77204653656634       55.75082267425690
H           71.39766714426079       40.70590146893614       57.01350798154212
H           71.94202588962011       42.15453956988831       56.16780357251800
H           71.01212577478749       42.30251388094645       57.65778756586253
H           69.04565697414361       40.69831034567568       54.20878236482191
H           70.60684575104156       40.11501893076209       54.76857114907526
H           71.55178359715312       42.38416789418233       53.94090186120596
H           71.96401410055950       40.24408956977170       52.80269147640585
H           70.39763456249800       40.33797035302599       51.99603537582649
H           71.66912615123478       41.48977176559928       51.59327332587223
H           69.18427354228629       43.37743232135040       53.72376140384063
H           68.98352521984677       42.34332500374386       52.32321905285303
H           71.43680719011486       43.67641508404901       51.85869581710534
H           69.73332204881019       43.07505698790281       50.16825422087793
H           68.67081220082481       44.34275829200345       50.78524533820795
H           70.20557770129109       44.76779424300292       50.02954228137062
H           69.33991327654046       45.60439392701559       52.90870346964527
H           70.74777986194788       46.07957244966543       51.96827429244911
H           70.97412666013898       44.63557552523094       54.63312600597151
H           72.96874831367417       44.47300936573031       53.15342406669409
H           72.99687183326057       46.22965630851252       53.00434414112955
H           73.29545413674373       45.46722982213342       54.56710484573220
H           70.97230638486809       47.59719776893184       53.96152078665261
H           71.71107773885683       46.96884077183849       55.42899112168646
H           68.78103683699638       46.50904660435133       54.76724162277105
H           68.62170490114127       45.97487059708864       57.16103327162732
H           69.84171542065729       44.93932723908880       56.42312431217837
H           70.34065372341129       46.32616254184393       57.38073763784826
H           70.17170239556197       48.69856064638683       56.33930389461167
H           68.48946752293239       48.27206957099063       56.62732862514222
H           69.42532809705494       49.08526960313171       53.86696190236696
H           67.18496346679780       47.93284866228696       54.25197758170632
H           66.69982570493320       49.32698377818156       55.20723356121264
H           67.07164285677506       49.51129738199765       53.48889487215833
H           70.08969486988400       50.83389727340629       55.47726499469527
H           68.47493786989502       50.81340484856739       56.18212265364574
H           67.57700693514666       51.61998240642031       53.96050073320225
H           67.92083970855710       53.11241482673881       55.89281296863000
H           69.59686985021551       53.37258098646650       55.41939856550808
H           68.28899183854732       53.95914638661796       54.39169073858017
H           69.78131148359353       50.87744560249420       52.75038296921154
H           70.46160973302779       52.36514564749848       53.39142424743097
H           68.57334594904115       53.60731698581374       52.19350854218079
H           70.50337826885928       51.98096894655065       50.48162135475908
H           69.78833279856030       53.53661957013664       50.05142459257898
H           70.92938969525136       53.43567447292059       51.38439361388468
H           67.02486810890350       51.73820364842245       51.91305258538087
H           68.23316862001383       50.82432682925800       51.01270931333771
H           68.08296399551105       52.39775408832124       49.14893404570738
H           66.62262958352262       50.38408176348451       49.34429935133535
H           65.36411352371866       51.38106788606559       50.07118207925809
H           65.85802039832674       51.65710362983356       48.40228327239655
H           67.52054735595283       54.45626386422241       50.34832152687204
H           65.99876075507210       53.76047425205321       50.90113920343023
H           65.12512894989158       53.76165584056526       48.61941358371654
H           66.31506495091574       56.44805365838366       49.43451504805769
H           64.88798631726574       56.21173808770074       48.42648832185264
H           64.85718485972322       55.72755054622330       50.11812847499500
H           67.32005579210123       53.44901134744267       47.44812374791953
H           67.75036587819697       55.10655361637332       47.86044861233278
H           65.88817148469103       55.93571737522743       46.44878280965721
H           66.90195186187684       55.30194908880794       44.28593485394527
H           68.15043839332461       55.59841121023619       45.49532318846886
H           67.72507514520277       53.94387633840484       45.05352324019980
H           60.71229444404107       42.10518133568396       53.67913564500267
H           59.07032600205261       41.95773669324206       54.30432157255639
[...]
  3284   6 C     3285   6 C                                       1.5295408
  3284   6 C     3286   6 C                                       1.5351656
  3286   6 C     3287   6 C                                       1.5356292
  3287   6 C     3288   6 C                                       1.5257518
  3287   6 C     3289   6 C                                       1.5365859
  3289   6 C     3290   6 C                                       1.5378377
  3290   6 C     3291   6 C                                       1.5291015
  3290   6 C     3292   6 C                                       1.5343788
  3292   6 C     3293   6 C                                       1.5389059
  3293   6 C     3294   6 C                                       1.5319964
  3293   6 C     3295   6 C                                       1.5369574
  3295   6 C     3296   6 C                                       1.5325076
  3296   6 C     3297   6 C                                       1.5272986
  3296   6 C     3298   6 C                                       1.5371656
  3298   6 C     3299   6 C                                       1.5333424
  3299   6 C     3300   6 C                                       1.5282773
  3301   6 C     3302   6 C                                       1.5356784
  3302   6 C     3303   6 C                                       1.5266032
  3304   6 C     3305   6 C                                       1.5375111
  3305   6 C     3306   6 C                                       1.5267450
  3305   6 C     3307   6 C                                       1.5332606
  3307   6 C     3308   6 C                                       1.5357302
  3308   6 C     3309   6 C                                       1.5283007
  3308   6 C     3310   6 C                                       1.5333983
  3310   6 C     3311   6 C                                       1.5365223
  3311   6 C     3312   6 C                                       1.5296498
  3311   6 C     3313   6 C                                       1.5325961
  3313   6 C     3314   6 C                                       1.5366478
  3314   6 C     3315   6 C                                       1.5283648
  3314   6 C     3316   6 C                                       1.5335315
  3316   6 C     3317   6 C                                       1.5346368
  3317   6 C     3318   6 C                                       1.5294379
  3319   6 C     3320   6 C                                       1.5329596
  3320   6 C     3321   6 C                                       1.5286405
  3320   6 C     3322   6 C                                       1.5354372
  3322   6 C     3323   6 C                                       1.5335831
  3323   6 C     3324   6 C                                       1.5293991
  3323   6 C     3325   6 C                                       1.5367070
  3325   6 C     3326   6 C                                       1.5359058
  3326   6 C     3327   6 C                                       1.5264621
  3326   6 C     3328   6 C                                       1.5359704
  3328   6 C     3329   6 C                                       1.5339800
  3329   6 C     3330   6 C                                       1.5290879
  3331   6 C     3332   6 C                                       1.5355868
  3332   6 C     3333   6 C                                       1.5278693
  3332   6 C     3334   6 C                                       1.5394823
  3334   6 C     3335   6 C                                       1.5333173
  3335   6 C     3336   6 C                                       1.5296129
  3335   6 C     3337   6 C                                       1.5368969
  3337   6 C     3338   6 C                                       1.5375203
  3338   6 C     3339   6 C                                       1.5260914
  3338   6 C     3340   6 C                                       1.5368686
  3340   6 C     3341   6 C                                       1.5348860
  3341   6 C     3342   6 C                                       1.5292091
  3341   6 C     3343   6 C                                       1.5338055
  3344   6 C     3345   6 C                                       1.5291137
  3344   6 C     3346   6 C                                       1.5337607
  3346   6 C     3347   6 C                                       1.5335555
  3347   6 C     3348   6 C                                       1.5273929
  3347   6 C     3349   6 C                                       1.5354065
  3349   6 C     3350   6 C                                       1.5354803
  3350   6 C     3351   6 C                                       1.5281217
  3350   6 C     3352   6 C                                       1.5338667
  3352   6 C     3353   6 C                                       1.5271769
  3353   6 C     3354   6 C                                       1.5236117
  3265   6 C     3355   1 H                                       1.0880064
  3265   6 C     3356   1 H                                       1.0883048
  3265   6 C     3357   1 H                                       1.0868245
  3354   6 C     3358   1 H                                       1.0882747
  3354   6 C     3359   1 H                                       1.0877017
  3354   6 C     3360   1 H                                       1.0880892
  3352   6 C     3361   1 H                                       1.0924936
  3352   6 C     3362   1 H                                       1.0931886
  3349   6 C     3363   1 H                                       1.0910303
  3349   6 C     3364   1 H                                       1.0909122
  3347   6 C     3365   1 H                                       1.0933594
  3348   6 C     3366   1 H                                       1.0880836
  3348   6 C     3367   1 H                                       1.0886932
  3348   6 C     3368   1 H                                       1.0864196
  3346   6 C     3369   1 H                                       1.0925244
  3346   6 C     3370   1 H                                       1.0940375
  3343   6 C     3371   1 H                                       1.0901788
  3343   6 C     3372   1 H                                       1.0919925
  3350   6 C     3373   1 H                                       1.0956387
  3351   6 C     3374   1 H                                       1.0884085
  3351   6 C     3375   1 H                                       1.0887045
  3351   6 C     3376   1 H                                       1.0879485
  3344   6 C     3377   1 H                                       1.0936012
  3345   6 C     3378   1 H                                       1.0883339
  3345   6 C     3379   1 H                                       1.0879557
  3345   6 C     3380   1 H                                       1.0889813
  3341   6 C     3381   1 H                                       1.0936694
  3342   6 C     3382   1 H                                       1.0880215
  3342   6 C     3383   1 H                                       1.0864908
  3342   6 C     3384   1 H                                       1.0883497
  3340   6 C     3385   1 H                                       1.0931972
  3340   6 C     3386   1 H                                       1.0934761
  3338   6 C     3387   1 H                                       1.0939380
  3339   6 C     3388   1 H                                       1.0870261
  3339   6 C     3389   1 H                                       1.0874396
  3339   6 C     3390   1 H                                       1.0867968
  3337   6 C     3391   1 H                                       1.0933969
  3337   6 C     3392   1 H                                       1.0942347
  3335   6 C     3393   1 H                                       1.0933326
  3336   6 C     3394   1 H                                       1.0881910
  3336   6 C     3395   1 H                                       1.0882174
  3336   6 C     3396   1 H                                       1.0865231
  3334   6 C     3397   1 H                                       1.0906937
  3334   6 C     3398   1 H                                       1.0927304
  3332   6 C     3399   1 H                                       1.0912246
  3333   6 C     3400   1 H                                       1.0849066
  3333   6 C     3401   1 H                                       1.0884773
  3333   6 C     3402   1 H                                       1.0881670
  3331   6 C     3403   1 H                                       1.0929274
  3331   6 C     3404   1 H                                       1.0909316
  3329   6 C     3405   1 H                                       1.0949294
  3330   6 C     3406   1 H                                       1.0882267
  3330   6 C     3407   1 H                                       1.0872798
  3330   6 C     3408   1 H                                       1.0879227
  3328   6 C     3409   1 H                                       1.0907926
  3328   6 C     3410   1 H                                       1.0944804
  3326   6 C     3411   1 H                                       1.0926469
  3327   6 C     3412   1 H                                       1.0866256
  3327   6 C     3413   1 H                                       1.0864847
  3327   6 C     3414   1 H                                       1.0883720
  3325   6 C     3415   1 H                                       1.0931763
  3325   6 C     3416   1 H                                       1.0934423
  3323   6 C     3417   1 H                                       1.0933855
  3324   6 C     3418   1 H                                       1.0879276
  3324   6 C     3419   1 H                                       1.0867211
  3324   6 C     3420   1 H                                       1.0882853
  3322   6 C     3421   1 H                                       1.0918236
  3322   6 C     3422   1 H                                       1.0931921
  3320   6 C     3423   1 H                                       1.0937764
  3321   6 C     3424   1 H                                       1.0881965
  3321   6 C     3425   1 H                                       1.0882196
  3321   6 C     3426   1 H                                       1.0868694
  3319   6 C     3427   1 H                                       1.0897671
  3319   6 C     3428   1 H                                       1.0916620
  3317   6 C     3429   1 H                                       1.0934420
  3318   6 C     3430   1 H                                       1.0882160
  3318   6 C     3431   1 H                                       1.0885877
  3318   6 C     3432   1 H                                       1.0868928
  3316   6 C     3433   1 H                                       1.0925872
  3316   6 C     3434   1 H                                       1.0936461
  3314   6 C     3435   1 H                                       1.0932389
  3315   6 C     3436   1 H                                       1.0884961
  3315   6 C     3437   1 H                                       1.0883376
  3315   6 C     3438   1 H                                       1.0866984
  3313   6 C     3439   1 H                                       1.0911744
  3313   6 C     3440   1 H                                       1.0923636
  3311   6 C     3441   1 H                                       1.0934138
  3312   6 C     3442   1 H                                       1.0870272
  3312   6 C     3443   1 H                                       1.0872566
  3312   6 C     3444   1 H                                       1.0883367
  3310   6 C     3445   1 H                                       1.0919157
  3310   6 C     3446   1 H                                       1.0929174
  3308   6 C     3447   1 H                                       1.0935796
  3309   6 C     3448   1 H                                       1.0877989
  3309   6 C     3449   1 H                                       1.0882100
  3309   6 C     3450   1 H                                       1.0862704
  3307   6 C     3451   1 H                                       1.0917113
  3307   6 C     3452   1 H                                       1.0940813
  3305   6 C     3453   1 H                                       1.0944721
  3306   6 C     3454   1 H                                       1.0881438
  3306   6 C     3455   1 H                                       1.0866261
  3306   6 C     3456   1 H                                       1.0875258
  3304   6 C     3457   1 H                                       1.0910774
  3304   6 C     3458   1 H                                       1.0918010
  3302   6 C     3459   1 H                                       1.0964315
  3303   6 C     3460   1 H                                       1.0863697
  3303   6 C     3461   1 H                                       1.0877094
  3303   6 C     3462   1 H                                       1.0878121
  3301   6 C     3463   1 H                                       1.0924568
  3301   6 C     3464   1 H                                       1.0913289
  3299   6 C     3465   1 H                                       1.0917682
  3300   6 C     3466   1 H                                       1.0886324
  3300   6 C     3467   1 H                                       1.0867350
  3300   6 C     3468   1 H                                       1.0875856
  3298   6 C     3469   1 H                                       1.0911531
  3298   6 C     3470   1 H                                       1.0940763
  3296   6 C     3471   1 H                                       1.0904716
  3297   6 C     3472   1 H                                       1.0877935
  3297   6 C     3473   1 H                                       1.0858623
  3297   6 C     3474   1 H                                       1.0871743
  3295   6 C     3475   1 H                                       1.0918339
  3295   6 C     3476   1 H                                       1.0940646
  3293   6 C     3477   1 H                                       1.0912852
  3294   6 C     3478   1 H                                       1.0879357
  3294   6 C     3479   1 H                                       1.0870305
  3294   6 C     3480   1 H                                       1.0878515
  3292   6 C     3481   1 H                                       1.0922538
  3292   6 C     3482   1 H                                       1.0938025
  3290   6 C     3483   1 H                                       1.0916895
  3291   6 C     3484   1 H                                       1.0867356
  3291   6 C     3485   1 H                                       1.0882399
  3291   6 C     3486   1 H                                       1.0885409
  3289   6 C     3487   1 H                                       1.0931052
  3289   6 C     3488   1 H                                       1.0932865
  3287   6 C     3489   1 H                                       1.0937189
  3288   6 C     3490   1 H                                       1.0869942
  3288   6 C     3491   1 H                                       1.0872892
  3288   6 C     3492   1 H                                       1.0880023
  3286   6 C     3493   1 H                                       1.0933334
  3286   6 C     3494   1 H                                       1.0934351
  3284   6 C     3495   1 H                                       1.0933190
  3285   6 C     3496   1 H                                       1.0870406
  3285   6 C     3497   1 H                                       1.0886938
  3285   6 C     3498   1 H                                       1.0884089
  3283   6 C     3499   1 H                                       1.0893918
  3283   6 C     3500   1 H                                       1.0920095
  3281   6 C     3501   1 H                                       1.0944707
  3282   6 C     3502   1 H                                       1.0881638
  3282   6 C     3503   1 H                                       1.0876185
  3282   6 C     3504   1 H                                       1.0865206
  3280   6 C     3505   1 H                                       1.0930817
  3280   6 C     3506   1 H                                       1.0936523
  3278   6 C     3507   1 H                                       1.0931315
  3279   6 C     3508   1 H                                       1.0866287
  3279   6 C     3509   1 H                                       1.0885578
  3279   6 C     3510   1 H                                       1.0863036
  3277   6 C     3511   1 H                                       1.0932222
  3277   6 C     3512   1 H                                       1.0936905
  3275   6 C     3513   1 H                                       1.0923432
  3276   6 C     3514   1 H                                       1.0880954
  3276   6 C     3515   1 H                                       1.0866283
  3276   6 C     3516   1 H                                       1.0878556
  3274   6 C     3517   1 H                                       1.0921014
  3274   6 C     3518   1 H                                       1.0933113
  3272   6 C     3519   1 H                                       1.0930796
  3273   6 C     3520   1 H                                       1.0881442
  3273   6 C     3521   1 H                                       1.0880671
  3273   6 C     3522   1 H                                       1.0863218
  3271   6 C     3523   1 H                                       1.0923941
  3271   6 C     3524   1 H                                       1.0934285
  3269   6 C     3525   1 H                                       1.0924517
  3270   6 C     3526   1 H                                       1.0876954
  3270   6 C     3527   1 H                                       1.0877145
  3270   6 C     3528   1 H                                       1.0867427
  3268   6 C     3529   1 H                                       1.0916555
  3268   6 C     3530   1 H                                       1.0938522
  3266   6 C     3531   1 H                                       1.0942798
  3267   6 C     3532   1 H                                       1.0880438
  3267   6 C     3533   1 H                                       1.0877193
  3267   6 C     3534   1 H                                       1.0881686
  3353   6 C     3535   1 H                                       1.0928213
  3353   6 C     3536   1 H                                       1.0913593

 * 2 distinct bonds (by element types)

   Z      Z             #   av. dist./Å        max./Å        min./Å
   1 H    6 C        2366     1.0900603     1.0972695     1.0840615
   6 C    6 C        1116     1.5326049     1.5399734     1.5232950


optimized geometry written to: xtbopt.xyz


           -------------------------------------------------
          | TOTAL ENERGY            -3716.243140365668 Eh   |
          | GRADIENT NORM               0.000969504277 Eh/α |
          | HOMO-LUMO GAP              11.493616837744 eV   |
           -------------------------------------------------

------------------------------------------------------------------------
 * finished run on 2024/10/04 at 21:16:04.399     
------------------------------------------------------------------------
 total:
 * wall-time:     0 d,  7 h,  3 min, 26.814 sec
 *  cpu-time:     1 d, 14 h,  6 min,  6.236 sec
 * ratio c/w:     5.399 speedup
 SCF:
 * wall-time:     0 d,  0 h, 17 min, 28.054 sec
 *  cpu-time:     0 d,  1 h, 53 min, 22.324 sec
 * ratio c/w:     6.490 speedup
 ANC optimizer:
 * wall-time:     0 d,  6 h, 44 min, 30.572 sec
 *  cpu-time:     1 d, 12 h, 10 min, 58.556 sec
 * ratio c/w:     5.367 speedup

