3864
 energy: -5104.275396801850 gnorm: 0.000872197909 xtb: 6.6.1 (8d0f1dd)
C           63.05110278408592       33.30856826524796       48.17896864811846
C           62.46986027413858       34.55203639314007       48.39838519246555
C           61.20440956662567       34.59684956813737       48.97002346467180
C           60.53718492061683       33.43369738720672       49.31163847201532
C           61.12528692876148       32.20218237482172       49.08678156639813
C           62.38605517520735       32.14401306405927       48.51857861399915
C           63.19597271016633       35.82719251204158       48.04864713221001
C           64.48106201629547       35.95283580647460       48.87123987458511
C           63.50266410037414       35.90388540687131       46.54683180791101
C           62.22924891836948       36.01125678945510       45.69577244812508
C           61.49582254083789       37.29199865506412       46.00490693992517
C           60.23843541292089       37.26174832382367       46.59482889256853
C           59.55529794355747       38.43452025382214       46.86610309789593
C           60.11466059345543       39.65479600991367       46.53433085856578
C           61.37159648685102       39.69969846623415       45.95637741390706
C           62.05901516242933       38.52726177865695       45.70248862098374
C           62.57823136584393       35.92627203816296       44.20212657630037
C           61.34321693586380       36.08468463466627       43.30746001493974
C           60.38418940007991       34.93030787396971       43.46051663807206
C           60.76931539736600       33.62793570482616       43.16521588612077
C           59.86918709681280       32.58194656080693       43.26245391289930
C           58.56105205947719       32.82183826693855       43.64656272216899
C           58.16386898160646       34.11413672864443       43.94086400485386
C           59.07098866256592       35.15554867257803       43.85396112643039
C           61.71653947212519       36.24178534836250       41.82254965510954
C           62.24274116828178       37.64371178450064       41.47842577691681
C           63.72445715120286       37.79919803543551       41.72165926529840
C           64.19630576478116       38.83342058508442       42.52213806905741
C           65.55253163757921       39.02113614671738       42.72195903848610
C           66.46550009955619       38.17543668793353       42.11614440572959
C           66.00995775035204       37.14627981868704       41.30935196929524
C           64.65289523193634       36.96300789470256       41.11233217620011
C           61.97444645406647       38.03568741581923       40.01328326051731
C           60.49822725027730       38.11840647045934       39.58322505206262
C           60.46081482866379       38.57603577566908       38.14580666890578
C           60.09386498256106       37.69123692078006       37.13966349490903
C           60.09045494557434       38.08438870201570       35.81265226987173
C           60.45478423279604       39.37514365435396       35.47005473754336
C           60.82238186257774       40.26453382776369       36.46447018905815
C           60.82852399886652       39.86766690857451       37.78834101006117
C           59.67452168175475       39.02782167824434       40.50072772856567
C           58.20315103259857       39.15451541069459       40.07343300805776
C           57.59039225029534       37.79641865931596       39.84537180494522
C           57.55974150573481       36.84071100962412       40.85551498903590
C           57.00998392193554       35.59059346923832       40.63742327058722
C           56.47633634960157       35.27341444398259       39.39972236523780
C           56.50092809865227       36.21517129669858       38.38560511037442
C           57.05194324412002       37.46498046468120       38.60847207037452
C           57.43083466988170       39.92211895314674       41.15590628080881
C           55.95641680516675       40.16669479015042       40.80104871402128
C           55.83792631828957       41.21670461255615       39.72246888656962
C           56.26862272734452       42.52197066530158       39.94035939354223
C           56.18641124096800       43.47591437319005       38.94227459766867
C           55.66222269667681       43.14283229155212       37.70451359917870
C           55.20537111824463       41.85547512573928       37.48129268296266
C           55.29647322571576       40.90311804510815       38.48256815733966
C           55.16663065644965       40.58612509103860       42.05143055887130
C           54.94025946578500       39.43055135302301       43.04719300515494
C           53.68502895459913       38.66264483980727       42.72645987594365
C           52.42542816833870       39.20865527050710       42.94759126236337
C           51.27986297777753       38.47135841631237       42.71310836431926
C           51.37340867884913       37.17547619808242       42.23342480116964
C           52.61886211845705       36.63175846461098       41.97466019493558
C           53.76351600459288       37.36953075644727       42.22392154900586
C           54.92873822125783       39.99568381066808       44.47728751036703
C           54.50767806166214       39.00741246398135       45.57550110543659
C           54.33607494492860       39.77609656910887       46.86473265032285
C           53.09144438296513       39.82910344909254       47.47980318605553
C           52.88131581989815       40.60512828475468       48.60528632739129
C           53.91921477997478       41.34888953760130       49.13687114027075
C           55.17009847589120       41.28916139017925       48.54815621436821
C           55.37710660494471       40.50581684979649       47.42647371736555
C           55.49194726474601       37.83763814724779       45.69546105229735
C           55.13830901166087       36.86150547022772       46.82841038409008
C           53.68027251551774       36.48000246037078       46.81499235125855
C           53.07457532893184       36.02553940857815       45.64794629906974
C           51.73650688099080       35.68135806254634       45.63072923675814
C           50.98092689432335       35.76824497700684       46.78763205781180
C           51.57407906290770       36.20704223152705       47.95820495379107
C           52.91203629784941       36.56360351428074       47.96879131080583
C           56.00615189436365       35.59040679437209       46.72780559335300
C           56.30788383501005       34.96697032762555       48.09947260957554
C           56.80080529964850       33.55022586009286       47.94556400790582
C           57.94782839597929       33.27346681133851       47.20899707597130
C           58.41939984374508       31.98035404018037       47.08694462771781
C           57.75979833534424       30.93786303345865       47.71563245458998
C           56.62029088769922       31.19896709105361       48.45588003272325
C           56.14286767887091       32.49376429705240       48.56203130302767
C           57.35330069783593       35.81224869434732       48.85695672515126
C           56.84124731311777       36.45551129320685       50.15252183419181
C           57.75281377155787       37.60534385445657       50.49830071855398
C           59.04201982956290       37.39379689648308       50.97345030161192
C           59.87431429633913       38.46117755731333       51.25626808524521
C           59.43801104179667       39.75895216855231       51.05252751911499
C           58.16468269441432       39.97814830679272       50.55998651105831
C           57.32861844252118       38.91024200468626       50.28827270305013
C           56.73147815252509       35.43844788902631       51.29242500273359
C           56.21363602116087       36.09746428979494       52.57778238885621
C           54.86666889242713       36.72578839955050       52.31449914466470
C           54.71396305896393       38.10333539292056       52.41321683593002
C           53.51888155064010       38.71536426493692       52.08128473138976
C           52.44777494439068       37.95103905301789       51.65443398678094
C           52.57365703667604       36.57373933038831       51.58299070940844
C           53.77547306389351       35.96884719801081       51.90604939275909
C           56.15280248761828       35.11985255414333       53.76124464636849
C           57.51904775552712       34.62063477318911       54.27621401292681
C           57.27992636834902       33.72428461079797       55.46603314287556
C           57.56788818792153       32.36761970878018       55.39858016915500
C           57.32939397230953       31.53489192027554       56.47844599324426
C           56.80822612234437       32.04931357732066       57.65281902660281
C           56.52847426237155       33.40278797012777       57.73584929906836
C           56.75717113283247       34.22801340629498       56.65080864079122
C           58.45528208661171       35.78646391524816       54.62296016315046
C           59.76111853670694       35.37062876920317       55.32043454729077
C           60.53166813442677       34.38055016243097       54.48661528796774
C           60.73089480192247       33.08427013299330       54.94353306078420
C           61.42201264835292       32.15936572257866       54.18078066821079
C           61.93841328608371       32.52134547399613       52.94885676390227
C           61.76168090424084       33.81491669131183       52.48883934825786
C           61.05997029043458       34.73180037018697       53.24934468940899
C           60.58408718486290       36.63614210102255       55.60144613829647
C           61.95119630877697       36.36840251507039       56.24625015332435
C           61.81974574186805       35.59779119157836       57.53288108082243
C           61.07505771744010       36.09376761107931       58.59661197167745
C           60.96495319922779       35.38407146101608       59.77828223124278
C           61.60005813167923       34.16184609323478       59.91625032046488
C           62.34152797620081       33.65489885249180       58.86267466979955
C           62.44860282756515       34.36837205214407       57.68170752198025
C           62.66277263198846       37.71077742216045       56.47055971210082
C           64.11847931774216       37.57942516121922       56.93681910873121
C           64.93175027391091       36.77624488831001       55.95306439424922
C           65.57531699242820       35.61385825152527       56.35803312250411
C           66.34707498055215       34.88253508976107       55.47188167600228
C           66.49036240754452       35.30585695266101       54.16156738026105
C           65.85017999856484       36.45933932985111       53.74242747666623
C           65.07707174578680       37.18439909855166       54.63093389875330
C           64.72140026010945       38.98300533295519       57.11411840598203
C           66.18191724203422       38.94699581703640       57.57907384281234
C           66.28116658062925       38.46114204065311       59.00558835678016
C           65.65492156657355       39.13436745191024       60.04822252707191
C           65.76102109132596       38.68715976913833       61.35178780010416
C           66.49840877676478       37.55167663667356       61.63892170314515
C           67.12947869590317       36.87150126519686       60.61188933000714
C           67.02162471995260       37.32554492200909       59.30885640959729
C           66.88049871056528       40.31436264893966       57.46050075252697
C           66.93725500840279       40.91514422237895       56.04338248569844
H           62.54641693063352       36.67170763371664       48.30528069140932
H           64.13559568821623       36.77416688227446       46.35946318869951
H           64.06305800940065       35.01784870380360       46.24130565453275
H           61.57711848604109       35.16487975057041       45.94520437984931
H           63.29836729176714       36.70582861719656       43.95105896417451
H           63.05724491899776       34.96514713650902       44.00401958799564
H           60.82009629217904       36.99571718709742       43.61960659290569
H           62.45099753963663       35.48413933760312       41.54796686825441
H           60.81644709359225       36.04873519734793       41.23607093415118
H           61.73052385472581       38.36493087252482       42.12135497178882
H           62.47421575059540       37.31663404487750       39.35931221094716
H           60.06209508600493       37.11423770767307       39.62063832203979
H           59.70085063872055       38.61398715465315       41.50942447283681
H           60.12253930398872       40.02224852491524       40.52953736093639
H           58.15346403186548       39.71701517462608       39.13418246803905
H           57.48956493948322       39.35451350965037       42.08552931815397
H           57.92292422904101       40.88069106879888       41.33090733393060
H           55.52551770021041       39.23248024901095       40.42330882621125
H           55.71097697410723       41.38485237597028       42.55783196886142
H           54.20020248834871       40.98900891761762       41.73980833497056
H           55.77627994294140       38.73012366460429       42.96451095023221
H           53.53188564570447       38.59190058018594       45.30209717340885
H           55.50195879624592       37.29652534316723       44.74755411602368
H           56.50037363645412       38.21966306020695       45.87118693423997
H           55.35015991230938       37.36313942616945       47.77720452517462
H           55.48838660100545       34.85454622824966       46.10650343258314
H           56.95029746157481       35.83112441204288       46.23584281502753
H           55.37210060699604       34.94290282439172       48.66796137712661
H           58.22139355974619       35.19552317105642       49.09291840589941
H           57.69939189401489       36.61200245205506       48.20188127910480
H           55.84118974631905       36.86329691729308       49.96610103724876
H           56.05155297979300       34.64050372217896       50.98673601461032
H           57.70624137857547       34.98558412809750       51.48076876025381
H           56.89895435224908       36.90907917680110       52.83766093576939
H           55.62682992585025       35.61416769435402       54.58235529548886
H           55.56059475253923       34.24408276135404       53.48448097359030
H           57.99584265624448       34.01417625032781       53.49875099936897
H           58.71784742118523       36.30700379924480       53.70115199495100
H           57.92996645938707       36.49072076885726       55.26908903628459
H           59.51805517143904       34.89182882708067       56.27577049471798
H           60.75351897248119       37.16422553803696       54.66133777533567
H           59.99931277839815       37.29322742879409       56.24808366617970
H           62.55043025132421       35.77070927006013       55.54965352472806
H           62.64870307758196       38.26219099420695       55.52826449532250
H           62.10678907594231       38.29120896299337       57.20963169085699
H           64.13574418569458       37.06390358881359       57.90420594818702
H           64.66108291763297       39.50603713349616       56.16028521899823
H           64.12132909589755       39.53391946159034       57.83963542193596
H           64.03668219282173       33.24226443961820       47.74045489902212
H           62.85515013987480       31.18598727309816       48.34082809446507
H           60.60246479282436       31.29410308019898       49.35132196305368
H           59.55316544575626       33.48019568132728       49.75638926820617
H           60.74250177547737       35.55734354517136       49.15256320395343
H           59.79661008747443       36.30589019381197       46.84145172648816
H           58.58472197293801       38.40266855297219       47.34119277007157
H           59.57317236831297       40.56558093330473       46.73032199199553
H           61.81714270044247       40.64974772975721       45.69664678897643
H           63.04224060581171       38.57356272752052       45.25749134554616
H           61.78294846798935       33.42363403030080       42.85149637211436
H           60.18812219673967       31.57472793437135       43.03219365442815
H           57.85588692730597       32.00629186043109       43.72012787998859
H           57.14410876764575       34.30523049478876       44.24103690625545
H           58.75650210102373       36.16083667339930       44.09930135465522
H           63.49084786793869       39.49955826813665       42.99732303359232
H           65.89926631324009       39.83067089317088       43.34855354229322
H           67.52568851737412       38.31884393616782       42.26703235268744
H           66.71678140129644       36.48643304459111       40.82622299858797
H           64.31828649650969       36.16034793674439       40.47065223311631
H           62.43901482705166       39.00947081205398       39.83844753968699
H           59.80456593303283       36.68083516254949       37.39750945561795
H           59.80430436152987       37.37842011828610       35.04439624947957
H           60.45122798916430       39.68808991910630       34.43549485007151
H           61.11155557117301       41.27252563455420       36.20785109213917
H           61.12405259989179       40.57879197606987       38.54522273145889
H           57.98070869897164       37.06128777639058       41.82512989843327
H           57.00766500744987       34.85842471456018       41.43316226233103
H           56.04732270994331       34.29690235645824       39.22480792236624
H           56.09415265682241       35.97030989448677       37.41426499685866
H           57.07137694409458       38.19285346709557       37.80868776878474
H           56.67793914626409       42.80326704251552       40.89959143490427
H           56.53216077119487       44.48367622211650       39.12667703173245
H           55.60952415880761       43.88543928757726       36.92115509766580
H           54.77432097870994       41.58632723088396       36.52552654119209
H           54.93450878069020       39.90214281549829       38.29314843637047
H           52.33638094247631       40.21889055916267       43.31754921942710
H           50.31123203825667       38.90842773249507       42.90920470798482
H           50.48071384504949       36.59254515764717       42.05367113595263
H           52.70160704855532       35.62668904462627       41.58303025868668
H           54.73199454103324       36.92854451644777       42.02226754718611
H           55.93022478294232       40.37130033976970       44.69743456199829
H           54.25115644788218       40.84868802743298       44.52063671840354
H           52.27391850794336       39.25256863850372       47.06905361029513
H           51.90106394877728       40.64242865266686       49.05787648283094
H           53.74892238338836       41.97612669106388       49.99976954651434
H           55.98544351929812       41.86658369072401       48.95838477737240
H           56.36057118105281       40.47144667141723       46.98035618867251
H           53.64557632097156       35.94997833523605       44.73378195748843
H           51.28351255733352       35.34898742203144       44.70695769291810
H           49.93767404209850       35.48971939193276       46.77569925800381
H           50.98975036641767       36.27842644468389       48.86480331122381
H           53.35778983279917       36.92007468287319       48.88769718341060
H           58.48525130290112       34.07386296490305       46.72318367104864
H           59.30950812498896       31.78881199826709       46.50432221942540
H           58.13214183107007       29.92664147834646       47.63121399854062
H           56.10545239819641       30.38962406906430       48.95487679161367
H           55.24460043199321       32.68427329248751       49.13408434482210
H           59.39864977682965       36.38441065804004       51.12498013354682
H           60.87187945499517       38.28481610137059       51.63320749643709
H           60.09394449426357       40.58732734730797       51.27637623839227
H           57.81301610990731       40.98305665061908       50.38680278480798
H           56.33209821853009       39.09370145084492       49.90885313368507
H           55.55383783713367       38.70402763396678       52.73270921217101
H           53.42381605466317       39.78936081848685       52.14480479679279
H           51.51930467735247       38.42427536332907       51.37427316723248
H           51.73175700013527       35.97164852453677       51.26914694802044
H           53.86928985169990       34.89475599484501       51.82316267539160
H           57.98832079154454       31.95439942212825       54.49399744786175
H           57.55548556467789       30.48034809884792       56.39932825171398
H           56.62498091414350       31.40009973087741       58.49764646571656
H           56.13095852084670       33.81560790017393       58.65224517677917
H           56.52277706689611       35.27763306113587       56.72821889562949
H           60.33909248365807       32.79496737986612       55.90936215051879
H           61.55946714905527       31.15314474907281       54.55256876828768
H           62.47902475767270       31.80286297259200       52.34869695760433
H           62.16958128368212       34.10288588295258       51.53055644808093
H           60.93114518271757       35.73590729871594       52.87422729001504
H           60.56695852817001       37.04175870499400       58.50270630748702
H           60.38755387597065       35.78551454727360       60.59959541364869
H           61.51760606510238       33.60635671872833       60.83996157163389
H           62.83841899494523       32.69931032737843       58.96127668039661
H           63.02631266610629       33.96442245172819       56.86087906010599
H           65.47095448867245       35.28041963190924       57.38190975952726
H           66.84131063504861       33.98089354020356       55.80675820178129
H           67.09807827454262       34.74020486031414       53.47024160541223
H           65.96472433978460       36.79896598186161       52.72288325550194
H           64.58296474846574       38.07914949511568       54.28228301226930
H           67.51945923943691       36.78771800570431       58.51329211362498
H           67.70925565345233       35.98455759812143       60.82637873278856
H           66.58153610193204       37.19930757607358       62.65702220400301
H           65.26244676095855       39.22362712977871       62.14603335654058
H           65.07771011950895       40.02516541182411       59.85189795310753
H           64.26340561294897       35.86313488822441       49.93382463217912
H           65.19314306025815       35.17559208164962       48.60387909760717
H           64.94684186357625       36.91987500547847       48.69628010027012
H           66.72255942305016       38.23422453929510       56.94906086929463
H           66.38135207909244       41.03400759593313       58.11215362678868
H           67.90139551308580       40.19819750499547       57.83398966407292
C           67.56044501826101       39.94949672692497       55.02833987437486
C           67.67941620317426       42.22910582001353       56.10250627220315
C           66.98961040804545       43.42387707081517       55.94414158972117
C           67.63974286672149       44.64257278533147       56.02542433675120
C           69.00243236731133       44.68414247463794       56.26043048888035
C           69.70430765188971       43.50051420024936       56.41479681965100
C           69.04753905133389       42.28524900724954       56.34110752643866
H           65.92478741225189       43.39977029608907       55.76562569315214
H           67.08055446935387       45.56132228603845       55.91320138516871
H           69.51649343326115       45.63274890698492       56.32736336066764
H           70.76959671543716       43.52493447699455       56.59878613570747
H           69.61199691473284       41.37330223705313       56.47261361232065
C           67.71833255296895       40.58743936194649       53.64246010886175
H           68.52907309254647       39.60697990106755       55.39466293904905
H           66.91875775492242       39.07188175148924       54.92933254777103
C           67.86725101950181       39.55531667228744       52.55836491537351
C           67.07794214309229       39.61012852221265       51.41647770446753
C           67.18762708299468       38.64849783727114       50.42766003177916
C           68.09209956022336       37.61043879063798       50.56395491219259
C           68.89385709541024       37.55131083638802       51.69166253781808
C           68.78297375578232       38.51549377983707       52.67716279932029
H           66.36634917257918       40.41314603064453       51.29221148780167
H           66.55985052484583       38.71123662169968       49.55056972198426
H           68.17462955096917       36.85313857243167       49.79766514135220
H           69.60837965379972       36.74805480974261       51.80504726244670
H           69.41757393542407       38.45511797141349       53.54905396150588
H           65.91574882129335       41.13741863468901       55.71874158991528
H           66.84207099180044       41.20337370435681       53.42839876877818
H           68.58491798579877       41.25544769659640       53.63795207391441
C           51.26438939545955       55.32706277067618       69.65246662306375
C           51.39180878643005       54.22361766390208       68.81805467364197
C           52.27098182156026       54.30684139048049       67.74446668321373
C           53.01860960678505       55.44863476117482       67.52586588291358
C           52.89131916319536       56.53720078068466       68.37111766555547
C           52.00483718457462       56.47585806800917       69.43226580451555
C           50.61433480687985       52.96055067212181       69.09226497973498
C           49.71856757320464       52.59741993540758       67.90791876758981
C           51.57005556039788       51.80132260576759       69.41118079704100
C           52.43581029708291       52.10323577524400       70.63916719414435
C           51.59154825414578       52.28159241704640       71.87726701399301
C           51.71310326887977       53.43062077226857       72.64858058821467
C           50.95849955891664       53.60271228429093       73.79594222673413
C           50.06710704176106       52.62139755197678       74.19345276368570
C           49.94077994294346       51.46858758900278       73.43675013343241
C           50.69774975272146       51.30056127028839       72.29171138533617
C           53.48487964286929       51.01461676547986       70.92079971821197
C           54.46423370612567       50.72002155033360       69.77091504565979
C           55.49777581010638       49.73434176229333       70.26180588991936
C           56.46592699958406       50.10364055946161       71.18862754291943
C           57.40448306620983       49.19198631403488       71.63801633116695
C           57.39320987549971       47.89035783013063       71.16635274107661
C           56.43511494330922       47.50720894302418       70.24439198849984
C           55.49462673832306       48.42212044220746       69.80493983590792
C           55.10806031760539       51.99687216761725       69.21588200728574
C           56.16606666077721       51.71840129598911       68.13654945655099
C           55.61922473069786       50.81673148988714       67.06069315461961
C           54.59291638656414       51.21572300038857       66.21258819829318
C           54.09267759121057       50.35271710095810       65.25308277142923
C           54.61182670687035       49.07561299107451       65.12157559134559
C           55.63970309568519       48.67155521137357       65.95637616039517
C           56.13856137637670       49.53720149180180       66.91265348721788
C           56.66798881556732       53.05229006405249       67.56739715744878
C           57.65726744854391       52.87927351359028       66.40666500134743
C           58.76455767927771       51.92238175478958       66.78086569837861
C           58.98053430154752       50.76335774551926       66.04515601931585
C           59.98434753983393       49.87708717926583       66.39445807381098
C           60.79053881231305       50.13134883885304       67.48918995774511
C           60.58944064705869       51.28548616354245       68.22701226149628
C           59.58821378823624       52.17205714426894       67.87321002009041
C           58.26386896512842       54.22844289482912       65.98510780763135
C           57.27270154917019       55.20751322497031       65.32521173405712
C           57.78326128063276       56.61538743954273       65.50341714007097
C           57.03522154141584       57.56085331549443       66.19236549900687
C           57.52156715502519       58.83900266263718       66.40425699744709
C           58.77290714339748       59.19161899878529       65.93155243895477
C           59.52394725050806       58.26206926026921       65.23121723978944
C           59.03191270410126       56.98808573690135       65.01687718529060
C           57.06717059506373       54.88225470432484       63.84207080880274
C           55.87358159056599       55.62657684970262       63.21750031363823
C           54.61461822148342       54.79901704444125       63.29976733931014
C           54.54857904724378       53.54719898309051       62.69460449783944
C           53.39496711702695       52.78943266417254       62.76083333697785
C           52.28723932086702       53.26763721270478       63.44116055985079
C           52.33044717882834       54.51916648269177       64.02960771515353
C           53.48534876011011       55.28067828164912       63.94820542841078
C           56.15948045274893       55.98041785805204       61.74913681090005
C           57.03516899724838       57.22765709768511       61.62070435071932
C           56.37337624655558       58.47482203058004       62.15412550120040
C           55.04632378919450       58.78798010045102       61.88878806767676
C           54.48443603760546       59.96132070783708       62.35865395489937