      -----------------------------------------------------------      
     |                   =====================                   |     
     |                           x T B                           |     
     |                   =====================                   |     
     |                         S. Grimme                         |     
     |          Mulliken Center for Theoretical Chemistry        |     
     |                    University of Bonn                     |     
      -----------------------------------------------------------      

   * xtb version 6.6.1 (8d0f1dd) compiled by 'stahn@M-Bot' on 2023-08-01

   xtb is free software: you can redistribute it and/or modify it under
   the terms of the GNU Lesser General Public License as published by
   the Free Software Foundation, either version 3 of the License, or
   (at your option) any later version.
   
   xtb is distributed in the hope that it will be useful,
   but WITHOUT ANY WARRANTY; without even the implied warranty of
   MERCHANTABILITY or FITNESS FOR A PARTICULAR PURPOSE.  See the
   GNU Lesser General Public License for more details.
   
   Cite this work as:
   * C. Bannwarth, E. Caldeweyher, S. Ehlert, A. Hansen, P. Pracht,
     J. Seibert, S. Spicher, S. Grimme, WIREs Comput. Mol. Sci., 2020, 11,
     e01493. DOI: 10.1002/wcms.1493
   
   for GFN2-xTB:
   * C. Bannwarth, S. Ehlert and S. Grimme., J. Chem. Theory Comput., 2019,
     15, 1652-1671. DOI: 10.1021/acs.jctc.8b01176
   for GFN1-xTB:
   * S. Grimme, C. Bannwarth, P. Shushkov, J. Chem. Theory Comput., 2017,
     13, 1989-2009. DOI: 10.1021/acs.jctc.7b00118
   for GFN0-xTB:
   * P. Pracht, E. Caldeweyher, S. Ehlert, S. Grimme, ChemRxiv, 2019, preprint.
     DOI: 10.26434/chemrxiv.8326202.v1
   for GFN-FF:
   * S. Spicher and S. Grimme, Angew. Chem. Int. Ed., 2020, 59, 15665-15673.
     DOI: 10.1002/anie.202004239
   
   for ALPB and GBSA implicit solvation:
   * S. Ehlert, M. Stahn, S. Spicher, S. Grimme, J. Chem. Theory Comput.,
     2021, 17, 4250-4261. DOI: 10.1021/acs.jctc.1c00471
   
   for DFT-D4:
   * E. Caldeweyher, C. Bannwarth and S. Grimme, J. Chem. Phys., 2017,
     147, 034112. DOI: 10.1063/1.4993215
   * E. Caldeweyher, S. Ehlert, A. Hansen, H. Neugebauer, S. Spicher,
     C. Bannwarth and S. Grimme, J. Chem. Phys., 2019, 150, 154122.
     DOI: 10.1063/1.5090222
   * E. Caldeweyher, J.-M. Mewes, S. Ehlert and S. Grimme, Phys. Chem. Chem. Phys.
     2020, 22, 8499-8512. DOI: 10.1039/D0CP00502A
   
   for sTDA-xTB:
   * S. Grimme and C. Bannwarth, J. Chem. Phys., 2016, 145, 054103.
     DOI: 10.1063/1.4959605
   
   in the mass-spec context:
   * V. Asgeirsson, C. Bauer and S. Grimme, Chem. Sci., 2017, 8, 4879.
     DOI: 10.1039/c7sc00601b
   * J. Koopman and S. Grimme, ACS Omega 2019, 4, 12, 15120-15133.
     DOI: 10.1021/acsomega.9b02011
   
   for metadynamics refer to:
   * S. Grimme, J. Chem. Theory Comput., 2019, 155, 2847-2862
     DOI: 10.1021/acs.jctc.9b00143
   
   for SPH calculations refer to:
   * S. Spicher and S. Grimme, J. Chem. Theory Comput., 2021, 17, 1701-1714
     DOI: 10.1021/acs.jctc.0c01306
   
   with help from (in alphabetical order)
   P. Atkinson, C. Bannwarth, F. Bohle, G. Brandenburg, E. Caldeweyher
   M. Checinski, S. Dohm, S. Ehlert, S. Ehrlich, I. Gerasimov, C. Hölzer
   A. Katbashev, J. Koopman, C. Lavigne, S. Lehtola, F. März, M. Müller,
   F. Musil, H. Neugebauer, J. Pisarek, C. Plett, P. Pracht, F. Pultar,
   J. Seibert, P. Shushkov, S. Spicher, M. Stahn, M. Steiner, T. Strunk,
   J. Stückrath, T. Rose, and J. Unsleber
   
 * started run on 2024/07/12 at 00:12:10.437     

           -------------------------------------------------
          |                Calculation Setup                |
           -------------------------------------------------

          program call               : /home/abt-grimme/AK-bin/xtb input.xyz --input input.inp --opt --gbsa water
          hostname                   : boar016.thch.uni-bonn.de
          coordinate file            : input.xyz
          omp threads                :                     8

   ID    Z sym.   atoms
    1    6 C      1-146, 294-300, 306, 309-314, 323-468, 616-622, 628,
                  631-636, 645-790, 938-944, 950, 953-958, 967-1112,
                  1260-1266, 1272, 1275-1280, 1289-1434, 1582-1588, 1594,
                  1597-1602, 1611-1756, 1904-1910, 1916, 1919-1924,
                  1933-2078, 2226-2232, 2238, 2241-2246, 2255-2400,
                  2548-2554, 2560, 2563-2568, 2577-2722, 2870-2876, 2882,
                  2885-2890, 2899-3044, 3192-3198, 3204, 3207-3212,
                  3221-3366, 3514-3520, 3526, 3529-3534, 3543-3688,
                  3836-3842, 3848, 3851-3856
    2    1 H      147-293, 301-305, 307, 308, 315-322, 469-615, 623-627, 629,
                  630, 637-644, 791-937, 945-949, 951, 952, 959-966,
                  1113-1259, 1267-1271, 1273, 1274, 1281-1288, 1435-1581,
                  1589-1593, 1595, 1596, 1603-1610, 1757-1903, 1911-1915,
                  1917, 1918, 1925-1932, 2079-2225, 2233-2237, 2239, 2240,
                  2247-2254, 2401-2547, 2555-2559, 2561, 2562, 2569-2576,
                  2723-2869, 2877-2881, 2883, 2884, 2891-2898, 3045-3191,
                  3199-3203, 3205, 3206, 3213-3220, 3367-3513, 3521-3525,
                  3527, 3528, 3535-3542, 3689-3835, 3843-3847, 3849, 3850,
                  3857-3864

molecular fragmentation (1/2 indicates fragments):
111111111111111111111111111111111111111111111111111111111111111111111111
111111111111111111111111111111111111111111111111111111111111111111111111
111111111111111111111111111111111111111111111111111111111111111111111111
111111111111111111111111111111111111111111111111111111111111111111111111
111111111111111111111111111111111122222222222222222222222222222222222222
222222222222222222222222222222222222222222222222222222222222222222222222
222222222222222222222222222222222222222222222222222222222222222222222222
222222222222222222222222222222222222222222222222222222222222222222222222
222222222222222222222222222222222222222222222222222222222222222222222222
222222222222222222222222222222222222222222222222222222222222222222222222
222222222222222222222222222222222222222222222222222222222222222222222222
222222222222222222222222222222222222222222222222222222222222222222222222
222222222222222222222222222222222222222222222222222222222222222222222222
222222222222222222222222222222222222222222222222222222222222222222222222
222222222222222222222222222222222222222222222222222222222222222222222222
222222222222222222222222222222222222222222222222222222222222222222222222
222222222222222222222222222222222222222222222222222222222222222222222222
222222222222222222222222222222222222222222222222222222222222222222222222
222222222222222222222222222222222222222222222222222222222222222222222222
222222222222222222222222222222222222222222222222222222222222222222222222
222222222222222222222222222222222222222222222222222222222222222222222222
222222222222222222222222222222222222222222222222222222222222222222222222
222222222222222222222222222222222222222222222222222222222222222222222222
222222222222222222222222222222222222222222222222222222222222222222222222
222222222222222222222222222222222222222222222222222222222222222222222222
222222222222222222222222222222222222222222222222222222222222222222222222
222222222222222222222222222222222222222222222222222222222222222222222222
222222222222222222222222222222222222222222222222222222222222222222222222
222222222222222222222222222222222222222222222222222222222222222222222222
222222222222222222222222222222222222222222222222222222222222222222222222
222222222222222222222222222222222222222222222222222222222222222222222222
222222222222222222222222222222222222222222222222222222222222222222222222
222222222222222222222222222222222222222222222222222222222222222222222222
222222222222222222222222222222222222222222222222222222222222222222222222
222222222222222222222222222222222222222222222222222222222222222222222222
222222222222222222222222222222222222222222222222222222222222222222222222
222222222222222222222222222222222222222222222222222222222222222222222222
222222222222222222222222222222222222222222222222222222222222222222222222
222222222222222222222222222222222222222222222222222222222222222222222222
222222222222222222222222222222222222222222222222222222222222222222222222
222222222222222222222222222222222222222222222222222222222222222222222222
222222222222222222222222222222222222222222222222222222222222222222222222
222222222222222222222222222222222222222222222222222222222222222222222222
222222222222222222222222222222222222222222222222222222222222222222222222
222222222222222222222222222222222222222222222222222222222222222222222222
222222222222222222222222222222222222222222222222222222222222222222222222
222222222222222222222222222222222222222222222222222222222222222222222222
222222222222222222222222222222222222222222222222222222222222222222222222
222222222222222222222222222222222222222222222222222222222222222222222222
222222222222222222222222222222222222222222222222222222222222222222222222
222222222222222222222222222222222222222222222222222222222222222222222222
222222222222222222222222222222222222222222222222222222222222222222222222
222222222222222222222222222222222222222222222222222222222222222222222222
222222222222222222222222222222222222222222222222
# atoms in fragment 1/2:   322  3542
 fragment masses (1/2) :     2085.00    22935.05
CMA distance (Bohr)    :  19.600
constraining FC (au)   :  0.0500

           -------------------------------------------------
          |                 G F N 2 - x T B                 |
           -------------------------------------------------

        Reference                      10.1021/acs.jctc.8b01176
      * Hamiltonian:
        H0-scaling (s, p, d)           1.850000    2.230000    2.230000
        zeta-weighting                 0.500000
      * Dispersion:
        s8                             2.700000
        a1                             0.520000
        a2                             5.000000
        s9                             5.000000
      * Repulsion:
        kExp                           1.500000    1.000000
        rExp                           1.000000
      * Coulomb:
        alpha                          2.000000
        third order                    shell-resolved
        anisotropic                    true
        a3                             3.000000
        a5                             4.000000
        cn-shift                       1.200000
        cn-exp                         4.000000
        max-rad                        5.000000

      * Solvation model:               GBSA
        Solvent                        water
        Parameter file                 internal GFN2-xTB/GBSA
        Dielectric constant                8.0200E+01
        Reference state                gsolv [1 M gas/solution]
        Free energy shift                  1.8574E-03 Eh       1.1656E+00 kcal/mol
        Temperature                        2.9815E+02 K
        Density                            1.0000E+00 kg/L
        Solvent mass                       1.8000E+01 g/mol
        Interaction kernel             Still
        Born radius scaling (c1)           1.5524E+00
        Born radii integrator          GBOBC
        Born offset                        2.4628E-02 a0       4.6540E-02 AA
        H-bond correction              true
        Ion screening                  false
        Surface tension                    1.0000E-05 Eh       1.5569E+01 dyn/cm
        Grid points                               230 per atom
q/qsh data taken from xtbrestart
CAMM data taken from xtbrestart

          ...................................................
          :                      SETUP                      :
          :.................................................:
          :  # basis functions                9624          :
          :  # atomic orbitals                9624          :
          :  # shells                         5784          :
          :  # electrons                      9624          :
          :  max. iterations                   250          :
          :  Hamiltonian                  GFN2-xTB          :
          :  restarted?                       true          :
          :  GBSA solvation                   true          :
          :  PC potential                    false          :
          :  electronic temp.          300.0000000     K    :
          :  accuracy                    1.0000000          :
          :  -> integral cutoff          0.2500000E+02      :
          :  -> integral neglect         0.1000000E-07      :
          :  -> SCF convergence          0.1000000E-05 Eh   :
          :  -> wf. convergence          0.1000000E-03 e    :
          :  Broyden damping             0.4000000          :
          ...................................................

 iter      E             dE          RMSdq      gap      omega  full diag
   1  -5190.4936114 -0.519049E+04  0.855E-05    3.77       0.0  T
   2  -5190.4936114 -0.962791E-08  0.703E-05    3.77      22.9  T
   3  -5190.4936114 -0.669479E-08  0.589E-05    3.77      27.3  T

   *** convergence criteria satisfied after 3 iterations ***

         #    Occupation            Energy/Eh            Energy/eV
      -------------------------------------------------------------
         1        2.0000           -0.6343859             -17.2625
       ...           ...                  ...                  ...
      4806        2.0000           -0.3630730              -9.8797
      4807        2.0000           -0.3629237              -9.8757
      4808        2.0000           -0.3628035              -9.8724
      4809        2.0000           -0.3619209              -9.8484
      4810        2.0000           -0.3617719              -9.8443
      4811        2.0000           -0.3603223              -9.8049
      4812        2.0000           -0.3589452              -9.7674 (HOMO)
      4813                         -0.2202273              -5.9927 (LUMO)
      4814                         -0.2196787              -5.9778
      4815                         -0.2195387              -5.9740
      4816                         -0.2195013              -5.9729
      4817                         -0.2193742              -5.9695
       ...                                ...                  ...
      9624                          0.6681937              18.1825
      -------------------------------------------------------------
                  HL-Gap            0.1387180 Eh            3.7747 eV
             Fermi-level           -0.2895863 Eh           -7.8800 eV

 SCC (total)                   0 d,  0 h, 16 min, 28.408 sec
 SCC setup                      ...        0 min,  2.428 sec (  0.246%)
 Dispersion                     ...        0 min,  7.141 sec (  0.723%)
 classical contributions        ...        0 min,  0.166 sec (  0.017%)
 integral evaluation            ...        0 min, 11.885 sec (  1.202%)
 iterations                     ...       10 min, 38.438 sec ( 64.593%)
 molecular gradient             ...        5 min,  1.417 sec ( 30.495%)
 printout                       ...        0 min, 26.933 sec (  2.725%)

         :::::::::::::::::::::::::::::::::::::::::::::::::::::
         ::                     SUMMARY                     ::
         :::::::::::::::::::::::::::::::::::::::::::::::::::::
         :: total energy           -5103.340881419153 Eh    ::
         :: total w/o Gsasa/hb     -5103.153329765521 Eh    ::
         :: gradient norm              0.736335376456 Eh/a0 ::
         :: HOMO-LUMO gap              3.774708236807 eV    ::
         ::.................................................::
         :: SCC energy             -5190.493611376419 Eh    ::
         :: -> isotropic ES            0.282944806392 Eh    ::
         :: -> anisotropic ES          0.839897319059 Eh    ::
         :: -> anisotropic XC          3.454047978615 Eh    ::
         :: -> dispersion             -6.925466880981 Eh    ::
         :: -> Gsolv                  -0.198614660316 Eh    ::
         ::    -> Gelec               -0.011063006685 Eh    ::
         ::    -> Gsasa               -0.182497348480 Eh    ::
         ::    -> Ghb                 -0.006911748278 Eh    ::
         ::    -> Gshift               0.001857443127 Eh    ::
         :: repulsion energy          86.014724500165 Eh    ::
         :: add. restraining           0.000000000000 Eh    ::
         :: total charge              -0.000000000033 e     ::
         :::::::::::::::::::::::::::::::::::::::::::::::::::::

      ----------------------------------------------------------- 
     |              Fast Inertial Relaxation Engine              |
      ----------------------------------------------------------- 

          ...................................................
          :                      SETUP                      :
          :.................................................:
          :   energy convergence        0.5000000E-05 Eh    :
          :   grad. convergence         0.1000000E-02 Eh/a0 :
          :   optimization log               true           :
          :   writing optlog all                1     steps :
          :   Hessian reset                    20     steps :
          :   time step scaling                 5     steps :
          :   maximium step len.        1.0000000     a0    :
          :   initial time step         0.2500000     fs    :
          :   maximum time step         1.2500000     fs    :
          :   power reset thr           0.0000000     au    :
          :   alpha parameter           0.1000000           :
          :   BFGS update                   false           :
          :   preconditioning               false           :
          ...................................................

........................................................................
.............................. CYCLE    1 ..............................
........................................................................

 iter      E             dE          RMSdq      gap      omega  full diag
   1  -5190.7045414 -0.519070E+04  0.902E-03    3.79       0.0  T
   2  -5190.7045769 -0.354427E-04  0.552E-03    3.79       1.0  T
   3  -5190.7045667  0.101719E-04  0.295E-03    3.79       1.0  T
   4  -5190.7045853 -0.186321E-04  0.789E-04    3.79       2.0  T
   5  -5190.7045871 -0.178175E-05  0.272E-04    3.79       5.9  T
   6  -5190.7045872 -0.114532E-06  0.175E-04    3.79       9.2  T
   7  -5190.7045873 -0.423179E-07  0.121E-04    3.79      13.3  T
     SCC iter.                  ...       24 min, 43.571 sec
     gradient                   ...        5 min,  6.485 sec
 * total energy  : -5103.4017165 Eh     change    :  -0.6083504E-01 Eh
   gradient norm :     0.6768999 Eh/a0  converged?    E=F G=F D=F
   time step     :     0.2500000 fs     power     :   0.3092460E-05
   step length   :     0.0862969 a0     speed     :   0.8349692E-02

........................................................................
.............................. CYCLE    2 ..............................
........................................................................

 iter      E             dE          RMSdq      gap      omega  full diag
   1  -5191.0150225 -0.519102E+04  0.131E-02    3.80       0.0  T
   2  -5191.0150978 -0.753401E-04  0.803E-03    3.80       1.0  T
   3  -5191.0150765  0.212634E-04  0.427E-03    3.81       1.0  T
   4  -5191.0151154 -0.388464E-04  0.115E-03    3.80       1.4  T
   5  -5191.0151192 -0.379621E-05  0.404E-04    3.80       4.0  T
   6  -5191.0151194 -0.243636E-06  0.266E-04    3.80       6.0  T
   7  -5191.0151195 -0.100403E-06  0.185E-04    3.80       8.7  T
     SCC iter.                  ...       24 min, 39.846 sec
     gradient                   ...        5 min,  1.173 sec
 * total energy  : -5103.4814737 Eh     change    :  -0.7975719E-01 Eh
   gradient norm :     0.5943280 Eh/a0  converged?    E=F G=F D=F
   time step     :     0.2500000 fs     power     :   0.3946697E-05
   step length   :     0.1258851 a0     speed     :   0.1218006E-01

........................................................................
.............................. CYCLE    3 ..............................
........................................................................

 iter      E             dE          RMSdq      gap      omega  full diag
   1  -5191.4177222 -0.519142E+04  0.167E-02    3.82       0.0  T
   2  -5191.4178429 -0.120725E-03  0.102E-02    3.82       1.0  T
   3  -5191.4178088  0.340867E-04  0.536E-03    3.83       1.0  T
   4  -5191.4178700 -0.611780E-04  0.146E-03    3.83       1.1  T
   5  -5191.4178761 -0.613250E-05  0.513E-04    3.83       3.1  T
   6  -5191.4178765 -0.379018E-06  0.343E-04    3.83       4.7  T
   7  -5191.4178767 -0.170009E-06  0.239E-04    3.83       6.7  T
     SCC iter.                  ...       24 min, 38.633 sec
     gradient                   ...        5 min,  9.645 sec
 * total energy  : -5103.5680976 Eh     change    :  -0.8662396E-01 Eh
   gradient norm :     0.4968773 Eh/a0  converged?    E=F G=F D=F
   time step     :     0.2500000 fs     power     :   0.4144744E-05
   step length   :     0.1605062 a0     speed     :   0.1552984E-01

........................................................................
.............................. CYCLE    4 ..............................
........................................................................

 iter      E             dE          RMSdq      gap      omega  full diag
   1  -5191.9046455 -0.519190E+04  0.195E-02    3.84       0.0  T
   2  -5191.9048073 -0.161823E-03  0.119E-02    3.84       1.0  T
   3  -5191.9047608  0.465412E-04  0.614E-03    3.84       1.0  T
   4  -5191.9048417 -0.809251E-04  0.169E-03    3.84       1.0  T
   5  -5191.9048501 -0.833760E-05  0.595E-04    3.84       2.7  T
   6  -5191.9048505 -0.483184E-06  0.404E-04    3.84       4.0  T
   7  -5191.9048508 -0.240697E-06  0.281E-04    3.84       5.7  T
     SCC iter.                  ...       24 min, 44.659 sec
     gradient                   ...        5 min,  7.961 sec
 * total energy  : -5103.6496378 Eh     change    :  -0.8154018E-01 Eh
   gradient norm :     0.3988584 Eh/a0  converged?    E=F G=F D=F
   time step     :     0.2500000 fs     power     :   0.3729513E-05
   step length   :     0.1889033 a0     speed     :   0.1827741E-01

........................................................................
.............................. CYCLE    5 ..............................
........................................................................

 iter      E             dE          RMSdq      gap      omega  full diag
   1  -5192.4673775 -0.519247E+04  0.213E-02    3.86       0.0  T
   2  -5192.4675647 -0.187187E-03  0.130E-02    3.86       1.0  T
   3  -5192.4675083  0.563993E-04  0.654E-03    3.86       1.0  T
   4  -5192.4676016 -0.932923E-04  0.182E-03    3.86       1.0  T
   5  -5192.4676114 -0.988066E-05  0.644E-04    3.86       2.5  T
   6  -5192.4676120 -0.520808E-06  0.444E-04    3.86       3.6  T
   7  -5192.4676123 -0.298177E-06  0.307E-04    3.86       5.2  T
     SCC iter.                  ...       24 min, 42.551 sec
     gradient                   ...        5 min,  4.843 sec
 * total energy  : -5103.7169904 Eh     change    :  -0.6735259E-01 Eh
   gradient norm :     0.3228425 Eh/a0  converged?    E=F G=F D=F
   time step     :     0.2500000 fs     power     :   0.2891607E-05
   step length   :     0.2099810 a0     speed     :   0.2031679E-01

........................................................................
.............................. CYCLE    6 ..............................
........................................................................

 iter      E             dE          RMSdq      gap      omega  full diag
   1  -5193.1625113 -0.519316E+04  0.243E-02    3.87       0.0  T
   2  -5193.1627370 -0.225706E-03  0.147E-02    3.87       1.0  T
   3  -5193.1626629  0.740839E-04  0.709E-03    3.88       1.0  T
   4  -5193.1627765 -0.113662E-03  0.201E-03    3.88       1.0  T
   5  -5193.1627890 -0.124112E-04  0.715E-04    3.87       2.2  T
   6  -5193.1627895 -0.562542E-06  0.498E-04    3.87       3.2  T
   7  -5193.1627899 -0.384779E-06  0.338E-04    3.87       4.8  T
     SCC iter.                  ...       24 min, 39.426 sec
     gradient                   ...        5 min,  1.380 sec
 * total energy  : -5103.7705216 Eh     change    :  -0.5353123E-01 Eh
   gradient norm :     0.2938583 Eh/a0  converged?    E=F G=F D=F
   time step     :     0.2750000 fs     power     :   0.1837981E-05
   step length   :     0.2463641 a0     speed     :   0.2167004E-01

........................................................................
.............................. CYCLE    7 ..............................
........................................................................

 iter      E             dE          RMSdq      gap      omega  full diag
   1  -5193.9815743 -0.519398E+04  0.259E-02    3.89       0.0  T
   2  -5193.9817923 -0.218022E-03  0.155E-02    3.89       1.0  T
   3  -5193.9817125  0.798067E-04  0.681E-03    3.89       1.0  T
   4  -5193.9818239 -0.111403E-03  0.200E-03    3.89       1.0  T
   5  -5193.9818367 -0.128094E-04  0.734E-04    3.89       2.2  T
   6  -5193.9818372 -0.495982E-06  0.507E-04    3.89       3.2  T
   7  -5193.9818376 -0.426572E-06  0.337E-04    3.89       4.8  T
     SCC iter.                  ...       24 min, 38.053 sec
     gradient                   ...        5 min,  0.302 sec
 * total energy  : -5103.8085475 Eh     change    :  -0.3802593E-01 Eh
   gradient norm :     0.3220276 Eh/a0  converged?    E=F G=F D=F
   time step     :     0.3025000 fs     power     :   0.9988574E-06
   step length   :     0.2751347 a0     speed     :   0.2200063E-01

........................................................................
.............................. CYCLE    8 ..............................
........................................................................

 iter      E             dE          RMSdq      gap      omega  full diag
   1  -5194.8893234 -0.519489E+04  0.258E-02    3.91       0.0  T
   2  -5194.8894850 -0.161665E-03  0.153E-02    3.91       1.0  T
   3  -5194.8894264  0.586698E-04  0.549E-03    3.91       1.0  T
   4  -5194.8895020 -0.756259E-04  0.176E-03    3.91       1.0  T
   5  -5194.8895122 -0.101521E-04  0.690E-04    3.91       2.3  T
   6  -5194.8895125 -0.386189E-06  0.445E-04    3.91       3.6  T
   7  -5194.8895129 -0.379519E-06  0.288E-04    3.91       5.6  T
     SCC iter.                  ...       24 min, 36.085 sec
     gradient                   ...        5 min,  3.147 sec
 * total energy  : -5103.8391252 Eh     change    :  -0.3057763E-01 Eh
   gradient norm :     0.3644484 Eh/a0  converged?    E=F G=F D=F
   time step     :     0.3327500 fs     power     :   0.7185021E-06
   step length   :     0.2955583 a0     speed     :   0.2148524E-01

........................................................................
.............................. CYCLE    9 ..............................
........................................................................

 iter      E             dE          RMSdq      gap      omega  full diag
   1  -5195.8423580 -0.519584E+04  0.253E-02    3.93       0.0  T
   2  -5195.8424545 -0.964978E-04  0.148E-02    3.92       1.0  T
   3  -5195.8424369  0.176447E-04  0.354E-03    3.93       1.0  T
   4  -5195.8424633 -0.264259E-04  0.123E-03    3.92       1.3  T
   5  -5195.8424675 -0.413975E-05  0.601E-04    3.92       2.7  T
   6  -5195.8424678 -0.290338E-06  0.332E-04    3.92       4.8  T
   7  -5195.8424680 -0.267104E-06  0.216E-04    3.92       7.5  T
     SCC iter.                  ...       24 min, 37.331 sec
     gradient                   ...        5 min,  3.684 sec
 * total energy  : -5103.8751950 Eh     change    :  -0.3606983E-01 Eh
   gradient norm :     0.3758420 Eh/a0  converged?    E=F G=F D=F
   time step     :     0.3660250 fs     power     :   0.9385806E-06
   step length   :     0.3158410 a0     speed     :   0.2087242E-01

........................................................................
.............................. CYCLE   10 ..............................
........................................................................

 iter      E             dE          RMSdq      gap      omega  full diag
   1  -5196.7954815 -0.519680E+04  0.259E-02    3.94       0.0  T
   2  -5196.7955567 -0.751658E-04  0.151E-02    3.93       1.0  T
   3  -5196.7955238  0.329186E-04  0.410E-03    3.93       1.0  T
   4  -5196.7955698 -0.460575E-04  0.105E-03    3.93       1.5  T
   5  -5196.7955723 -0.248238E-05  0.509E-04    3.93       3.2  T
   6  -5196.7955725 -0.225415E-06  0.304E-04    3.93       5.3  T
   7  -5196.7955727 -0.156215E-06  0.172E-04    3.93       9.3  T
     SCC iter.                  ...       24 min, 36.675 sec
     gradient                   ...        5 min,  1.788 sec
 * total energy  : -5103.9234880 Eh     change    :  -0.4829299E-01 Eh
   gradient norm :     0.3316849 Eh/a0  converged?    E=F G=F D=F
   time step     :     0.4026275 fs     power     :   0.1209264E-05
   step length   :     0.3452759 a0     speed     :   0.2074330E-01

........................................................................
.............................. CYCLE   11 ..............................
........................................................................

 iter      E             dE          RMSdq      gap      omega  full diag
   1  -5197.6989194 -0.519770E+04  0.287E-02    3.94       0.0  T
   2  -5197.6990526 -0.133222E-03  0.170E-02    3.94       1.0  T
   3  -5197.6989417  0.110893E-03  0.695E-03    3.94       1.0  T
   4  -5197.6990904 -0.148762E-03  0.138E-03    3.94       1.2  T
   5  -5197.6990949 -0.446501E-05  0.584E-04    3.94       2.8  T
   6  -5197.6990957 -0.757157E-06  0.284E-04    3.93       5.7  T
   7  -5197.6990957 -0.488099E-07  0.138E-04    3.93      11.6  T
     SCC iter.                  ...       24 min, 33.691 sec
     gradient                   ...        5 min,  8.048 sec
 * total energy  : -5103.9734393 Eh     change    :  -0.4995130E-01 Eh
   gradient norm :     0.2345581 Eh/a0  converged?    E=F G=F D=F
   time step     :     0.4428903 fs     power     :   0.9288129E-06
   step length   :     0.3859263 a0     speed     :   0.2107771E-01

........................................................................
.............................. CYCLE   12 ..............................
........................................................................

 iter      E             dE          RMSdq      gap      omega  full diag
   1  -5198.4958984 -0.519850E+04  0.323E-02    3.93       0.0  T
   2  -5198.4961432 -0.244771E-03  0.195E-02    3.93       1.0  T
   3  -5198.4959741  0.169056E-03  0.931E-03    3.93       1.0  T
   4  -5198.4962186 -0.244464E-03  0.181E-03    3.93       1.0  T
   5  -5198.4962270 -0.837978E-05  0.683E-04    3.93       2.4  T
   6  -5198.4962280 -0.100004E-05  0.353E-04    3.93       4.6  T
   7  -5198.4962281 -0.876453E-07  0.208E-04    3.93       7.7  T
   8  -5198.4962281 -0.644004E-07  0.109E-04    3.93      14.8  T
     SCC iter.                  ...       28 min, 13.697 sec
     gradient                   ...        5 min,  7.098 sec
 * total energy  : -5103.9970477 Eh     change    :  -0.2360838E-01 Eh
   gradient norm :     0.1694219 Eh/a0  converged?    E=F G=F D=F
   time step     :     0.4871793 fs     power     :  -0.1505778E-06
   step length   :     0.4250280 a0     speed     :   0.2110298E-01

........................................................................
.............................. CYCLE   13 ..............................
........................................................................
 * reset velocities

 iter      E             dE          RMSdq      gap      omega  full diag
   1  -5198.4827754 -0.519848E+04  0.908E-04    3.93       0.0  T
   2  -5198.4827758 -0.378760E-06  0.547E-04    3.93       2.9  T
   3  -5198.4827757  0.272494E-07  0.248E-04    3.93       6.5  T
     SCC iter.                  ...       10 min, 37.395 sec
     gradient                   ...        5 min,  5.314 sec
 * total energy  : -5103.9986208 Eh     change    :  -0.1573102E-02 Eh
   gradient norm :     0.1644264 Eh/a0  converged?    E=F G=F D=F
   time step     :     0.2435896 fs     power     :   0.8440646E-07
   step length   :     0.0094253 a0     speed     :   0.9359513E-03

........................................................................
.............................. CYCLE   14 ..............................
........................................................................

 iter      E             dE          RMSdq      gap      omega  full diag
   1  -5198.4561372 -0.519846E+04  0.180E-03    3.93       0.0  T
   2  -5198.4561386 -0.141633E-05  0.108E-03    3.93       1.5  T
   3  -5198.4561385  0.934151E-07  0.451E-04    3.93       3.6  T
   4  -5198.4561387 -0.230777E-06  0.130E-04    3.93      12.4  T
     SCC iter.                  ...       14 min,  6.538 sec
     gradient                   ...        5 min,  1.252 sec
 * total energy  : -5104.0015835 Eh     change    :  -0.2962714E-02 Eh
   gradient norm :     0.1548344 Eh/a0  converged?    E=F G=F D=F
   time step     :     0.2435896 fs     power     :   0.1564324E-06
   step length   :     0.0185718 a0     speed     :   0.1844212E-02

........................................................................
.............................. CYCLE   15 ..............................
........................................................................

 iter      E             dE          RMSdq      gap      omega  full diag
   1  -5198.4168352 -0.519842E+04  0.258E-03    3.93       0.0  T
   2  -5198.4168382 -0.301128E-05  0.156E-03    3.93       1.0  T
   3  -5198.4168379  0.282577E-06  0.704E-04    3.93       2.3  T
   4  -5198.4168386 -0.651747E-06  0.201E-04    3.93       8.0  T
     SCC iter.                  ...       14 min,  5.143 sec
     gradient                   ...        5 min,  3.548 sec
 * total energy  : -5104.0056005 Eh     change    :  -0.4017033E-02 Eh
   gradient norm :     0.1415827 Eh/a0  converged?    E=F G=F D=F
   time step     :     0.2435896 fs     power     :   0.2085077E-06
   step length   :     0.0271769 a0     speed     :   0.2698706E-02

........................................................................
.............................. CYCLE   16 ..............................
........................................................................

 iter      E             dE          RMSdq      gap      omega  full diag
   1  -5198.3656359 -0.519837E+04  0.330E-03    3.93       0.0  T
   2  -5198.3656407 -0.479699E-05  0.199E-03    3.93       1.0  T
   3  -5198.3656402  0.513654E-06  0.890E-04    3.93       1.8  T
   4  -5198.3656413 -0.108977E-05  0.261E-04    3.93       6.2  T
   5  -5198.3656414 -0.172845E-06  0.887E-05    3.93      18.1  T
     SCC iter.                  ...       17 min, 36.504 sec
     gradient                   ...        5 min,  2.925 sec
 * total energy  : -5104.0102458 Eh     change    :  -0.4645309E-02 Eh
   gradient norm :     0.1260587 Eh/a0  converged?    E=F G=F D=F
   time step     :     0.2435896 fs     power     :   0.2366818E-06
   step length   :     0.0350146 a0     speed     :   0.3477011E-02

........................................................................
.............................. CYCLE   17 ..............................
........................................................................

 iter      E             dE          RMSdq      gap      omega  full diag
   1  -5198.3035666 -0.519830E+04  0.391E-03    3.92       0.0  T
   2  -5198.3035732 -0.659808E-05  0.234E-03    3.93       1.0  T
   3  -5198.3035725  0.680768E-06  0.102E-03    3.93       1.6  T
   4  -5198.3035740 -0.142439E-05  0.304E-04    3.93       5.3  T
   5  -5198.3035742 -0.234555E-06  0.104E-04    3.93      15.5  T
   6  -5198.3035742 -0.118380E-07  0.690E-05    3.93      23.3  T
     SCC iter.                  ...       21 min,  7.640 sec
     gradient                   ...        5 min,  4.300 sec
 * total energy  : -5104.0150801 Eh     change    :  -0.4834224E-02 Eh
   gradient norm :     0.1101639 Eh/a0  converged?    E=F G=F D=F
   time step     :     0.2435896 fs     power     :   0.2414008E-06
   step length   :     0.0419040 a0     speed     :   0.4161131E-02

........................................................................
.............................. CYCLE   18 ..............................
........................................................................

 iter      E             dE          RMSdq      gap      omega  full diag
   1  -5198.2320017 -0.519823E+04  0.438E-03    3.92       0.0  T
   2  -5198.2320096 -0.787239E-05  0.263E-03    3.92       1.0  T
   3  -5198.2320085  0.105993E-05  0.112E-03    3.92       1.4  T
   4  -5198.2320105 -0.191382E-05  0.348E-04    3.93       4.6  T
   5  -5198.2320108 -0.325379E-06  0.114E-04    3.93      14.1  T
   6  -5198.2320108 -0.130467E-07  0.739E-05    3.93      21.8  T
     SCC iter.                  ...       21 min,  6.335 sec
     gradient                   ...        4 min, 59.679 sec
 * total energy  : -5104.0197319 Eh     change    :  -0.4651811E-02 Eh
   gradient norm :     0.0962029 Eh/a0  converged?    E=F G=F D=F
   time step     :     0.2435896 fs     power     :   0.2275301E-06
   step length   :     0.0477070 a0     speed     :   0.4737385E-02

........................................................................
.............................. CYCLE   19 ..............................
........................................................................

 iter      E             dE          RMSdq      gap      omega  full diag
   1  -5198.1440668 -0.519814E+04  0.523E-03    3.92       0.0  T
   2  -5198.1440771 -0.102844E-04  0.314E-03    3.92       1.0  T
   3  -5198.1440753  0.184240E-05  0.129E-03    3.92       1.2  T
   4  -5198.1440782 -0.294013E-05  0.413E-04    3.92       3.9  T
   5  -5198.1440787 -0.481394E-06  0.131E-04    3.92      12.3  T
   6  -5198.1440787 -0.144973E-07  0.829E-05    3.92      19.4  T
     SCC iter.                  ...       21 min,  8.906 sec
     gradient                   ...        4 min, 59.817 sec
 * total energy  : -5104.0243828 Eh     change    :  -0.4650945E-02 Eh
   gradient norm :     0.0855402 Eh/a0  converged?    E=F G=F D=F
   time step     :     0.2679486 fs     power     :   0.1999447E-06
   step length   :     0.0581028 a0     speed     :   0.5245184E-02

........................................................................
.............................. CYCLE   20 ..............................
........................................................................

 iter      E             dE          RMSdq      gap      omega  full diag
   1  -5198.0402391 -0.519804E+04  0.606E-03    3.92       0.0  T
   2  -5198.0402510 -0.118875E-04  0.364E-03    3.92       1.0  T
   3  -5198.0402478  0.316518E-05  0.144E-03    3.92       1.1  T
   4  -5198.0402523 -0.450212E-05  0.463E-04    3.92       3.5  T
   5  -5198.0402529 -0.636244E-06  0.145E-04    3.92      11.1  T
   6  -5198.0402530 -0.130203E-07  0.878E-05    3.92      18.3  T
     SCC iter.                  ...       21 min,  7.506 sec
     gradient                   ...        5 min,  1.186 sec
 * total energy  : -5104.0288166 Eh     change    :  -0.4433767E-02 Eh
   gradient norm :     0.0806353 Eh/a0  converged?    E=F G=F D=F
   time step     :     0.2947435 fs     power     :   0.1677744E-06
   step length   :     0.0688237 a0     speed     :   0.5648185E-02
 * RMSD in coord.:     0.0409388 a0     energy gain  -0.6879352E+00 Eh

........................................................................
.............................. CYCLE   21 ..............................
........................................................................

 iter      E             dE          RMSdq      gap      omega  full diag
   1  -5197.9518446 -0.519795E+04  0.519E-03    3.92       0.0  T
   2  -5197.9518516 -0.701113E-05  0.312E-03    3.92       1.0  T
   3  -5197.9518486  0.298221E-05  0.118E-03    3.92       1.4  T
   4  -5197.9518525 -0.393421E-05  0.364E-04    3.92       4.4  T
   5  -5197.9518529 -0.406589E-06  0.118E-04    3.92      13.7  T
   6  -5197.9518529 -0.610726E-08  0.688E-05    3.92      23.4  T
     SCC iter.                  ...       21 min,  3.331 sec
     gradient                   ...        5 min,  0.603 sec
 * total energy  : -5104.0320881 Eh     change    :  -0.3271542E-02 Eh
   gradient norm :     0.0802206 Eh/a0  converged?    E=F G=F D=F
   time step     :     0.2500000 fs     power     :   0.1509930E-06
   step length   :     0.0601428 a0     speed     :   0.5819137E-02

........................................................................
.............................. CYCLE   22 ..............................
........................................................................

 iter      E             dE          RMSdq      gap      omega  full diag
   1  -5197.8670511 -0.519787E+04  0.521E-03    3.92       0.0  T
   2  -5197.8670563 -0.522475E-05  0.313E-03    3.92       1.0  T
   3  -5197.8670526  0.371565E-05  0.115E-03    3.92       1.4  T
   4  -5197.8670573 -0.470291E-05  0.310E-04    3.92       5.2  T
   5  -5197.8670576 -0.289779E-06  0.106E-04    3.92      15.1  T
   6  -5197.8670576 -0.224645E-08  0.583E-05    3.92      27.6  T
     SCC iter.                  ...       21 min,  6.679 sec
     gradient                   ...        4 min, 59.723 sec
 * total energy  : -5104.0351651 Eh     change    :  -0.3076945E-02 Eh
   gradient norm :     0.0801804 Eh/a0  converged?    E=F G=F D=F
   time step     :     0.2500000 fs     power     :   0.1450755E-06
   step length   :     0.0610628 a0     speed     :   0.5908150E-02

........................................................................
.............................. CYCLE   23 ..............................
........................................................................

 iter      E             dE          RMSdq      gap      omega  full diag
   1  -5197.7891294 -0.519779E+04  0.523E-03    3.92       0.0  T
   2  -5197.7891331 -0.368535E-05  0.314E-03    3.92       1.0  T
   3  -5197.7891288  0.429580E-05  0.113E-03    3.92       1.4  T
   4  -5197.7891341 -0.532454E-05  0.249E-04    3.92       6.5  T
   5  -5197.7891343 -0.175204E-06  0.963E-05    3.92      16.7  T
   6  -5197.7891343 -0.982254E-09  0.515E-05    3.92      31.2  T
     SCC iter.                  ...       21 min, 12.858 sec
     gradient                   ...        5 min,  3.995 sec
 * total energy  : -5104.0382080 Eh     change    :  -0.3042941E-02 Eh
   gradient norm :     0.0788620 Eh/a0  converged?    E=F G=F D=F
   time step     :     0.2500000 fs     power     :   0.1464481E-06
   step length   :     0.0616436 a0     speed     :   0.5964351E-02

........................................................................
.............................. CYCLE   24 ..............................
........................................................................

 iter      E             dE          RMSdq      gap      omega  full diag
   1  -5197.7205230 -0.519772E+04  0.527E-03    3.92       0.0  T
   2  -5197.7205256 -0.259109E-05  0.316E-03    3.92       1.0  T
   3  -5197.7205211  0.451971E-05  0.111E-03    3.92       1.5  T
   4  -5197.7205267 -0.553429E-05  0.204E-04    3.92       7.9  T
   5  -5197.7205268 -0.106093E-06  0.908E-05    3.92      17.7  T
   6  -5197.7205268 -0.263663E-08  0.487E-05    3.92      33.0  T
     SCC iter.                  ...       21 min, 12.624 sec
     gradient                   ...        4 min, 59.347 sec
 * total energy  : -5104.0412901 Eh     change    :  -0.3082075E-02 Eh
   gradient norm :     0.0759774 Eh/a0  converged?    E=F G=F D=F
   time step     :     0.2500000 fs     power     :   0.1502470E-06
   step length   :     0.0622375 a0     speed     :   0.6021813E-02

........................................................................
.............................. CYCLE   25 ..............................
........................................................................

 iter      E             dE          RMSdq      gap      omega  full diag
   1  -5197.6629106 -0.519766E+04  0.532E-03    3.92       0.0  T
   2  -5197.6629125 -0.191119E-05  0.318E-03    3.92       1.0  T
   3  -5197.6629082  0.426965E-05  0.106E-03    3.92       1.5  T
   4  -5197.6629134 -0.519068E-05  0.180E-04    3.92       9.0  T
   5  -5197.6629135 -0.757227E-07  0.918E-05    3.92      17.5  T
   6  -5197.6629135 -0.699401E-08  0.518E-05    3.92      31.1  T
     SCC iter.                  ...       21 min,  8.087 sec
     gradient                   ...        5 min,  1.258 sec
 * total energy  : -5104.0444094 Eh     change    :  -0.3119342E-02 Eh
   gradient norm :     0.0720871 Eh/a0  converged?    E=F G=F D=F
   time step     :     0.2500000 fs     power     :   0.1528841E-06
   step length   :     0.0629879 a0     speed     :   0.6094414E-02

........................................................................
.............................. CYCLE   26 ..............................
........................................................................

 iter      E             dE          RMSdq      gap      omega  full diag
   1  -5197.6130054 -0.519761E+04  0.590E-03    3.92       0.0  T
   2  -5197.6130073 -0.182907E-05  0.352E-03    3.92       1.0  T
   3  -5197.6130030  0.428021E-05  0.106E-03    3.92       1.5  T
   4  -5197.6130082 -0.519664E-05  0.187E-04    3.92       8.6  T
   5  -5197.6130082 -0.772625E-07  0.108E-04    3.92      14.9  T
   6  -5197.6130083 -0.164082E-07  0.676E-05    3.92      23.8  T
     SCC iter.                  ...       21 min,  4.537 sec
     gradient                   ...        5 min,  5.500 sec
 * total energy  : -5104.0478416 Eh     change    :  -0.3432213E-02 Eh
   gradient norm :     0.0676059 Eh/a0  converged?    E=F G=F D=F
   time step     :     0.2750000 fs     power     :   0.1518035E-06
   step length   :     0.0706117 a0     speed     :   0.6210965E-02

........................................................................
.............................. CYCLE   27 ..............................
........................................................................

 iter      E             dE          RMSdq      gap      omega  full diag
   1  -5197.5738694 -0.519757E+04  0.649E-03    3.92       0.0  T
   2  -5197.5738712 -0.182022E-05  0.385E-03    3.92       1.0  T
   3  -5197.5738678  0.344918E-05  0.967E-04    3.92       1.7  T
   4  -5197.5738720 -0.425312E-05  0.205E-04    3.92       7.8  T
   5  -5197.5738721 -0.887876E-07  0.129E-04    3.92      12.4  T
   6  -5197.5738722 -0.281952E-07  0.891E-05    3.92      18.1  T
     SCC iter.                  ...       21 min,  4.997 sec
     gradient                   ...        5 min,  0.450 sec
 * total energy  : -5104.0515291 Eh     change    :  -0.3687497E-02 Eh
   gradient norm :     0.0634156 Eh/a0  converged?    E=F G=F D=F
   time step     :     0.3025000 fs     power     :   0.1467767E-06
   step length   :     0.0795232 a0     speed     :   0.6358926E-02

........................................................................
.............................. CYCLE   28 ..............................
........................................................................

 iter      E             dE          RMSdq      gap      omega  full diag
   1  -5197.5484635 -0.519755E+04  0.702E-03    3.91       0.0  T
   2  -5197.5484653 -0.181148E-05  0.414E-03    3.91       1.0  T
   3  -5197.5484633  0.197858E-05  0.795E-04    3.91       2.0  T
   4  -5197.5484660 -0.263340E-05  0.227E-04    3.91       7.1  T
   5  -5197.5484661 -0.104479E-06  0.149E-04    3.91      10.8  T
   6  -5197.5484661 -0.406171E-07  0.106E-04    3.91      15.2  T
     SCC iter.                  ...       21 min,  3.688 sec
     gradient                   ...        5 min,  3.371 sec
 * total energy  : -5104.0554136 Eh     change    :  -0.3884479E-02 Eh
   gradient norm :     0.0598907 Eh/a0  converged?    E=F G=F D=F
   time step     :     0.3327500 fs     power     :   0.1391184E-06
   step length   :     0.0896784 a0     speed     :   0.6519057E-02

........................................................................
.............................. CYCLE   29 ..............................
........................................................................

 iter      E             dE          RMSdq      gap      omega  full diag
   1  -5197.5392192 -0.519754E+04  0.742E-03    3.91       0.0  T
   2  -5197.5392210 -0.187259E-05  0.438E-03    3.91       1.0  T
   3  -5197.5392198  0.127098E-05  0.739E-04    3.91       2.2  T
   4  -5197.5392217 -0.194440E-05  0.238E-04    3.91       6.8  T
   5  -5197.5392218 -0.913196E-07  0.165E-04    3.91       9.7  T
   6  -5197.5392219 -0.563014E-07  0.112E-04    3.91      14.3  T
     SCC iter.                  ...       21 min,  3.824 sec
     gradient                   ...        5 min,  3.227 sec
 * total energy  : -5104.0594551 Eh     change    :  -0.4041452E-02 Eh
   gradient norm :     0.0569739 Eh/a0  converged?    E=F G=F D=F
   time step     :     0.3660250 fs     power     :   0.1302715E-06
   step length   :     0.1010178 a0     speed     :   0.6675780E-02

........................................................................
.............................. CYCLE   30 ..............................
........................................................................

 iter      E             dE          RMSdq      gap      omega  full diag
   1  -5197.5477084 -0.519755E+04  0.766E-03    3.90       0.0  T
   2  -5197.5477105 -0.215601E-05  0.453E-03    3.90       1.0  T
   3  -5197.5477080  0.252439E-05  0.961E-04    3.90       1.7  T
   4  -5197.5477115 -0.346425E-05  0.238E-04    3.90       6.7  T
   5  -5197.5477116 -0.796499E-07  0.172E-04    3.90       9.4  T
   6  -5197.5477116 -0.610416E-07  0.113E-04    3.90      14.2  T
     SCC iter.                  ...       21 min,  7.079 sec
     gradient                   ...        5 min,  3.705 sec
 * total energy  : -5104.0636376 Eh     change    :  -0.4182572E-02 Eh
   gradient norm :     0.0552388 Eh/a0  converged?    E=F G=F D=F
   time step     :     0.4026275 fs     power     :   0.1215783E-06
   step length   :     0.1135255 a0     speed     :   0.6820323E-02

........................................................................
.............................. CYCLE   31 ..............................
........................................................................

 iter      E             dE          RMSdq      gap      omega  full diag
   1  -5197.5745129 -0.519757E+04  0.772E-03    3.90       0.0  T
   2  -5197.5745155 -0.255518E-05  0.459E-03    3.90       1.0  T
   3  -5197.5745113  0.420198E-05  0.116E-03    3.90       1.4  T
   4  -5197.5745167 -0.540314E-05  0.234E-04    3.90       6.9  T
   5  -5197.5745167 -0.815044E-07  0.162E-04    3.90       9.9  T
   6  -5197.5745168 -0.478522E-07  0.106E-04    3.90      15.2  T
     SCC iter.                  ...       21 min,  7.901 sec
     gradient                   ...        4 min, 59.496 sec
 * total energy  : -5104.0680216 Eh     change    :  -0.4383920E-02 Eh
   gradient norm :     0.0555999 Eh/a0  converged?    E=F G=F D=F
   time step     :     0.4428903 fs     power     :   0.1161264E-06
   step length   :     0.1272183 a0     speed     :   0.6948143E-02

........................................................................
.............................. CYCLE   32 ..............................
........................................................................

 iter      E             dE          RMSdq      gap      omega  full diag
   1  -5197.6195922 -0.519762E+04  0.772E-03    3.90       0.0  T
   2  -5197.6195948 -0.259864E-05  0.460E-03    3.90       1.0  T
   3  -5197.6195912  0.356793E-05  0.104E-03    3.90       1.6  T
   4  -5197.6195958 -0.453568E-05  0.219E-04    3.90       7.3  T
   5  -5197.6195959 -0.811970E-07  0.135E-04    3.90      11.9  T
   6  -5197.6195959 -0.263144E-07  0.862E-05    3.90      18.7  T
     SCC iter.                  ...       21 min,  4.669 sec
     gradient                   ...        5 min,  1.400 sec
 * total energy  : -5104.0728233 Eh     change    :  -0.4801758E-02 Eh
   gradient norm :     0.0561206 Eh/a0  converged?    E=F G=F D=F
   time step     :     0.4871793 fs     power     :   0.1176009E-06
   step length   :     0.1423772 a0     speed     :   0.7069143E-02

........................................................................
.............................. CYCLE   33 ..............................
........................................................................

 iter      E             dE          RMSdq      gap      omega  full diag
   1  -5197.6836698 -0.519768E+04  0.796E-03    3.90       0.0  T
   2  -5197.6836725 -0.266831E-05  0.474E-03    3.90       1.0  T
   3  -5197.6836709  0.155014E-05  0.738E-04    3.90       2.2  T
   4  -5197.6836730 -0.210406E-05  0.222E-04    3.90       7.3  T
   5  -5197.6836731 -0.104044E-06  0.107E-04    3.90      15.1  T
   6  -5197.6836731 -0.910768E-08  0.534E-05    3.90      30.1  T
     SCC iter.                  ...       21 min,  5.185 sec
     gradient                   ...        4 min, 59.302 sec
 * total energy  : -5104.0782768 Eh     change    :  -0.5453523E-02 Eh
   gradient norm :     0.0522153 Eh/a0  converged?    E=F G=F D=F
   time step     :     0.5358972 fs     power     :   0.1220765E-06
   step length   :     0.1600351 a0     speed     :   0.7223519E-02

........................................................................
.............................. CYCLE   34 ..............................
........................................................................

 iter      E             dE          RMSdq      gap      omega  full diag
   1  -5197.7700016 -0.519777E+04  0.870E-03    3.90       0.0  T
   2  -5197.7700056 -0.405616E-05  0.520E-03    3.90       1.0  T
   3  -5197.7699987  0.688680E-05  0.135E-03    3.90       1.2  T
   4  -5197.7700070 -0.825108E-05  0.258E-04    3.90       6.2  T
   5  -5197.7700072 -0.179757E-06  0.119E-04    3.90      13.6  T
   6  -5197.7700072 -0.824457E-08  0.559E-05    3.90      28.8  T
     SCC iter.                  ...       21 min,  5.632 sec
     gradient                   ...        5 min,  2.064 sec
 * total energy  : -5104.0841825 Eh     change    :  -0.5905667E-02 Eh
   gradient norm :     0.0439877 Eh/a0  converged?    E=F G=F D=F
   time step     :     0.5894869 fs     power     :   0.1159292E-06
   step length   :     0.1814136 a0     speed     :   0.7444073E-02

........................................................................
.............................. CYCLE   35 ..............................
........................................................................

 iter      E             dE          RMSdq      gap      omega  full diag
   1  -5197.8847973 -0.519788E+04  0.954E-03    3.90       0.0  T
   2  -5197.8848035 -0.618613E-05  0.578E-03    3.90       1.0  T
   3  -5197.8847849  0.186206E-04  0.214E-03    3.90       1.0  T
   4  -5197.8848074 -0.224812E-04  0.298E-04    3.90       5.4  T
   5  -5197.8848076 -0.220503E-06  0.142E-04    3.90      11.3  T
   6  -5197.8848076 -0.109685E-07  0.685E-05    3.90      23.5  T
     SCC iter.                  ...       21 min,  5.382 sec
     gradient                   ...        5 min,  6.309 sec
 * total energy  : -5104.0898824 Eh     change    :  -0.5699927E-02 Eh
   gradient norm :     0.0414078 Eh/a0  converged?    E=F G=F D=F
   time step     :     0.6484356 fs     power     :   0.9589809E-07
   step length   :     0.2060807 a0     speed     :   0.7687508E-02

........................................................................
.............................. CYCLE   36 ..............................
........................................................................

 iter      E             dE          RMSdq      gap      omega  full diag
   1  -5198.0299553 -0.519803E+04  0.990E-03    3.90       0.0  T
   2  -5198.0299620 -0.671217E-05  0.603E-03    3.90       1.0  T
   3  -5198.0299375  0.245749E-04  0.241E-03    3.90       1.0  T
   4  -5198.0299671 -0.296179E-04  0.290E-04    3.90       5.6  T
   5  -5198.0299673 -0.172168E-06  0.143E-04    3.90      11.2  T
   6  -5198.0299673 -0.103764E-07  0.703E-05    3.90      22.9  T
     SCC iter.                  ...       21 min,  2.964 sec
     gradient                   ...        5 min,  0.599 sec
 * total energy  : -5104.0952615 Eh     change    :  -0.5379022E-02 Eh
   gradient norm :     0.0427777 Eh/a0  converged?    E=F G=F D=F
   time step     :     0.7132792 fs     power     :   0.8188859E-07
   step length   :     0.2307584 a0     speed     :   0.7825516E-02

........................................................................
.............................. CYCLE   37 ..............................
........................................................................

 iter      E             dE          RMSdq      gap      omega  full diag
   1  -5198.1923512 -0.519819E+04  0.103E-02    3.90       0.0  T
   2  -5198.1923598 -0.857869E-05  0.615E-03    3.90       1.0  T
   3  -5198.1923428  0.170276E-04  0.227E-03    3.90       1.0  T
   4  -5198.1923635 -0.207002E-04  0.347E-04    3.90       4.6  T
   5  -5198.1923638 -0.318740E-06  0.146E-04    3.90      11.0  T
   6  -5198.1923638 -0.781620E-08  0.785E-05    3.90      20.5  T
     SCC iter.                  ...       21 min,  5.506 sec
     gradient                   ...        5 min,  0.650 sec
 * total energy  : -5104.1006376 Eh     change    :  -0.5376094E-02 Eh
   gradient norm :     0.0398023 Eh/a0  converged?    E=F G=F D=F
   time step     :     0.7846071 fs     power     :   0.7294440E-07
   step length   :     0.2557972 a0     speed     :   0.7886034E-02

........................................................................
.............................. CYCLE   38 ..............................
........................................................................

 iter      E             dE          RMSdq      gap      omega  full diag
   1  -5198.3369868 -0.519834E+04  0.105E-02    3.89       0.0  T
   2  -5198.3369957 -0.895192E-05  0.619E-03    3.89       1.0  T
   3  -5198.3369876  0.811218E-05  0.181E-03    3.89       1.0  T
   4  -5198.3369978 -0.101197E-04  0.343E-04    3.89       4.7  T
   5  -5198.3369980 -0.274891E-06  0.146E-04    3.89      11.0  T
   6  -5198.3369980 -0.805903E-08  0.778E-05    3.89      20.7  T
     SCC iter.                  ...       21 min,  5.763 sec
     gradient                   ...        5 min,  0.583 sec
 * total energy  : -5104.1059227 Eh     change    :  -0.5285146E-02 Eh
   gradient norm :     0.0424436 Eh/a0  converged?    E=F G=F D=F
   time step     :     0.8630678 fs     power     :   0.6370894E-07
   step length   :     0.2828412 a0     speed     :   0.7927073E-02

........................................................................
.............................. CYCLE   39 ..............................
........................................................................

 iter      E             dE          RMSdq      gap      omega  full diag
   1  -5198.4145419 -0.519841E+04  0.105E-02    3.89       0.0  T
   2  -5198.4145463 -0.442754E-05  0.620E-03    3.89       1.0  T
   3  -5198.4145410  0.536023E-05  0.132E-03    3.89       1.2  T
   4  -5198.4145477 -0.669841E-05  0.258E-04    3.89       6.2  T
   5  -5198.4145478 -0.117155E-06  0.133E-04    3.89      12.1  T
   6  -5198.4145478 -0.831733E-08  0.565E-05    3.89      28.5  T
     SCC iter.                  ...       21 min,  9.128 sec
     gradient                   ...        5 min,  0.984 sec
 * total energy  : -5104.1117627 Eh     change    :  -0.5839956E-02 Eh
   gradient norm :     0.0419528 Eh/a0  converged?    E=F G=F D=F
   time step     :     0.9493746 fs     power     :   0.6762740E-07
   step length   :     0.3113248 a0     speed     :   0.7932156E-02

........................................................................
.............................. CYCLE   40 ..............................
........................................................................

 iter      E             dE          RMSdq      gap      omega  full diag
   1  -5198.3910793 -0.519839E+04  0.109E-02    3.89       0.0  T
   2  -5198.3910875 -0.820198E-05  0.655E-03    3.90       1.0  T
   3  -5198.3910736  0.138864E-04  0.195E-03    3.90       1.0  T
   4  -5198.3910907 -0.170270E-04  0.353E-04    3.90       4.6  T
   5  -5198.3910909 -0.257469E-06  0.211E-04    3.90       7.6  T
   6  -5198.3910910 -0.355021E-07  0.130E-04    3.90      12.4  T
     SCC iter.                  ...       21 min,  7.459 sec
     gradient                   ...        5 min,  0.719 sec
 * total energy  : -5104.1184062 Eh     change    :  -0.6643541E-02 Eh
   gradient norm :     0.0391626 Eh/a0  converged?    E=F G=F D=F
   time step     :     1.0443120 fs     power     :   0.6831484E-07
   step length   :     0.3462580 a0     speed     :   0.8020190E-02

........................................................................
.............................. CYCLE   41 ..............................
........................................................................

 iter      E             dE          RMSdq      gap      omega  full diag
   1  -5198.2859879 -0.519829E+04  0.121E-02    3.89       0.0  T
   2  -5198.2860044 -0.164497E-04  0.727E-03    3.89       1.0  T
   3  -5198.2859902  0.141505E-04  0.219E-03    3.89       1.0  T
   4  -5198.2860078 -0.175809E-04  0.519E-04    3.89       3.1  T
   5  -5198.2860086 -0.803030E-06  0.239E-04    3.89       6.7  T
   6  -5198.2860087 -0.333976E-07  0.145E-04    3.89      11.1  T
     SCC iter.                  ...       21 min, 11.648 sec
     gradient                   ...        5 min,  0.193 sec
 * total energy  : -5104.1253365 Eh     change    :  -0.6930261E-02 Eh
   gradient norm :     0.0358616 Eh/a0  converged?    E=F G=F D=F
   time step     :     1.1487432 fs     power     :   0.6085728E-07
   step length   :     0.3875632 a0     speed     :   0.8160836E-02

........................................................................
.............................. CYCLE   42 ..............................
........................................................................

 iter      E             dE          RMSdq      gap      omega  full diag
   1  -5198.1764938 -0.519818E+04  0.132E-02    3.89       0.0  T
   2  -5198.1765034 -0.962431E-05  0.789E-03    3.89       1.0  T
   3  -5198.1764860  0.173910E-04  0.251E-03    3.89       1.0  T
   4  -5198.1765073 -0.213410E-04  0.376E-04    3.89       4.3  T
   5  -5198.1765076 -0.222502E-06  0.192E-04    3.89       8.4  T
   6  -5198.1765076 -0.148648E-07  0.876E-05    3.89      18.4  T
     SCC iter.                  ...       21 min,  7.090 sec
     gradient                   ...        5 min,  0.498 sec
 * total energy  : -5104.1320682 Eh     change    :  -0.6731725E-02 Eh
   gradient norm :     0.0371588 Eh/a0  converged?    E=F G=F D=F
   time step     :     1.2500000 fs     power     :   0.5353229E-07
   step length   :     0.4272550 a0     speed     :   0.8267844E-02
 * RMSD in coord.:     0.0550865 a0     energy gain  -0.1032516E+00 Eh

........................................................................
.............................. CYCLE   43 ..............................
........................................................................

 iter      E             dE          RMSdq      gap      omega  full diag
   1  -5198.1631882 -0.519816E+04  0.226E-03    3.89       0.0  T
   2  -5198.1631885 -0.318892E-06  0.137E-03    3.89       1.2  T
   3  -5198.1631873  0.120378E-05  0.553E-04    3.89       2.9  T
   4  -5198.1631888 -0.145112E-05  0.661E-05    3.89      24.3  T
   5  -5198.1631888 -0.913315E-08  0.349E-05    3.89      46.1  T
   6  -5198.1631888 -0.881300E-09  0.166E-05    3.89      96.8  T
     SCC iter.                  ...       21 min,  3.607 sec
     gradient                   ...        5 min,  0.398 sec
 * total energy  : -5104.1333305 Eh     change    :  -0.1262314E-02 Eh
   gradient norm :     0.0364042 Eh/a0  converged?    E=F G=F D=F
   time step     :     0.2500000 fs     power     :   0.6464963E-07
   step length   :     0.0809527 a0     speed     :   0.7832612E-02

........................................................................
.............................. CYCLE   44 ..............................
........................................................................

 iter      E             dE          RMSdq      gap      omega  full diag
   1  -5198.1586028 -0.519816E+04  0.225E-03    3.89       0.0  T
   2  -5198.1586034 -0.566919E-06  0.141E-03    3.89       1.1  T
   3  -5198.1586019  0.147680E-05  0.645E-04    3.89       2.5  T
   4  -5198.1586038 -0.194175E-05  0.792E-05    3.89      20.3  T
   5  -5198.1586039 -0.177461E-07  0.345E-05    3.89      46.6  T
   6  -5198.1586039 -0.693944E-09  0.176E-05    3.89      91.6  T
     SCC iter.                  ...       21 min,  8.946 sec
     gradient                   ...        5 min,  0.936 sec
 * total energy  : -5104.1347404 Eh     change    :  -0.1409863E-02 Eh
   gradient norm :     0.0328280 Eh/a0  converged?    E=F G=F D=F
   time step     :     0.2500000 fs     power     :   0.7169814E-07
   step length   :     0.0776456 a0     speed     :   0.7512628E-02

........................................................................
.............................. CYCLE   45 ..............................
........................................................................

 iter      E             dE          RMSdq      gap      omega  full diag
   1  -5198.1628185 -0.519816E+04  0.246E-03    3.89       0.0  T
   2  -5198.1628194 -0.867622E-06  0.155E-03    3.89       1.0  T
   3  -5198.1628177  0.169116E-05  0.734E-04    3.89       2.2  T
   4  -5198.1628201 -0.237838E-05  0.961E-05    3.89      16.7  T
   5  -5198.1628201 -0.265045E-07  0.415E-05    3.89      38.7  T
   6  -5198.1628201 -0.121327E-08  0.225E-05    3.89      71.4  T
     SCC iter.                  ...       21 min,  8.207 sec
     gradient                   ...        5 min,  1.625 sec
 * total energy  : -5104.1361877 Eh     change    :  -0.1447308E-02 Eh
   gradient norm :     0.0286602 Eh/a0  converged?    E=F G=F D=F
   time step     :     0.2500000 fs     power     :   0.7220969E-07
   step length   :     0.0754639 a0     speed     :   0.7301534E-02

........................................................................
.............................. CYCLE   46 ..............................
........................................................................

 iter      E             dE          RMSdq      gap      omega  full diag
   1  -5198.1759241 -0.519818E+04  0.266E-03    3.89       0.0  T
   2  -5198.1759251 -0.930598E-06  0.166E-03    3.89       1.0  T
   3  -5198.1759230  0.203415E-05  0.776E-04    3.89       2.1  T
   4  -5198.1759258 -0.275267E-05  0.100E-04    3.89      16.0  T
   5  -5198.1759258 -0.262844E-07  0.470E-05    3.89      34.3  T
   6  -5198.1759258 -0.171894E-08  0.257E-05    3.89      62.5  T
     SCC iter.                  ...       21 min, 11.849 sec
     gradient                   ...        5 min,  1.511 sec
 * total energy  : -5104.1375761 Eh     change    :  -0.1388408E-02 Eh
   gradient norm :     0.0263954 Eh/a0  converged?    E=F G=F D=F
   time step     :     0.2500000 fs     power     :   0.6833838E-07
   step length   :     0.0740687 a0     speed     :   0.7166548E-02

........................................................................
.............................. CYCLE   47 ..............................
........................................................................

 iter      E             dE          RMSdq      gap      omega  full diag
   1  -5198.1973018 -0.519820E+04  0.272E-03    3.89       0.0  T
   2  -5198.1973025 -0.694156E-06  0.166E-03    3.89       1.0  T
   3  -5198.1973005  0.201685E-05  0.716E-04    3.89       2.2  T
   4  -5198.1973030 -0.252234E-05  0.917E-05    3.89      17.5  T
   5  -5198.1973030 -0.190848E-07  0.467E-05    3.89      34.4  T
   6  -5198.1973030 -0.164528E-08  0.253E-05    3.89      63.6  T
     SCC iter.                  ...       21 min,  4.287 sec
     gradient                   ...        4 min, 59.839 sec
 * total energy  : -5104.1388815 Eh     change    :  -0.1305426E-02 Eh
   gradient norm :     0.0264302 Eh/a0  converged?    E=F G=F D=F
   time step     :     0.2500000 fs     power     :   0.6453399E-07
   step length   :     0.0728704 a0     speed     :   0.7050605E-02

........................................................................
.............................. CYCLE   48 ..............................
........................................................................

 iter      E             dE          RMSdq      gap      omega  full diag
   1  -5198.2282200 -0.519823E+04  0.292E-03    3.89       0.0  T
   2  -5198.2282205 -0.476682E-06  0.175E-03    3.89       1.0  T
   3  -5198.2282191  0.143138E-05  0.593E-04    3.89       2.7  T
   4  -5198.2282208 -0.171033E-05  0.864E-05    3.89      18.6  T
   5  -5198.2282208 -0.154296E-07  0.456E-05    3.89      35.3  T
   6  -5198.2282208 -0.122236E-08  0.226E-05    3.89      71.1  T
     SCC iter.                  ...       21 min,  7.446 sec
     gradient                   ...        5 min,  3.159 sec
 * total energy  : -5104.1402643 Eh     change    :  -0.1382846E-02 Eh
   gradient norm :     0.0270653 Eh/a0  converged?    E=F G=F D=F
   time step     :     0.2750000 fs     power     :   0.6273803E-07
   step length   :     0.0787593 a0     speed     :   0.6927623E-02

........................................................................
.............................. CYCLE   49 ..............................
........................................................................

 iter      E             dE          RMSdq      gap      omega  full diag
   1  -5198.2677003 -0.519827E+04  0.308E-03    3.89       0.0  T
   2  -5198.2677007 -0.348869E-06  0.182E-03    3.89       1.0  T
   3  -5198.2677001  0.539134E-06  0.433E-04    3.89       3.7  T
   4  -5198.2677008 -0.676830E-06  0.771E-05    3.89      20.9  T
     SCC iter.                  ...       14 min, 11.109 sec
     gradient                   ...        5 min,  3.921 sec
 * total energy  : -5104.1417700 Eh     change    :  -0.1505690E-02 Eh
   gradient norm :     0.0267792 Eh/a0  converged?    E=F G=F D=F
   time step     :     0.3025000 fs     power     :   0.6261080E-07
   step length   :     0.0851453 a0     speed     :   0.6808485E-02

........................................................................
.............................. CYCLE   50 ..............................
........................................................................

 iter      E             dE          RMSdq      gap      omega  full diag
   1  -5198.3138811 -0.519831E+04  0.325E-03    3.89       0.0  T
   2  -5198.3138815 -0.398516E-06  0.193E-03    3.89       1.0  T
   3  -5198.3138807  0.817117E-06  0.499E-04    3.89       3.2  T
   4  -5198.3138817 -0.100666E-05  0.754E-05    3.89      21.3  T
   5  -5198.3138817 -0.646196E-08  0.428E-05    3.89      37.6  T
     SCC iter.                  ...       17 min, 33.210 sec
     gradient                   ...        5 min, 10.305 sec
 * total energy  : -5104.1434179 Eh     change    :  -0.1647859E-02 Eh
   gradient norm :     0.0252192 Eh/a0  converged?    E=F G=F D=F
   time step     :     0.3327500 fs     power     :   0.6216127E-07
   step length   :     0.0924384 a0     speed     :   0.6719695E-02

........................................................................
.............................. CYCLE   51 ..............................
........................................................................

 iter      E             dE          RMSdq      gap      omega  full diag
   1  -5198.3635758 -0.519836E+04  0.345E-03    3.89       0.0  T
   2  -5198.3635764 -0.558375E-06  0.207E-03    3.89       1.0  T
   3  -5198.3635748  0.155004E-05  0.615E-04    3.89       2.6  T
   4  -5198.3635767 -0.186103E-05  0.893E-05    3.89      18.0  T
   5  -5198.3635767 -0.126711E-07  0.492E-05    3.89      32.7  T
   6  -5198.3635767 -0.160526E-08  0.228E-05    3.89      70.5  T
     SCC iter.                  ...       21 min, 15.547 sec
     gradient                   ...        5 min,  1.532 sec
 * total energy  : -5104.1451806 Eh     change    :  -0.1762750E-02 Eh
   gradient norm :     0.0230448 Eh/a0  converged?    E=F G=F D=F
   time step     :     0.3660250 fs     power     :   0.5974808E-07
   step length   :     0.1009974 a0     speed     :   0.6674433E-02

........................................................................
.............................. CYCLE   52 ..............................
........................................................................

 iter      E             dE          RMSdq      gap      omega  full diag
   1  -5198.4115708 -0.519841E+04  0.366E-03    3.89       0.0  T
   2  -5198.4115715 -0.661176E-06  0.219E-03    3.89       1.0  T
   3  -5198.4115702  0.134620E-05  0.590E-04    3.89       2.7  T
   4  -5198.4115718 -0.163686E-05  0.106E-04    3.89      15.2  T
   5  -5198.4115718 -0.216642E-07  0.560E-05    3.89      28.7  T
   6  -5198.4115718 -0.159616E-08  0.257E-05    3.89      62.7  T
     SCC iter.                  ...       21 min, 10.518 sec
     gradient                   ...        5 min, 11.030 sec
 * total energy  : -5104.1470032 Eh     change    :  -0.1822511E-02 Eh
   gradient norm :     0.0216010 Eh/a0  converged?    E=F G=F D=F
   time step     :     0.4026275 fs     power     :   0.5535091E-07
   step length   :     0.1109147 a0     speed     :   0.6663476E-02

........................................................................
.............................. CYCLE   53 ..............................
........................................................................

 iter      E             dE          RMSdq      gap      omega  full diag
   1  -5198.4507891 -0.519845E+04  0.384E-03    3.90       0.0  T
   2  -5198.4507899 -0.751337E-06  0.228E-03    3.90       1.0  T
   3  -5198.4507889  0.102409E-05  0.588E-04    3.90       2.7  T
   4  -5198.4507902 -0.130265E-05  0.107E-04    3.90      15.0  T
   5  -5198.4507902 -0.193340E-07  0.624E-05    3.90      25.8  T
   6  -5198.4507902 -0.282853E-08  0.291E-05    3.90      55.3  T
     SCC iter.                  ...       21 min,  7.268 sec
     gradient                   ...        5 min,  7.404 sec
 * total energy  : -5104.1488617 Eh     change    :  -0.1858526E-02 Eh
   gradient norm :     0.0222019 Eh/a0  converged?    E=F G=F D=F
   time step     :     0.4428903 fs     power     :   0.5116864E-07
   step length   :     0.1218290 a0     speed     :   0.6653800E-02

........................................................................
.............................. CYCLE   54 ..............................
........................................................................

 iter      E             dE          RMSdq      gap      omega  full diag
   1  -5198.4749801 -0.519847E+04  0.399E-03    3.90       0.0  T
   2  -5198.4749810 -0.916548E-06  0.238E-03    3.90       1.0  T
   3  -5198.4749780  0.298763E-05  0.874E-04    3.90       1.8  T
   4  -5198.4749816 -0.360803E-05  0.116E-04    3.90      13.9  T
   5  -5198.4749816 -0.255250E-07  0.691E-05    3.90      23.3  T
   6  -5198.4749816 -0.407090E-08  0.362E-05    3.90      44.4  T
     SCC iter.                  ...       21 min, 11.511 sec
     gradient                   ...        5 min,  3.947 sec
 * total energy  : -5104.1508261 Eh     change    :  -0.1964402E-02 Eh
   gradient norm :     0.0233215 Eh/a0  converged?    E=F G=F D=F
   time step     :     0.4871793 fs     power     :   0.5003987E-07
   step length   :     0.1331786 a0     speed     :   0.6612423E-02

........................................................................
.............................. CYCLE   55 ..............................
........................................................................

 iter      E             dE          RMSdq      gap      omega  full diag
   1  -5198.4810993 -0.519848E+04  0.424E-03    3.90       0.0  T
   2  -5198.4811004 -0.111759E-05  0.254E-03    3.90       1.0  T
   3  -5198.4810958  0.460330E-05  0.107E-03    3.90       1.5  T
   4  -5198.4811014 -0.555337E-05  0.113E-04    3.90      14.2  T
   5  -5198.4811014 -0.188120E-07  0.682E-05    3.90      23.6  T
   6  -5198.4811014 -0.332147E-08  0.354E-05    3.90      45.5  T
     SCC iter.                  ...       21 min, 10.988 sec
     gradient                   ...        5 min,  1.616 sec
 * total energy  : -5104.1529970 Eh     change    :  -0.2170902E-02 Eh
   gradient norm :     0.0219132 Eh/a0  converged?    E=F G=F D=F
   time step     :     0.5358972 fs     power     :   0.5061506E-07
   step length   :     0.1455234 a0     speed     :   0.6568503E-02

........................................................................
.............................. CYCLE   56 ..............................
........................................................................

 iter      E             dE          RMSdq      gap      omega  full diag
   1  -5198.4689524 -0.519847E+04  0.460E-03    3.90       0.0  T
   2  -5198.4689536 -0.125944E-05  0.274E-03    3.90       1.0  T
   3  -5198.4689499  0.370676E-05  0.102E-03    3.90       1.6  T
   4  -5198.4689544 -0.445067E-05  0.126E-04    3.90      12.7  T
   5  -5198.4689544 -0.315122E-07  0.665E-05    3.90      24.2  T
   6  -5198.4689544 -0.183627E-08  0.299E-05    3.90      53.9  T
     SCC iter.                  ...       21 min,  7.301 sec
     gradient                   ...        5 min,  3.131 sec
 * total energy  : -5104.1553318 Eh     change    :  -0.2334829E-02 Eh
   gradient norm :     0.0191965 Eh/a0  converged?    E=F G=F D=F
   time step     :     0.5894869 fs     power     :   0.4834652E-07
   step length   :     0.1602346 a0     speed     :   0.6575022E-02

........................................................................
.............................. CYCLE   57 ..............................
........................................................................

 iter      E             dE          RMSdq      gap      omega  full diag
   1  -5198.4419484 -0.519844E+04  0.494E-03    3.89       0.0  T
   2  -5198.4419495 -0.109606E-05  0.294E-03    3.90       1.0  T
   3  -5198.4419475  0.194406E-05  0.816E-04    3.89       2.0  T
   4  -5198.4419499 -0.239305E-05  0.122E-04    3.89      13.2  T
   5  -5198.4419499 -0.175760E-07  0.685E-05    3.89      23.5  T
   6  -5198.4419499 -0.272212E-08  0.323E-05    3.89      49.9  T
     SCC iter.                  ...       21 min,  6.747 sec
     gradient                   ...        5 min,  4.079 sec
 * total energy  : -5104.1577048 Eh     change    :  -0.2373000E-02 Eh
[...]
  3608   6 C     3615   6 C                                       1.5363625
  3615   6 C     3616   6 C                                       1.5382359
  3617   6 C     3618   6 C                                       1.3904558
  3618   6 C     3619   6 C                                       1.3821473
  3619   6 C     3620   6 C                                       1.3836044
  3620   6 C     3621   6 C                                       1.3842066
  3617   6 C     3622   6 C                                       1.3880341
  3621   6 C     3622   6 C                                       1.3844214
  3623   6 C     3624   6 C                                       1.5313456
  3625   6 C     3626   6 C                                       1.3900628
  3626   6 C     3627   6 C                                       1.3842875
  3627   6 C     3628   6 C                                       1.3845147
  3628   6 C     3629   6 C                                       1.3832378
  3625   6 C     3630   6 C                                       1.3906307
  3629   6 C     3630   6 C                                       1.3826585
  3631   6 C     3632   6 C                                       1.5399420
  3633   6 C     3634   6 C                                       1.3905468
  3634   6 C     3635   6 C                                       1.3822855
  3635   6 C     3636   6 C                                       1.3846861
  3636   6 C     3637   6 C                                       1.3832972
  3633   6 C     3638   6 C                                       1.3886435
  3637   6 C     3638   6 C                                       1.3849733
  3632   6 C     3639   6 C                                       1.5362762
  3639   6 C     3640   6 C                                       1.5354720
  3641   6 C     3642   6 C                                       1.3888025
  3642   6 C     3643   6 C                                       1.3840448
  3643   6 C     3644   6 C                                       1.3838623
  3644   6 C     3645   6 C                                       1.3843796
  3641   6 C     3646   6 C                                       1.3911362
  3645   6 C     3646   6 C                                       1.3821235
  3640   6 C     3647   6 C                                       1.5363362
  3647   6 C     3648   6 C                                       1.5356113
  3649   6 C     3650   6 C                                       1.3900022
  3650   6 C     3651   6 C                                       1.3829705
  3651   6 C     3652   6 C                                       1.3839012
  3652   6 C     3653   6 C                                       1.3840526
  3649   6 C     3654   6 C                                       1.3900858
  3653   6 C     3654   6 C                                       1.3841455
  3648   6 C     3655   6 C                                       1.5387727
  3657   6 C     3658   6 C                                       1.3906390
  3658   6 C     3659   6 C                                       1.3828345
  3659   6 C     3660   6 C                                       1.3845877
  3660   6 C     3661   6 C                                       1.3834100
  3657   6 C     3662   6 C                                       1.3889940
  3661   6 C     3662   6 C                                       1.3839394
  3656   6 C     3663   6 C                                       1.5347580
  3663   6 C     3664   6 C                                       1.5382263
  3665   6 C     3666   6 C                                       1.3899764
  3666   6 C     3667   6 C                                       1.3835163
  3667   6 C     3668   6 C                                       1.3837382
  3668   6 C     3669   6 C                                       1.3836549
  3665   6 C     3670   6 C                                       1.3903092
  3669   6 C     3670   6 C                                       1.3831800
  3664   6 C     3671   6 C                                       1.5350764
  3671   6 C     3672   6 C                                       1.5326831
  3673   6 C     3674   6 C                                       1.3895893
  3674   6 C     3675   6 C                                       1.3837408
  3675   6 C     3676   6 C                                       1.3839704
  3676   6 C     3677   6 C                                       1.3847815
  3673   6 C     3678   6 C                                       1.3900627
  3677   6 C     3678   6 C                                       1.3831141
  3672   6 C     3679   6 C                                       1.5379886
  3679   6 C     3680   6 C                                       1.5391196
  3681   6 C     3682   6 C                                       1.3891733
  3682   6 C     3683   6 C                                       1.3836437
  3683   6 C     3684   6 C                                       1.3838040
  3684   6 C     3685   6 C                                       1.3846390
  3681   6 C     3686   6 C                                       1.3901595
  3685   6 C     3686   6 C                                       1.3829635
  3680   6 C     3687   6 C                                       1.5327764
  3687   6 C     3688   6 C                                       1.5356091
  3549   6 C     3689   1 H                                       1.0962988
  3551   6 C     3690   1 H                                       1.0912650
  3551   6 C     3691   1 H                                       1.0904309
  3552   6 C     3692   1 H                                       1.0946488
  3559   6 C     3693   1 H                                       1.0924346
  3559   6 C     3694   1 H                                       1.0929470
  3560   6 C     3695   1 H                                       1.0944638
  3567   6 C     3696   1 H                                       1.0913094
  3567   6 C     3697   1 H                                       1.0906040
  3568   6 C     3698   1 H                                       1.0942764
  3575   6 C     3699   1 H                                       1.0927795
  3576   6 C     3700   1 H                                       1.0956030
  3583   6 C     3701   1 H                                       1.0901045
  3583   6 C     3702   1 H                                       1.0908501
  3584   6 C     3703   1 H                                       1.0948495
  3591   6 C     3704   1 H                                       1.0886134
  3591   6 C     3705   1 H                                       1.0910828
  3592   6 C     3706   1 H                                       1.0964626
  3599   6 C     3707   1 H                                       1.0918587
  3599   6 C     3708   1 H                                       1.0923616
  3600   6 C     3709   1 H                                       1.0934227
  3608   6 C     3710   1 H                                       1.0963959
  3615   6 C     3711   1 H                                       1.0921256
  3615   6 C     3712   1 H                                       1.0919456
  3616   6 C     3713   1 H                                       1.0959006
  3623   6 C     3714   1 H                                       1.0905104
  3623   6 C     3715   1 H                                       1.0915771
  3624   6 C     3716   1 H                                       1.0947220
  3631   6 C     3717   1 H                                       1.0921133
  3631   6 C     3718   1 H                                       1.0932267
  3632   6 C     3719   1 H                                       1.0929708
  3639   6 C     3720   1 H                                       1.0933824
  3639   6 C     3721   1 H                                       1.0922695
  3640   6 C     3722   1 H                                       1.0941656
  3647   6 C     3723   1 H                                       1.0894401
  3647   6 C     3724   1 H                                       1.0903985
  3648   6 C     3725   1 H                                       1.0950128
  3655   6 C     3726   1 H                                       1.0928638
  3655   6 C     3727   1 H                                       1.0930058
  3656   6 C     3728   1 H                                       1.0941435
  3663   6 C     3729   1 H                                       1.0917483
  3663   6 C     3730   1 H                                       1.0887324
  3664   6 C     3731   1 H                                       1.0963573
  3671   6 C     3732   1 H                                       1.0917209
  3671   6 C     3733   1 H                                       1.0912029
  3672   6 C     3734   1 H                                       1.0938951
  3679   6 C     3735   1 H                                       1.0927904
  3679   6 C     3736   1 H                                       1.0928576
  3543   6 C     3737   1 H                                       1.0799632
  3548   6 C     3738   1 H                                       1.0811148
  3547   6 C     3739   1 H                                       1.0805848
  3546   6 C     3740   1 H                                       1.0809021
  3545   6 C     3741   1 H                                       1.0816399
  3554   6 C     3742   1 H                                       1.0819505
  3555   6 C     3743   1 H                                       1.0812567
  3556   6 C     3744   1 H                                       1.0807034
  3557   6 C     3745   1 H                                       1.0807678
  3558   6 C     3746   1 H                                       1.0792091
  3562   6 C     3747   1 H                                       1.0810248
  3563   6 C     3748   1 H                                       1.0822335
  3564   6 C     3749   1 H                                       1.0798384
  3565   6 C     3750   1 H                                       1.0807222
  3566   6 C     3751   1 H                                       1.0795995
  3570   6 C     3752   1 H                                       1.0787150
  3571   6 C     3753   1 H                                       1.0809580
  3572   6 C     3754   1 H                                       1.0813992
  3573   6 C     3755   1 H                                       1.0822276
  3574   6 C     3756   1 H                                       1.0805443
  3575   6 C     3757   1 H                                       1.0933477
  3578   6 C     3758   1 H                                       1.0783929
  3579   6 C     3759   1 H                                       1.0804935
  3580   6 C     3760   1 H                                       1.0810058
  3581   6 C     3761   1 H                                       1.0813843
  3582   6 C     3762   1 H                                       1.0820006
  3586   6 C     3763   1 H                                       1.0786797
  3587   6 C     3764   1 H                                       1.0814803
  3588   6 C     3765   1 H                                       1.0809363
  3589   6 C     3766   1 H                                       1.0814530
  3590   6 C     3767   1 H                                       1.0818240
  3594   6 C     3768   1 H                                       1.0822404
  3595   6 C     3769   1 H                                       1.0816352
  3596   6 C     3770   1 H                                       1.0808464
  3597   6 C     3771   1 H                                       1.0807314
  3598   6 C     3772   1 H                                       1.0784574
  3602   6 C     3773   1 H                                       1.0803126
  3603   6 C     3774   1 H                                       1.0811327
  3604   6 C     3775   1 H                                       1.0813413
  3605   6 C     3776   1 H                                       1.0816959
  3606   6 C     3777   1 H                                       1.0806364
  3607   6 C     3778   1 H                                       1.0930615
  3607   6 C     3779   1 H                                       1.0887228
  3610   6 C     3780   1 H                                       1.0813582
  3611   6 C     3781   1 H                                       1.0805437
  3612   6 C     3782   1 H                                       1.0807789
  3613   6 C     3783   1 H                                       1.0815493
  3614   6 C     3784   1 H                                       1.0803676
  3618   6 C     3785   1 H                                       1.0785787
  3619   6 C     3786   1 H                                       1.0802335
  3620   6 C     3787   1 H                                       1.0806229
  3621   6 C     3788   1 H                                       1.0807815
  3622   6 C     3789   1 H                                       1.0813696
  3626   6 C     3790   1 H                                       1.0802222
  3627   6 C     3791   1 H                                       1.0808644
  3628   6 C     3792   1 H                                       1.0806391
  3629   6 C     3793   1 H                                       1.0816098
  3630   6 C     3794   1 H                                       1.0818099
  3634   6 C     3795   1 H                                       1.0802523
  3635   6 C     3796   1 H                                       1.0802659
  3636   6 C     3797   1 H                                       1.0802112
  3637   6 C     3798   1 H                                       1.0806824
  3638   6 C     3799   1 H                                       1.0811781
  3642   6 C     3800   1 H                                       1.0807993
  3643   6 C     3801   1 H                                       1.0813166
  3644   6 C     3802   1 H                                       1.0810689
  3645   6 C     3803   1 H                                       1.0811897
  3646   6 C     3804   1 H                                       1.0796659
  3650   6 C     3805   1 H                                       1.0796713
  3651   6 C     3806   1 H                                       1.0807241
  3652   6 C     3807   1 H                                       1.0791003
  3653   6 C     3808   1 H                                       1.0814287
  3654   6 C     3809   1 H                                       1.0819142
  3658   6 C     3810   1 H                                       1.0808981
  3659   6 C     3811   1 H                                       1.0811217
  3660   6 C     3812   1 H                                       1.0807399
  3661   6 C     3813   1 H                                       1.0803974
  3662   6 C     3814   1 H                                       1.0805933
  3666   6 C     3815   1 H                                       1.0814740
  3667   6 C     3816   1 H                                       1.0807752
  3668   6 C     3817   1 H                                       1.0802043
  3669   6 C     3818   1 H                                       1.0800218
  3670   6 C     3819   1 H                                       1.0800646
  3674   6 C     3820   1 H                                       1.0811540
  3675   6 C     3821   1 H                                       1.0807765
  3676   6 C     3822   1 H                                       1.0804728
  3677   6 C     3823   1 H                                       1.0808550
  3678   6 C     3824   1 H                                       1.0801779
  3686   6 C     3825   1 H                                       1.0799286
  3685   6 C     3826   1 H                                       1.0806714
  3684   6 C     3827   1 H                                       1.0803021
  3683   6 C     3828   1 H                                       1.0808339
  3682   6 C     3829   1 H                                       1.0811296
  3550   6 C     3830   1 H                                       1.0881607
  3550   6 C     3831   1 H                                       1.0878061
  3550   6 C     3832   1 H                                       1.0880169
  3680   6 C     3833   1 H                                       1.0943206
  3687   6 C     3834   1 H                                       1.0914024
  3687   6 C     3835   1 H                                       1.0921554
  3688   6 C     3836   6 C                                       1.5347647
  3837   6 C     3838   6 C                                       1.3900827
  3838   6 C     3839   6 C                                       1.3838885
  3839   6 C     3840   6 C                                       1.3841016
  3840   6 C     3841   6 C                                       1.3831833
  3837   6 C     3842   6 C                                       1.3893898
  3841   6 C     3842   6 C                                       1.3830331
  3838   6 C     3843   1 H                                       1.0805698
  3839   6 C     3844   1 H                                       1.0812225
  3840   6 C     3845   1 H                                       1.0796653
  3841   6 C     3846   1 H                                       1.0807082
  3842   6 C     3847   1 H                                       1.0818632
  3836   6 C     3848   6 C                                       1.5326314
  3836   6 C     3849   1 H                                       1.0919039
  3836   6 C     3850   1 H                                       1.0922837
  3851   6 C     3852   6 C                                       1.3902842
  3852   6 C     3853   6 C                                       1.3828329
  3853   6 C     3854   6 C                                       1.3849575
  3854   6 C     3855   6 C                                       1.3840458
  3851   6 C     3856   6 C                                       1.3889564
  3855   6 C     3856   6 C                                       1.3837082
  3852   6 C     3857   1 H                                       1.0810059
  3853   6 C     3858   1 H                                       1.0809213
  3854   6 C     3859   1 H                                       1.0806535
  3855   6 C     3860   1 H                                       1.0806615
  3856   6 C     3861   1 H                                       1.0805628
  3688   6 C     3862   1 H                                       1.0964643
  3848   6 C     3863   1 H                                       1.0915027
  3848   6 C     3864   1 H                                       1.0943053

 * 2 distinct bonds (by element types)

   Z      Z             #   av. dist./Å        max./Å        min./Å
   1 H    6 C        1944     1.0852548     1.0982593     1.0772449
   6 C    6 C        1861     1.4196461     1.5405612     1.3808423


optimized geometry written to: xtbopt.xyz


           -------------------------------------------------
          | TOTAL ENERGY            -5104.243894975578 Eh   |
          | GRADIENT NORM               0.000990741475 Eh/α |
          | HOMO-LUMO GAP               3.831782288470 eV   |
           -------------------------------------------------

------------------------------------------------------------------------
 * finished run on 2024/07/19 at 20:13:29.633     
------------------------------------------------------------------------
 total:
 * wall-time:     7 d, 20 h,  1 min, 19.194 sec
 *  cpu-time:    50 d, 15 h,  0 min, 32.152 sec
 * ratio c/w:     6.462 speedup
 SCF:
 * wall-time:     0 d,  0 h, 16 min, 28.620 sec
 *  cpu-time:     0 d,  1 h, 44 min, 31.312 sec
 * ratio c/w:     6.344 speedup
 ANC optimizer:
 * wall-time:     7 d, 19 h, 43 min, 39.985 sec
 *  cpu-time:    50 d, 13 h, 14 min, 29.328 sec
 * ratio c/w:     6.463 speedup

