      -----------------------------------------------------------      
     |                   =====================                   |     
     |                           x T B                           |     
     |                   =====================                   |     
     |                         S. Grimme                         |     
     |          Mulliken Center for Theoretical Chemistry        |     
     |                    University of Bonn                     |     
      -----------------------------------------------------------      

   * xtb version 6.6.1 (8d0f1dd) compiled by 'stahn@M-Bot' on 2023-08-01

   xtb is free software: you can redistribute it and/or modify it under
   the terms of the GNU Lesser General Public License as published by
   the Free Software Foundation, either version 3 of the License, or
   (at your option) any later version.
   
   xtb is distributed in the hope that it will be useful,
   but WITHOUT ANY WARRANTY; without even the implied warranty of
   MERCHANTABILITY or FITNESS FOR A PARTICULAR PURPOSE.  See the
   GNU Lesser General Public License for more details.
   
   Cite this work as:
   * C. Bannwarth, E. Caldeweyher, S. Ehlert, A. Hansen, P. Pracht,
     J. Seibert, S. Spicher, S. Grimme, WIREs Comput. Mol. Sci., 2020, 11,
     e01493. DOI: 10.1002/wcms.1493
   
   for GFN2-xTB:
   * C. Bannwarth, S. Ehlert and S. Grimme., J. Chem. Theory Comput., 2019,
     15, 1652-1671. DOI: 10.1021/acs.jctc.8b01176
   for GFN1-xTB:
   * S. Grimme, C. Bannwarth, P. Shushkov, J. Chem. Theory Comput., 2017,
     13, 1989-2009. DOI: 10.1021/acs.jctc.7b00118
   for GFN0-xTB:
   * P. Pracht, E. Caldeweyher, S. Ehlert, S. Grimme, ChemRxiv, 2019, preprint.
     DOI: 10.26434/chemrxiv.8326202.v1
   for GFN-FF:
   * S. Spicher and S. Grimme, Angew. Chem. Int. Ed., 2020, 59, 15665-15673.
     DOI: 10.1002/anie.202004239
   
   for ALPB and GBSA implicit solvation:
   * S. Ehlert, M. Stahn, S. Spicher, S. Grimme, J. Chem. Theory Comput.,
     2021, 17, 4250-4261. DOI: 10.1021/acs.jctc.1c00471
   
   for DFT-D4:
   * E. Caldeweyher, C. Bannwarth and S. Grimme, J. Chem. Phys., 2017,
     147, 034112. DOI: 10.1063/1.4993215
   * E. Caldeweyher, S. Ehlert, A. Hansen, H. Neugebauer, S. Spicher,
     C. Bannwarth and S. Grimme, J. Chem. Phys., 2019, 150, 154122.
     DOI: 10.1063/1.5090222
   * E. Caldeweyher, J.-M. Mewes, S. Ehlert and S. Grimme, Phys. Chem. Chem. Phys.
     2020, 22, 8499-8512. DOI: 10.1039/D0CP00502A
   
   for sTDA-xTB:
   * S. Grimme and C. Bannwarth, J. Chem. Phys., 2016, 145, 054103.
     DOI: 10.1063/1.4959605
   
   in the mass-spec context:
   * V. Asgeirsson, C. Bauer and S. Grimme, Chem. Sci., 2017, 8, 4879.
     DOI: 10.1039/c7sc00601b
   * J. Koopman and S. Grimme, ACS Omega 2019, 4, 12, 15120-15133.
     DOI: 10.1021/acsomega.9b02011
   
   for metadynamics refer to:
   * S. Grimme, J. Chem. Theory Comput., 2019, 155, 2847-2862
     DOI: 10.1021/acs.jctc.9b00143
   
   for SPH calculations refer to:
   * S. Spicher and S. Grimme, J. Chem. Theory Comput., 2021, 17, 1701-1714
     DOI: 10.1021/acs.jctc.0c01306
   
   with help from (in alphabetical order)
   P. Atkinson, C. Bannwarth, F. Bohle, G. Brandenburg, E. Caldeweyher
   M. Checinski, S. Dohm, S. Ehlert, S. Ehrlich, I. Gerasimov, C. Hölzer
   A. Katbashev, J. Koopman, C. Lavigne, S. Lehtola, F. März, M. Müller,
   F. Musil, H. Neugebauer, J. Pisarek, C. Plett, P. Pracht, F. Pultar,
   J. Seibert, P. Shushkov, S. Spicher, M. Stahn, M. Steiner, T. Strunk,
   J. Stückrath, T. Rose, and J. Unsleber
   
 * started run on 2024/07/08 at 01:24:01.425     

           -------------------------------------------------
          |                Calculation Setup                |
           -------------------------------------------------

          program call               : /home/abt-grimme/AK-bin/xtb input.xyz --input input.inp --opt --gbsa water
          hostname                   : boar014.thch.uni-bonn.de
          coordinate file            : input.xyz
          omp threads                :                     8

   ID    Z sym.   atoms
    1    6 C      1-146, 294-300, 306, 309-314, 323-468, 616-622, 628,
                  631-636, 645-790, 938-944, 950, 953-958, 967-1112,
                  1260-1266, 1272, 1275-1280, 1289-1434, 1582-1588, 1594,
                  1597-1602, 1611-1756, 1904-1910, 1916, 1919-1924,
                  1933-2078, 2226-2232, 2238, 2241-2246, 2255-2400,
                  2548-2554, 2560, 2563-2568, 2577-2722, 2870-2876, 2882,
                  2885-2890, 2899-3044, 3192-3198, 3204, 3207-3212,
                  3221-3366, 3514-3520, 3526, 3529-3534, 3543-3688,
                  3836-3842, 3848, 3851-3856
    2    1 H      147-293, 301-305, 307, 308, 315-322, 469-615, 623-627, 629,
                  630, 637-644, 791-937, 945-949, 951, 952, 959-966,
                  1113-1259, 1267-1271, 1273, 1274, 1281-1288, 1435-1581,
                  1589-1593, 1595, 1596, 1603-1610, 1757-1903, 1911-1915,
                  1917, 1918, 1925-1932, 2079-2225, 2233-2237, 2239, 2240,
                  2247-2254, 2401-2547, 2555-2559, 2561, 2562, 2569-2576,
                  2723-2869, 2877-2881, 2883, 2884, 2891-2898, 3045-3191,
                  3199-3203, 3205, 3206, 3213-3220, 3367-3513, 3521-3525,
                  3527, 3528, 3535-3542, 3689-3835, 3843-3847, 3849, 3850,
                  3857-3864

molecular fragmentation (1/2 indicates fragments):
111111111111111111111111111111111111111111111111111111111111111111111111
111111111111111111111111111111111111111111111111111111111111111111111111
111111111111111111111111111111111111111111111111111111111111111111111111
111111111111111111111111111111111111111111111111111111111111111111111111
111111111111111111111111111111111122222222222222222222222222222222222222
222222222222222222222222222222222222222222222222222222222222222222222222
222222222222222222222222222222222222222222222222222222222222222222222222
222222222222222222222222222222222222222222222222222222222222222222222222
222222222222222222222222222222222222222222222222222222222222222222222222
222222222222222222222222222222222222222222222222222222222222222222222222
222222222222222222222222222222222222222222222222222222222222222222222222
222222222222222222222222222222222222222222222222222222222222222222222222
222222222222222222222222222222222222222222222222222222222222222222222222
222222222222222222222222222222222222222222222222222222222222222222222222
222222222222222222222222222222222222222222222222222222222222222222222222
222222222222222222222222222222222222222222222222222222222222222222222222
222222222222222222222222222222222222222222222222222222222222222222222222
222222222222222222222222222222222222222222222222222222222222222222222222
222222222222222222222222222222222222222222222222222222222222222222222222
222222222222222222222222222222222222222222222222222222222222222222222222
222222222222222222222222222222222222222222222222222222222222222222222222
222222222222222222222222222222222222222222222222222222222222222222222222
222222222222222222222222222222222222222222222222222222222222222222222222
222222222222222222222222222222222222222222222222222222222222222222222222
222222222222222222222222222222222222222222222222222222222222222222222222
222222222222222222222222222222222222222222222222222222222222222222222222
222222222222222222222222222222222222222222222222222222222222222222222222
222222222222222222222222222222222222222222222222222222222222222222222222
222222222222222222222222222222222222222222222222222222222222222222222222
222222222222222222222222222222222222222222222222222222222222222222222222
222222222222222222222222222222222222222222222222222222222222222222222222
222222222222222222222222222222222222222222222222222222222222222222222222
222222222222222222222222222222222222222222222222222222222222222222222222
222222222222222222222222222222222222222222222222222222222222222222222222
222222222222222222222222222222222222222222222222222222222222222222222222
222222222222222222222222222222222222222222222222222222222222222222222222
222222222222222222222222222222222222222222222222222222222222222222222222
222222222222222222222222222222222222222222222222222222222222222222222222
222222222222222222222222222222222222222222222222222222222222222222222222
222222222222222222222222222222222222222222222222222222222222222222222222
222222222222222222222222222222222222222222222222222222222222222222222222
222222222222222222222222222222222222222222222222222222222222222222222222
222222222222222222222222222222222222222222222222222222222222222222222222
222222222222222222222222222222222222222222222222222222222222222222222222
222222222222222222222222222222222222222222222222222222222222222222222222
222222222222222222222222222222222222222222222222222222222222222222222222
222222222222222222222222222222222222222222222222222222222222222222222222
222222222222222222222222222222222222222222222222222222222222222222222222
222222222222222222222222222222222222222222222222222222222222222222222222
222222222222222222222222222222222222222222222222222222222222222222222222
222222222222222222222222222222222222222222222222222222222222222222222222
222222222222222222222222222222222222222222222222222222222222222222222222
222222222222222222222222222222222222222222222222222222222222222222222222
222222222222222222222222222222222222222222222222
# atoms in fragment 1/2:   322  3542
 fragment masses (1/2) :     2085.00    22935.05
CMA distance (Bohr)    :  31.915
constraining FC (au)   :  0.0500

           -------------------------------------------------
          |                 G F N 2 - x T B                 |
           -------------------------------------------------

        Reference                      10.1021/acs.jctc.8b01176
      * Hamiltonian:
        H0-scaling (s, p, d)           1.850000    2.230000    2.230000
        zeta-weighting                 0.500000
      * Dispersion:
        s8                             2.700000
        a1                             0.520000
        a2                             5.000000
        s9                             5.000000
      * Repulsion:
        kExp                           1.500000    1.000000
        rExp                           1.000000
      * Coulomb:
        alpha                          2.000000
        third order                    shell-resolved
        anisotropic                    true
        a3                             3.000000
        a5                             4.000000
        cn-shift                       1.200000
        cn-exp                         4.000000
        max-rad                        5.000000

      * Solvation model:               GBSA
        Solvent                        water
        Parameter file                 internal GFN2-xTB/GBSA
        Dielectric constant                8.0200E+01
        Reference state                gsolv [1 M gas/solution]
        Free energy shift                  1.8574E-03 Eh       1.1656E+00 kcal/mol
        Temperature                        2.9815E+02 K
        Density                            1.0000E+00 kg/L
        Solvent mass                       1.8000E+01 g/mol
        Interaction kernel             Still
        Born radius scaling (c1)           1.5524E+00
        Born radii integrator          GBOBC
        Born offset                        2.4628E-02 a0       4.6540E-02 AA
        H-bond correction              true
        Ion screening                  false
        Surface tension                    1.0000E-05 Eh       1.5569E+01 dyn/cm
        Grid points                               230 per atom
q/qsh data taken from xtbrestart
CAMM data taken from xtbrestart

          ...................................................
          :                      SETUP                      :
          :.................................................:
          :  # basis functions                9624          :
          :  # atomic orbitals                9624          :
          :  # shells                         5784          :
          :  # electrons                      9624          :
          :  max. iterations                   250          :
          :  Hamiltonian                  GFN2-xTB          :
          :  restarted?                       true          :
          :  GBSA solvation                   true          :
          :  PC potential                    false          :
          :  electronic temp.          300.0000000     K    :
          :  accuracy                    1.0000000          :
          :  -> integral cutoff          0.2500000E+02      :
          :  -> integral neglect         0.1000000E-07      :
          :  -> SCF convergence          0.1000000E-05 Eh   :
          :  -> wf. convergence          0.1000000E-03 e    :
          :  Broyden damping             0.4000000          :
          ...................................................

 iter      E             dE          RMSdq      gap      omega  full diag
   1  -5190.4547998 -0.519045E+04  0.835E-05    3.71       0.0  T
   2  -5190.4547998 -0.952241E-08  0.690E-05    3.71      23.3  T
   3  -5190.4547998 -0.653927E-08  0.581E-05    3.71      27.7  T

   *** convergence criteria satisfied after 3 iterations ***

         #    Occupation            Energy/Eh            Energy/eV
      -------------------------------------------------------------
         1        2.0000           -0.6331743             -17.2296
       ...           ...                  ...                  ...
      4806        2.0000           -0.3606880              -9.8148
      4807        2.0000           -0.3603569              -9.8058
      4808        2.0000           -0.3601457              -9.8001
      4809        2.0000           -0.3599081              -9.7936
      4810        2.0000           -0.3596987              -9.7879
      4811        2.0000           -0.3575002              -9.7281
      4812        2.0000           -0.3560128              -9.6876 (HOMO)
      4813                         -0.2195913              -5.9754 (LUMO)
      4814                         -0.2192012              -5.9648
      4815                         -0.2191020              -5.9621
      4816                         -0.2190210              -5.9599
      4817                         -0.2190107              -5.9596
       ...                                ...                  ...
      9624                          0.6742793              18.3481
      -------------------------------------------------------------
                  HL-Gap            0.1364215 Eh            3.7122 eV
             Fermi-level           -0.2878020 Eh           -7.8315 eV

 SCC (total)                   0 d,  0 h, 17 min, 10.543 sec
 SCC setup                      ...        0 min,  2.534 sec (  0.246%)
 Dispersion                     ...        0 min,  6.915 sec (  0.671%)
 classical contributions        ...        0 min,  0.199 sec (  0.019%)
 integral evaluation            ...        0 min, 12.545 sec (  1.217%)
 iterations                     ...       10 min, 16.597 sec ( 59.832%)
 molecular gradient             ...        6 min,  6.114 sec ( 35.526%)
 printout                       ...        0 min, 25.639 sec (  2.488%)

         :::::::::::::::::::::::::::::::::::::::::::::::::::::
         ::                     SUMMARY                     ::
         :::::::::::::::::::::::::::::::::::::::::::::::::::::
         :: total energy           -5103.347007776938 Eh    ::
         :: total w/o Gsasa/hb     -5103.154598694218 Eh    ::
         :: gradient norm              0.746774058937 Eh/a0 ::
         :: HOMO-LUMO gap              3.712218964057 eV    ::
         ::.................................................::
         :: SCC energy             -5190.454799795035 Eh    ::
         :: -> isotropic ES            0.293306509267 Eh    ::
         :: -> anisotropic ES          0.814263545973 Eh    ::
         :: -> anisotropic XC          3.457107279488 Eh    ::
         :: -> dispersion             -6.896924056509 Eh    ::
         :: -> Gsolv                  -0.210940489825 Eh    ::
         ::    -> Gelec               -0.018531407105 Eh    ::
         ::    -> Gsasa               -0.187332997350 Eh    ::
         ::    -> Ghb                 -0.006933528497 Eh    ::
         ::    -> Gshift               0.001857443127 Eh    ::
         :: repulsion energy          85.985568536478 Eh    ::
         :: add. restraining           0.000000000000 Eh    ::
         :: total charge              -0.000000000037 e     ::
         :::::::::::::::::::::::::::::::::::::::::::::::::::::

      ----------------------------------------------------------- 
     |              Fast Inertial Relaxation Engine              |
      ----------------------------------------------------------- 

          ...................................................
          :                      SETUP                      :
          :.................................................:
          :   energy convergence        0.5000000E-05 Eh    :
          :   grad. convergence         0.1000000E-02 Eh/a0 :
          :   optimization log               true           :
          :   writing optlog all                1     steps :
          :   Hessian reset                    20     steps :
          :   time step scaling                 5     steps :
          :   maximium step len.        1.0000000     a0    :
          :   initial time step         0.2500000     fs    :
          :   maximum time step         1.2500000     fs    :
          :   power reset thr           0.0000000     au    :
          :   alpha parameter           0.1000000           :
          :   BFGS update                   false           :
          :   preconditioning               false           :
          ...................................................

........................................................................
.............................. CYCLE    1 ..............................
........................................................................

 iter      E             dE          RMSdq      gap      omega  full diag
   1  -5190.6682568 -0.519067E+04  0.922E-03    3.72       0.0  T
   2  -5190.6682937 -0.369020E-04  0.564E-03    3.72       1.0  T
   3  -5190.6682833  0.103800E-04  0.301E-03    3.72       1.0  T
   4  -5190.6683025 -0.191729E-04  0.806E-04    3.72       2.0  T
   5  -5190.6683044 -0.185704E-05  0.286E-04    3.72       5.6  T
   6  -5190.6683045 -0.123797E-06  0.190E-04    3.72       8.5  T
   7  -5190.6683045 -0.528262E-07  0.134E-04    3.72      12.1  T
     SCC iter.                  ...       23 min, 59.726 sec
     gradient                   ...        6 min,  8.281 sec
 * total energy  : -5103.4095663 Eh     change    :  -0.6255850E-01 Eh
   gradient norm :     0.6859476 Eh/a0  converged?    E=F G=F D=F
   time step     :     0.2500000 fs     power     :   0.3178589E-05
   step length   :     0.0875203 a0     speed     :   0.8468062E-02

........................................................................
.............................. CYCLE    2 ..............................
........................................................................

 iter      E             dE          RMSdq      gap      omega  full diag
   1  -5190.9823451 -0.519098E+04  0.134E-02    3.74       0.0  T
   2  -5190.9824236 -0.784697E-04  0.820E-03    3.74       1.0  T
   3  -5190.9824019  0.216506E-04  0.435E-03    3.74       1.0  T
   4  -5190.9824418 -0.399086E-04  0.118E-03    3.73       1.4  T
   5  -5190.9824458 -0.397560E-05  0.430E-04    3.73       3.7  T
   6  -5190.9824461 -0.273583E-06  0.294E-04    3.73       5.5  T
   7  -5190.9824462 -0.133185E-06  0.209E-04    3.73       7.7  T
     SCC iter.                  ...       23 min, 50.913 sec
     gradient                   ...        6 min,  7.430 sec
 * total energy  : -5103.4914641 Eh     change    :  -0.8189785E-01 Eh
   gradient norm :     0.6013320 Eh/a0  converged?    E=F G=F D=F
   time step     :     0.2500000 fs     power     :   0.4049136E-05
   step length   :     0.1276411 a0     speed     :   0.1234996E-01

........................................................................
.............................. CYCLE    3 ..............................
........................................................................

 iter      E             dE          RMSdq      gap      omega  full diag
   1  -5191.3895394 -0.519139E+04  0.170E-02    3.75       0.0  T
   2  -5191.3896652 -0.125823E-03  0.104E-02    3.75       1.0  T
   3  -5191.3896305  0.346588E-04  0.546E-03    3.75       1.0  T
   4  -5191.3896933 -0.627927E-04  0.149E-03    3.75       1.1  T
   5  -5191.3896998 -0.644076E-05  0.548E-04    3.75       2.9  T
   6  -5191.3897002 -0.433440E-06  0.381E-04    3.75       4.2  T
   7  -5191.3897004 -0.229262E-06  0.271E-04    3.75       5.9  T
     SCC iter.                  ...       23 min, 52.690 sec
     gradient                   ...        6 min, 12.628 sec
 * total energy  : -5103.5801909 Eh     change    :  -0.8872678E-01 Eh
   gradient norm :     0.5013899 Eh/a0  converged?    E=F G=F D=F
   time step     :     0.2500000 fs     power     :   0.4238786E-05
   step length   :     0.1626718 a0     speed     :   0.1573938E-01

........................................................................
.............................. CYCLE    4 ..............................
........................................................................

 iter      E             dE          RMSdq      gap      omega  full diag
   1  -5191.8816653 -0.519188E+04  0.199E-02    3.76       0.0  T
   2  -5191.8818341 -0.168867E-03  0.121E-02    3.76       1.0  T
   3  -5191.8817869  0.472536E-04  0.625E-03    3.76       1.0  T
   4  -5191.8818699 -0.829926E-04  0.173E-03    3.76       1.0  T
   5  -5191.8818786 -0.878439E-05  0.639E-04    3.76       2.5  T
   6  -5191.8818792 -0.563320E-06  0.449E-04    3.76       3.6  T
   7  -5191.8818795 -0.326859E-06  0.320E-04    3.76       5.0  T
     SCC iter.                  ...       23 min, 54.284 sec
     gradient                   ...        6 min,  9.945 sec
 * total energy  : -5103.6633558 Eh     change    :  -0.8316491E-01 Eh
   gradient norm :     0.4007792 Eh/a0  converged?    E=F G=F D=F
   time step     :     0.2500000 fs     power     :   0.3792697E-05
   step length   :     0.1913250 a0     speed     :   0.1851172E-01

........................................................................
.............................. CYCLE    5 ..............................
........................................................................

 iter      E             dE          RMSdq      gap      omega  full diag
   1  -5192.4501894 -0.519245E+04  0.218E-02    3.77       0.0  T
   2  -5192.4503852 -0.195739E-03  0.132E-02    3.77       1.0  T
   3  -5192.4503280  0.571648E-04  0.666E-03    3.77       1.0  T
   4  -5192.4504236 -0.955875E-04  0.187E-03    3.77       1.0  T
   5  -5192.4504340 -0.104518E-04  0.694E-04    3.77       2.3  T
   6  -5192.4504347 -0.623091E-06  0.494E-04    3.77       3.3  T
   7  -5192.4504351 -0.407013E-06  0.350E-04    3.77       4.6  T
     SCC iter.                  ...       23 min, 32.882 sec
     gradient                   ...        6 min,  1.733 sec
 * total energy  : -5103.7315403 Eh     change    :  -0.6818451E-01 Eh
   gradient norm :     0.3229246 Eh/a0  converged?    E=F G=F D=F
   time step     :     0.2500000 fs     power     :   0.2909831E-05
   step length   :     0.2124701 a0     speed     :   0.2055762E-01

........................................................................
.............................. CYCLE    6 ..............................
........................................................................

 iter      E             dE          RMSdq      gap      omega  full diag
   1  -5193.1521416 -0.519315E+04  0.248E-02    3.78       0.0  T
   2  -5193.1523783 -0.236668E-03  0.150E-02    3.78       1.0  T
   3  -5193.1523033  0.749349E-04  0.722E-03    3.78       1.0  T
   4  -5193.1524196 -0.116255E-03  0.207E-03    3.78       1.0  T
   5  -5193.1524328 -0.131877E-04  0.772E-04    3.78       2.1  T
   6  -5193.1524335 -0.695153E-06  0.554E-04    3.78       2.9  T
   7  -5193.1524340 -0.525613E-06  0.386E-04    3.78       4.2  T
     SCC iter.                  ...       23 min, 59.509 sec
     gradient                   ...        6 min,  6.760 sec
 * total energy  : -5103.7849865 Eh     change    :  -0.5344612E-01 Eh
   gradient norm :     0.2943142 Eh/a0  converged?    E=F G=F D=F
   time step     :     0.2750000 fs     power     :   0.1807101E-05
   step length   :     0.2488746 a0     speed     :   0.2189087E-01

........................................................................
.............................. CYCLE    7 ..............................
........................................................................

 iter      E             dE          RMSdq      gap      omega  full diag
   1  -5193.9780460 -0.519398E+04  0.263E-02    3.79       0.0  T
   2  -5193.9782754 -0.229336E-03  0.158E-02    3.79       1.0  T
   3  -5193.9781949  0.805214E-04  0.693E-03    3.79       1.0  T
   4  -5193.9783085 -0.113661E-03  0.208E-03    3.79       1.0  T
   5  -5193.9783222 -0.136818E-04  0.793E-04    3.79       2.0  T
   6  -5193.9783228 -0.648940E-06  0.564E-04    3.79       2.9  T
   7  -5193.9783234 -0.585304E-06  0.385E-04    3.79       4.2  T
     SCC iter.                  ...       23 min, 37.802 sec
     gradient                   ...        6 min,  3.201 sec
 * total energy  : -5103.8220719 Eh     change    :  -0.3708541E-01 Eh
   gradient norm :     0.3250017 Eh/a0  converged?    E=F G=F D=F
   time step     :     0.3025000 fs     power     :   0.9371984E-06
   step length   :     0.2771043 a0     speed     :   0.2215812E-01

........................................................................
.............................. CYCLE    8 ..............................
........................................................................

 iter      E             dE          RMSdq      gap      omega  full diag
   1  -5194.8910506 -0.519489E+04  0.261E-02    3.81       0.0  T
   2  -5194.8912217 -0.171065E-03  0.155E-02    3.81       1.0  T
   3  -5194.8911621  0.595562E-04  0.561E-03    3.81       1.0  T
   4  -5194.8912397 -0.775594E-04  0.183E-03    3.80       1.0  T
   5  -5194.8912506 -0.109364E-04  0.743E-04    3.80       2.2  T
   6  -5194.8912512 -0.539722E-06  0.496E-04    3.80       3.2  T
   7  -5194.8912517 -0.519120E-06  0.332E-04    3.80       4.9  T
     SCC iter.                  ...       23 min, 36.533 sec
     gradient                   ...        6 min,  4.466 sec
 * total energy  : -5103.8513803 Eh     change    :  -0.2930840E-01 Eh
   gradient norm :     0.3697256 Eh/a0  converged?    E=F G=F D=F
   time step     :     0.3327500 fs     power     :   0.6569119E-06
   step length   :     0.2965417 a0     speed     :   0.2155673E-01

........................................................................
.............................. CYCLE    9 ..............................
........................................................................

 iter      E             dE          RMSdq      gap      omega  full diag
   1  -5195.8467601 -0.519585E+04  0.254E-02    3.82       0.0  T
   2  -5195.8468629 -0.102837E-03  0.149E-02    3.82       1.0  T
   3  -5195.8468442  0.187238E-04  0.366E-03    3.82       1.0  T
   4  -5195.8468722 -0.280515E-04  0.129E-03    3.82       1.3  T
   5  -5195.8468768 -0.462431E-05  0.640E-04    3.82       2.5  T
   6  -5195.8468773 -0.402529E-06  0.374E-04    3.82       4.3  T
   7  -5195.8468776 -0.353964E-06  0.250E-04    3.81       6.4  T
     SCC iter.                  ...       23 min, 28.418 sec
     gradient                   ...        6 min,  2.544 sec
 * total energy  : -5103.8865290 Eh     change    :  -0.3514870E-01 Eh
   gradient norm :     0.3822879 Eh/a0  converged?    E=F G=F D=F
   time step     :     0.3660250 fs     power     :   0.9009906E-06
   step length   :     0.3158595 a0     speed     :   0.2087364E-01

........................................................................
.............................. CYCLE   10 ..............................
........................................................................

 iter      E             dE          RMSdq      gap      omega  full diag
   1  -5196.7992862 -0.519680E+04  0.260E-02    3.83       0.0  T
   2  -5196.7993646 -0.783655E-04  0.152E-02    3.83       1.0  T
   3  -5196.7993331  0.314944E-04  0.413E-03    3.83       1.0  T
   4  -5196.7993781 -0.449627E-04  0.106E-03    3.83       1.5  T
   5  -5196.7993805 -0.242890E-05  0.524E-04    3.83       3.1  T
   6  -5196.7993807 -0.247725E-06  0.320E-04    3.83       5.0  T
   7  -5196.7993809 -0.183590E-06  0.190E-04    3.83       8.4  T
     SCC iter.                  ...       23 min, 31.360 sec
     gradient                   ...        6 min,  3.743 sec
 * total energy  : -5103.9346993 Eh     change    :  -0.4817028E-01 Eh
   gradient norm :     0.3381603 Eh/a0  converged?    E=F G=F D=F
   time step     :     0.4026275 fs     power     :   0.1202808E-05
   step length   :     0.3447251 a0     speed     :   0.2071021E-01

........................................................................
.............................. CYCLE   11 ..............................
........................................................................

 iter      E             dE          RMSdq      gap      omega  full diag
   1  -5197.6982557 -0.519770E+04  0.288E-02    3.84       0.0  T
   2  -5197.6983905 -0.134756E-03  0.170E-02    3.83       1.0  T
   3  -5197.6982830  0.107488E-03  0.695E-03    3.83       1.0  T
   4  -5197.6984283 -0.145263E-03  0.138E-03    3.83       1.2  T
   5  -5197.6984327 -0.444643E-05  0.588E-04    3.83       2.7  T
   6  -5197.6984335 -0.770152E-06  0.284E-04    3.83       5.7  T
   7  -5197.6984335 -0.502878E-07  0.138E-04    3.83      11.7  T
     SCC iter.                  ...       23 min, 29.537 sec
     gradient                   ...        6 min,  3.321 sec
 * total energy  : -5103.9852750 Eh     change    :  -0.5057579E-01 Eh
   gradient norm :     0.2400433 Eh/a0  converged?    E=F G=F D=F
   time step     :     0.4428903 fs     power     :   0.9414603E-06
   step length   :     0.3853646 a0     speed     :   0.2104703E-01

........................................................................
.............................. CYCLE   12 ..............................
........................................................................

 iter      E             dE          RMSdq      gap      omega  full diag
   1  -5198.4866389 -0.519849E+04  0.325E-02    3.83       0.0  T
   2  -5198.4868875 -0.248554E-03  0.196E-02    3.83       1.0  T
   3  -5198.4867207  0.166722E-03  0.934E-03    3.83       1.0  T
   4  -5198.4869632 -0.242515E-03  0.182E-03    3.83       1.0  T
   5  -5198.4869718 -0.856786E-05  0.692E-04    3.83       2.3  T
   6  -5198.4869728 -0.101623E-05  0.364E-04    3.83       4.4  T
   7  -5198.4869729 -0.107810E-06  0.220E-04    3.83       7.3  T
   8  -5198.4869730 -0.840382E-07  0.124E-04    3.83      13.0  T
     SCC iter.                  ...       26 min, 51.321 sec
     gradient                   ...        6 min,  2.374 sec
 * total energy  : -5104.0096163 Eh     change    :  -0.2434124E-01 Eh
   gradient norm :     0.1723090 Eh/a0  converged?    E=F G=F D=F
   time step     :     0.4871793 fs     power     :  -0.1435433E-06
   step length   :     0.4248598 a0     speed     :   0.2109463E-01

........................................................................
.............................. CYCLE   13 ..............................
........................................................................
 * reset velocities

 iter      E             dE          RMSdq      gap      omega  full diag
   1  -5198.4730759 -0.519847E+04  0.932E-04    3.83       0.0  T
   2  -5198.4730763 -0.422945E-06  0.562E-04    3.83       2.9  T
   3  -5198.4730763  0.207565E-07  0.262E-04    3.83       6.1  T
     SCC iter.                  ...       10 min,  6.872 sec
     gradient                   ...        6 min,  1.777 sec
 * total energy  : -5104.0112430 Eh     change    :  -0.1626663E-02 Eh
   gradient norm :     0.1671047 Eh/a0  converged?    E=F G=F D=F
   time step     :     0.2435896 fs     power     :   0.8724302E-07
   step length   :     0.0095860 a0     speed     :   0.9519006E-03

........................................................................
.............................. CYCLE   14 ..............................
........................................................................

 iter      E             dE          RMSdq      gap      omega  full diag
   1  -5198.4455664 -0.519845E+04  0.184E-03    3.83       0.0  T
   2  -5198.4455679 -0.156845E-05  0.110E-03    3.83       1.5  T
   3  -5198.4455679  0.812088E-07  0.469E-04    3.83       3.4  T
   4  -5198.4455681 -0.232542E-06  0.141E-04    3.83      11.4  T
     SCC iter.                  ...       13 min, 36.814 sec
     gradient                   ...        6 min,  9.218 sec
 * total energy  : -5104.0143018 Eh     change    :  -0.3058878E-02 Eh
   gradient norm :     0.1571125 Eh/a0  converged?    E=F G=F D=F
   time step     :     0.2435896 fs     power     :   0.1613783E-06
   step length   :     0.0188814 a0     speed     :   0.1874955E-02

........................................................................
.............................. CYCLE   15 ..............................
........................................................................

 iter      E             dE          RMSdq      gap      omega  full diag
   1  -5198.4049990 -0.519840E+04  0.265E-03    3.83       0.0  T
   2  -5198.4050023 -0.332214E-05  0.159E-03    3.83       1.0  T
   3  -5198.4050020  0.273888E-06  0.731E-04    3.83       2.2  T
   4  -5198.4050027 -0.669535E-06  0.218E-04    3.83       7.4  T
     SCC iter.                  ...       13 min, 43.575 sec
     gradient                   ...        6 min, 15.403 sec
 * total energy  : -5104.0184382 Eh     change    :  -0.4136323E-02 Eh
   gradient norm :     0.1433016 Eh/a0  converged?    E=F G=F D=F
   time step     :     0.2435896 fs     power     :   0.2144096E-06
   step length   :     0.0276130 a0     speed     :   0.2742013E-02

........................................................................
.............................. CYCLE   16 ..............................
........................................................................

 iter      E             dE          RMSdq      gap      omega  full diag
   1  -5198.3521891 -0.519835E+04  0.338E-03    3.83       0.0  T
   2  -5198.3521944 -0.529338E-05  0.203E-03    3.83       1.0  T
   3  -5198.3521939  0.503852E-06  0.924E-04    3.83       1.7  T
   4  -5198.3521951 -0.111946E-05  0.282E-04    3.83       5.7  T
   5  -5198.3521953 -0.208617E-06  0.100E-04    3.83      16.0  T
     SCC iter.                  ...       17 min,  5.075 sec
     gradient                   ...        6 min,  8.934 sec
 * total energy  : -5104.0232024 Eh     change    :  -0.4764260E-02 Eh
   gradient norm :     0.1271227 Eh/a0  converged?    E=F G=F D=F
   time step     :     0.2435896 fs     power     :   0.2422088E-06
   step length   :     0.0355453 a0     speed     :   0.3529704E-02

........................................................................
.............................. CYCLE   17 ..............................
........................................................................

 iter      E             dE          RMSdq      gap      omega  full diag
   1  -5198.2882271 -0.519829E+04  0.399E-03    3.83       0.0  T
   2  -5198.2882344 -0.727585E-05  0.239E-03    3.83       1.0  T
   3  -5198.2882337  0.661534E-06  0.106E-03    3.83       1.5  T
   4  -5198.2882352 -0.145368E-05  0.327E-04    3.83       4.9  T
   5  -5198.2882355 -0.280971E-06  0.117E-04    3.83      13.8  T
   6  -5198.2882355 -0.168793E-07  0.823E-05    3.83      19.5  T
     SCC iter.                  ...       20 min, 26.962 sec
     gradient                   ...        6 min,  7.041 sec
 * total energy  : -5104.0281314 Eh     change    :  -0.4928963E-02 Eh
   gradient norm :     0.1105732 Eh/a0  converged?    E=F G=F D=F
   time step     :     0.2435896 fs     power     :   0.2453294E-06
   step length   :     0.0424895 a0     speed     :   0.4219274E-02

........................................................................
.............................. CYCLE   18 ..............................
........................................................................

 iter      E             dE          RMSdq      gap      omega  full diag
   1  -5198.2145705 -0.519821E+04  0.446E-03    3.83       0.0  T
   2  -5198.2145791 -0.868145E-05  0.268E-03    3.83       1.0  T
   3  -5198.2145781  0.105466E-05  0.116E-03    3.83       1.4  T
   4  -5198.2145800 -0.195867E-05  0.373E-04    3.83       4.3  T
   5  -5198.2145804 -0.387806E-06  0.125E-04    3.83      12.8  T
   6  -5198.2145805 -0.179489E-07  0.862E-05    3.83      18.7  T
     SCC iter.                  ...       20 min, 32.406 sec
     gradient                   ...        6 min,  7.732 sec
 * total energy  : -5104.0328364 Eh     change    :  -0.4705051E-02 Eh
   gradient norm :     0.0961115 Eh/a0  converged?    E=F G=F D=F
   time step     :     0.2435896 fs     power     :   0.2290548E-06
   step length   :     0.0483009 a0     speed     :   0.4796362E-02

........................................................................
.............................. CYCLE   19 ..............................
........................................................................

 iter      E             dE          RMSdq      gap      omega  full diag
   1  -5198.1242314 -0.519812E+04  0.531E-03    3.82       0.0  T
   2  -5198.1242428 -0.113261E-04  0.319E-03    3.83       1.0  T
   3  -5198.1242409  0.185319E-05  0.134E-03    3.83       1.2  T
   4  -5198.1242439 -0.300903E-05  0.441E-04    3.83       3.6  T
   5  -5198.1242445 -0.567237E-06  0.142E-04    3.83      11.3  T
   6  -5198.1242445 -0.197861E-07  0.949E-05    3.83      16.9  T
     SCC iter.                  ...       20 min, 31.076 sec
     gradient                   ...        6 min,  7.421 sec
 * total energy  : -5104.0374906 Eh     change    :  -0.4654140E-02 Eh
   gradient norm :     0.0852648 Eh/a0  converged?    E=F G=F D=F
   time step     :     0.2679486 fs     power     :   0.1985998E-06
   step length   :     0.0587031 a0     speed     :   0.5299378E-02

........................................................................
.............................. CYCLE   20 ..............................
........................................................................

 iter      E             dE          RMSdq      gap      omega  full diag
   1  -5198.0178916 -0.519802E+04  0.613E-03    3.82       0.0  T
   2  -5198.0179046 -0.130331E-04  0.368E-03    3.82       1.0  T
   3  -5198.0179014  0.320532E-05  0.149E-03    3.82       1.1  T
   4  -5198.0179060 -0.460505E-05  0.492E-04    3.82       3.3  T
   5  -5198.0179068 -0.736825E-06  0.154E-04    3.82      10.4  T
   6  -5198.0179068 -0.180653E-07  0.987E-05    3.82      16.3  T
     SCC iter.                  ...       20 min, 21.102 sec
     gradient                   ...        6 min,  6.536 sec
 * total energy  : -5104.0418690 Eh     change    :  -0.4378468E-02 Eh
   gradient norm :     0.0806490 Eh/a0  converged?    E=F G=F D=F
   time step     :     0.2947435 fs     power     :   0.1639693E-06
   step length   :     0.0693279 a0     speed     :   0.5689560E-02
 * RMSD in coord.:     0.0409122 a0     energy gain  -0.6948613E+00 Eh

........................................................................
.............................. CYCLE   21 ..............................
........................................................................

 iter      E             dE          RMSdq      gap      omega  full diag
   1  -5197.9277545 -0.519793E+04  0.523E-03    3.82       0.0  T
   2  -5197.9277622 -0.761553E-05  0.314E-03    3.82       1.0  T
   3  -5197.9277591  0.301867E-05  0.121E-03    3.82       1.3  T
   4  -5197.9277632 -0.400871E-05  0.384E-04    3.82       4.2  T
   5  -5197.9277636 -0.461795E-06  0.124E-04    3.82      13.0  T
   6  -5197.9277636 -0.920227E-08  0.763E-05    3.82      21.1  T
     SCC iter.                  ...       20 min, 25.245 sec
     gradient                   ...        6 min,  5.750 sec
 * total energy  : -5104.0450671 Eh     change    :  -0.3198043E-02 Eh
   gradient norm :     0.0806415 Eh/a0  converged?    E=F G=F D=F
   time step     :     0.2500000 fs     power     :   0.1463979E-06
   step length   :     0.0603709 a0     speed     :   0.5841205E-02

........................................................................
.............................. CYCLE   22 ..............................
........................................................................

 iter      E             dE          RMSdq      gap      omega  full diag
   1  -5197.8417618 -0.519784E+04  0.522E-03    3.82       0.0  T
   2  -5197.8417674 -0.558419E-05  0.314E-03    3.82       1.0  T
   3  -5197.8417637  0.374103E-05  0.117E-03    3.82       1.4  T
   4  -5197.8417684 -0.475182E-05  0.323E-04    3.82       5.0  T
   5  -5197.8417688 -0.321694E-06  0.109E-04    3.82      14.7  T
   6  -5197.8417688 -0.361433E-08  0.624E-05    3.82      25.8  T
     SCC iter.                  ...       20 min, 12.953 sec
     gradient                   ...        6 min,  3.883 sec
 * total energy  : -5104.0480683 Eh     change    :  -0.3001257E-02 Eh
   gradient norm :     0.0809124 Eh/a0  converged?    E=F G=F D=F
   time step     :     0.2500000 fs     power     :   0.1406900E-06
   step length   :     0.0610786 a0     speed     :   0.5909680E-02

........................................................................
.............................. CYCLE   23 ..............................
........................................................................

 iter      E             dE          RMSdq      gap      omega  full diag
   1  -5197.7632299 -0.519776E+04  0.524E-03    3.82       0.0  T
   2  -5197.7632338 -0.384546E-05  0.314E-03    3.82       1.0  T
   3  -5197.7632295  0.428083E-05  0.114E-03    3.82       1.4  T
   4  -5197.7632348 -0.531852E-05  0.256E-04    3.82       6.3  T
   5  -5197.7632350 -0.188930E-06  0.977E-05    3.82      16.5  T
   6  -5197.7632350 -0.164800E-08  0.537E-05    3.82      30.0  T
     SCC iter.                  ...       20 min, 18.201 sec
     gradient                   ...        6 min,  2.891 sec
 * total energy  : -5104.0510454 Eh     change    :  -0.2977096E-02 Eh
   gradient norm :     0.0797407 Eh/a0  converged?    E=F G=F D=F
   time step     :     0.2500000 fs     power     :   0.1428000E-06
   step length   :     0.0614754 a0     speed     :   0.5948077E-02

........................................................................
.............................. CYCLE   24 ..............................
........................................................................

 iter      E             dE          RMSdq      gap      omega  full diag
   1  -5197.6945643 -0.519769E+04  0.528E-03    3.82       0.0  T
   2  -5197.6945669 -0.262765E-05  0.316E-03    3.82       1.0  T
   3  -5197.6945625  0.443988E-05  0.111E-03    3.82       1.5  T
   4  -5197.6945679 -0.545116E-05  0.207E-04    3.82       7.8  T
   5  -5197.6945680 -0.110978E-06  0.934E-05    3.82      17.2  T
   6  -5197.6945680 -0.393629E-08  0.522E-05    3.82      30.8  T
     SCC iter.                  ...       20 min,  8.666 sec
     gradient                   ...        6 min,  2.234 sec
 * total energy  : -5104.0540764 Eh     change    :  -0.3030924E-02 Eh
   gradient norm :     0.0768551 Eh/a0  converged?    E=F G=F D=F
   time step     :     0.2500000 fs     power     :   0.1474282E-06
   step length   :     0.0619304 a0     speed     :   0.5992096E-02

........................................................................
.............................. CYCLE   25 ..............................
........................................................................

 iter      E             dE          RMSdq      gap      omega  full diag
   1  -5197.6373533 -0.519764E+04  0.532E-03    3.82       0.0  T
   2  -5197.6373552 -0.190104E-05  0.318E-03    3.82       1.0  T
   3  -5197.6373510  0.411693E-05  0.105E-03    3.82       1.5  T
   4  -5197.6373561 -0.503100E-05  0.184E-04    3.82       8.8  T
   5  -5197.6373561 -0.789041E-07  0.986E-05    3.82      16.3  T
   6  -5197.6373562 -0.107329E-07  0.591E-05    3.82      27.2  T
     SCC iter.                  ...       20 min,  7.858 sec
     gradient                   ...        6 min,  4.671 sec
 * total energy  : -5104.0571565 Eh     change    :  -0.3080150E-02 Eh
   gradient norm :     0.0728538 Eh/a0  converged?    E=F G=F D=F
   time step     :     0.2500000 fs     power     :   0.1507062E-06
   step length   :     0.0625853 a0     speed     :   0.6055461E-02

........................................................................
.............................. CYCLE   26 ..............................
........................................................................

 iter      E             dE          RMSdq      gap      omega  full diag
   1  -5197.5882838 -0.519759E+04  0.591E-03    3.82       0.0  T
   2  -5197.5882857 -0.183534E-05  0.352E-03    3.82       1.0  T
   3  -5197.5882817  0.403104E-05  0.105E-03    3.82       1.5  T
   4  -5197.5882866 -0.494756E-05  0.196E-04    3.82       8.2  T
   5  -5197.5882867 -0.829905E-07  0.121E-04    3.82      13.3  T
   6  -5197.5882867 -0.247792E-07  0.799E-05    3.82      20.1  T
     SCC iter.                  ...       20 min, 13.248 sec
     gradient                   ...        6 min,  3.930 sec
 * total energy  : -5104.0605540 Eh     change    :  -0.3397511E-02 Eh
   gradient norm :     0.0681673 Eh/a0  converged?    E=F G=F D=F
   time step     :     0.2750000 fs     power     :   0.1499352E-06
   step length   :     0.0701002 a0     speed     :   0.6165971E-02

........................................................................
.............................. CYCLE   27 ..............................
........................................................................

 iter      E             dE          RMSdq      gap      omega  full diag
   1  -5197.5503302 -0.519755E+04  0.650E-03    3.82       0.0  T
   2  -5197.5503322 -0.190675E-05  0.385E-03    3.82       1.0  T
   3  -5197.5503290  0.315226E-05  0.952E-04    3.82       1.7  T
   4  -5197.5503330 -0.397814E-05  0.221E-04    3.82       7.3  T
   5  -5197.5503331 -0.102656E-06  0.147E-04    3.82      10.9  T
   6  -5197.5503331 -0.412128E-07  0.106E-04    3.82      15.2  T
     SCC iter.                  ...       20 min,  3.557 sec
     gradient                   ...        6 min,  4.757 sec
 * total energy  : -5104.0642031 Eh     change    :  -0.3649125E-02 Eh
   gradient norm :     0.0637183 Eh/a0  converged?    E=F G=F D=F
   time step     :     0.3025000 fs     power     :   0.1447779E-06
   step length   :     0.0789108 a0     speed     :   0.6309957E-02

........................................................................
.............................. CYCLE   28 ..............................
........................................................................

 iter      E             dE          RMSdq      gap      omega  full diag
   1  -5197.5262801 -0.519753E+04  0.703E-03    3.82       0.0  T
   2  -5197.5262821 -0.201326E-05  0.415E-03    3.82       1.0  T
   3  -5197.5262804  0.175191E-05  0.790E-04    3.82       2.0  T
   4  -5197.5262829 -0.246266E-05  0.250E-04    3.82       6.4  T
   5  -5197.5262830 -0.127382E-06  0.172E-04    3.82       9.4  T
   6  -5197.5262830 -0.605150E-07  0.125E-04    3.81      12.9  T
     SCC iter.                  ...       20 min, 14.614 sec
     gradient                   ...        6 min,  0.749 sec
 * total energy  : -5104.0680342 Eh     change    :  -0.3831056E-02 Eh
   gradient norm :     0.0599634 Eh/a0  converged?    E=F G=F D=F
   time step     :     0.3327500 fs     power     :   0.1365557E-06
   step length   :     0.0889553 a0     speed     :   0.6466494E-02

........................................................................
.............................. CYCLE   29 ..............................
........................................................................

 iter      E             dE          RMSdq      gap      omega  full diag
   1  -5197.5182943 -0.519752E+04  0.743E-03    3.81       0.0  T
   2  -5197.5182964 -0.215039E-05  0.438E-03    3.81       1.0  T
   3  -5197.5182952  0.117547E-05  0.758E-04    3.81       2.1  T
   4  -5197.5182972 -0.193904E-05  0.264E-04    3.81       6.1  T
   5  -5197.5182973 -0.115133E-06  0.189E-04    3.81       8.5  T
   6  -5197.5182974 -0.834543E-07  0.131E-04    3.81      12.3  T
     SCC iter.                  ...       20 min, 10.095 sec
     gradient                   ...        6 min,  4.324 sec
 * total energy  : -5104.0719955 Eh     change    :  -0.3961332E-02 Eh
   gradient norm :     0.0569702 Eh/a0  converged?    E=F G=F D=F
   time step     :     0.3660250 fs     power     :   0.1268773E-06
   step length   :     0.1001415 a0     speed     :   0.6617874E-02

........................................................................
.............................. CYCLE   30 ..............................
........................................................................

 iter      E             dE          RMSdq      gap      omega  full diag
   1  -5197.5275848 -0.519753E+04  0.765E-03    3.81       0.0  T
   2  -5197.5275872 -0.239583E-05  0.452E-03    3.80       1.0  T
   3  -5197.5275848  0.244403E-05  0.986E-04    3.80       1.6  T
   4  -5197.5275883 -0.347893E-05  0.261E-04    3.80       6.2  T
   5  -5197.5275884 -0.982445E-07  0.193E-04    3.80       8.3  T
   6  -5197.5275885 -0.876853E-07  0.130E-04    3.80      12.4  T
     SCC iter.                  ...       20 min,  7.670 sec
     gradient                   ...        6 min,  6.185 sec
 * total energy  : -5104.0760682 Eh     change    :  -0.4072672E-02 Eh
   gradient norm :     0.0554560 Eh/a0  converged?    E=F G=F D=F
   time step     :     0.4026275 fs     power     :   0.1175492E-06
   step length   :     0.1124089 a0     speed     :   0.6753241E-02

........................................................................
.............................. CYCLE   31 ..............................
........................................................................

 iter      E             dE          RMSdq      gap      omega  full diag
   1  -5197.5543442 -0.519755E+04  0.766E-03    3.80       0.0  T
   2  -5197.5543468 -0.265124E-05  0.455E-03    3.80       1.0  T
   3  -5197.5543428  0.405639E-05  0.117E-03    3.80       1.4  T
   4  -5197.5543481 -0.532399E-05  0.248E-04    3.80       6.5  T
   5  -5197.5543482 -0.905738E-07  0.179E-04    3.80       9.0  T
   6  -5197.5543483 -0.659229E-07  0.118E-04    3.80      13.6  T
     SCC iter.                  ...       20 min,  7.408 sec
     gradient                   ...        6 min,  2.987 sec
 * total energy  : -5104.0803278 Eh     change    :  -0.4259622E-02 Eh
   gradient norm :     0.0562594 Eh/a0  converged?    E=F G=F D=F
   time step     :     0.4428903 fs     power     :   0.1122826E-06
   step length   :     0.1257504 a0     speed     :   0.6867968E-02

........................................................................
.............................. CYCLE   32 ..............................
........................................................................

 iter      E             dE          RMSdq      gap      omega  full diag
   1  -5197.5982986 -0.519760E+04  0.762E-03    3.79       0.0  T
   2  -5197.5983012 -0.257012E-05  0.455E-03    3.79       1.0  T
   3  -5197.5982977  0.349328E-05  0.105E-03    3.79       1.5  T
   4  -5197.5983022 -0.449177E-05  0.224E-04    3.79       7.2  T
   5  -5197.5983022 -0.799719E-07  0.144E-04    3.79      11.2  T
   6  -5197.5983023 -0.330947E-07  0.946E-05    3.79      17.0  T
     SCC iter.                  ...       20 min, 10.988 sec
     gradient                   ...        6 min,  1.793 sec
 * total energy  : -5104.0850252 Eh     change    :  -0.4697331E-02 Eh
   gradient norm :     0.0570155 Eh/a0  converged?    E=F G=F D=F
   time step     :     0.4871793 fs     power     :   0.1149287E-06
   step length   :     0.1405129 a0     speed     :   0.6976580E-02

........................................................................
.............................. CYCLE   33 ..............................
........................................................................

 iter      E             dE          RMSdq      gap      omega  full diag
   1  -5197.6602523 -0.519766E+04  0.787E-03    3.79       0.0  T
   2  -5197.6602549 -0.265820E-05  0.470E-03    3.79       1.0  T
   3  -5197.6602534  0.157555E-05  0.740E-04    3.79       2.2  T
   4  -5197.6602555 -0.212241E-05  0.222E-04    3.79       7.2  T
   5  -5197.6602556 -0.106150E-06  0.109E-04    3.79      14.8  T
   6  -5197.6602556 -0.100063E-07  0.570E-05    3.79      28.2  T
     SCC iter.                  ...       20 min, 13.488 sec
     gradient                   ...        6 min,  2.429 sec
 * total energy  : -5104.0904161 Eh     change    :  -0.5390939E-02 Eh
   gradient norm :     0.0528297 Eh/a0  converged?    E=F G=F D=F
   time step     :     0.5358972 fs     power     :   0.1206772E-06
   step length   :     0.1578711 a0     speed     :   0.7125842E-02

........................................................................
.............................. CYCLE   34 ..............................
........................................................................

 iter      E             dE          RMSdq      gap      omega  full diag
   1  -5197.7439259 -0.519774E+04  0.865E-03    3.80       0.0  T
   2  -5197.7439300 -0.412741E-05  0.517E-03    3.80       1.0  T
   3  -5197.7439235  0.650949E-05  0.131E-03    3.80       1.2  T
   4  -5197.7439313 -0.778521E-05  0.258E-04    3.80       6.2  T
   5  -5197.7439315 -0.188713E-06  0.116E-04    3.80      13.8  T
   6  -5197.7439315 -0.827822E-08  0.551E-05    3.80      29.2  T
     SCC iter.                  ...       20 min,  4.737 sec
     gradient                   ...        6 min,  3.261 sec
 * total energy  : -5104.0962737 Eh     change    :  -0.5857633E-02 Eh
   gradient norm :     0.0440630 Eh/a0  converged?    E=F G=F D=F
   time step     :     0.5894869 fs     power     :   0.1146073E-06
   step length   :     0.1790981 a0     speed     :   0.7349062E-02

........................................................................
.............................. CYCLE   35 ..............................
........................................................................

 iter      E             dE          RMSdq      gap      omega  full diag
   1  -5197.8564639 -0.519786E+04  0.952E-03    3.80       0.0  T
   2  -5197.8564701 -0.616042E-05  0.576E-03    3.80       1.0  T
   3  -5197.8564522  0.178436E-04  0.210E-03    3.80       1.0  T
   4  -5197.8564737 -0.215104E-04  0.298E-04    3.80       5.4  T
   5  -5197.8564740 -0.226861E-06  0.139E-04    3.80      11.5  T
   6  -5197.8564740 -0.102045E-07  0.674E-05    3.80      23.9  T
     SCC iter.                  ...       20 min,  5.610 sec
     gradient                   ...        6 min,  4.306 sec
 * total energy  : -5104.1018889 Eh     change    :  -0.5615187E-02 Eh
   gradient norm :     0.0417953 Eh/a0  converged?    E=F G=F D=F
   time step     :     0.6484356 fs     power     :   0.9376278E-07
   step length   :     0.2036297 a0     speed     :   0.7596077E-02

........................................................................
.............................. CYCLE   36 ..............................
........................................................................

 iter      E             dE          RMSdq      gap      omega  full diag
   1  -5198.0006247 -0.519800E+04  0.985E-03    3.80       0.0  T
   2  -5198.0006313 -0.653063E-05  0.600E-03    3.80       1.0  T
   3  -5198.0006069  0.243601E-04  0.239E-03    3.80       1.0  T
   4  -5198.0006362 -0.293143E-04  0.286E-04    3.80       5.6  T
   5  -5198.0006364 -0.165769E-06  0.140E-04    3.80      11.5  T
   6  -5198.0006364 -0.820910E-08  0.659E-05    3.80      24.4  T
     SCC iter.                  ...       20 min, 12.369 sec
     gradient                   ...        6 min,  0.965 sec
 * total energy  : -5104.1071854 Eh     change    :  -0.5296451E-02 Eh
   gradient norm :     0.0437396 Eh/a0  converged?    E=F G=F D=F
   time step     :     0.7132792 fs     power     :   0.8052339E-07
   step length   :     0.2279054 a0     speed     :   0.7728767E-02

........................................................................
.............................. CYCLE   37 ..............................
........................................................................

 iter      E             dE          RMSdq      gap      omega  full diag
   1  -5198.1636974 -0.519816E+04  0.102E-02    3.80       0.0  T
   2  -5198.1637061 -0.866574E-05  0.614E-03    3.79       1.0  T
   3  -5198.1636883  0.177463E-04  0.231E-03    3.79       1.0  T
   4  -5198.1637099 -0.215981E-04  0.348E-04    3.79       4.6  T
   5  -5198.1637102 -0.323037E-06  0.145E-04    3.79      11.1  T
   6  -5198.1637103 -0.835553E-08  0.789E-05    3.79      20.4  T
     SCC iter.                  ...       20 min,  7.281 sec
     gradient                   ...        6 min,  1.399 sec
 * total energy  : -5104.1125570 Eh     change    :  -0.5371610E-02 Eh
   gradient norm :     0.0403189 Eh/a0  converged?    E=F G=F D=F
   time step     :     0.7846071 fs     power     :   0.7306308E-07
   step length   :     0.2526378 a0     speed     :   0.7788632E-02

........................................................................
.............................. CYCLE   38 ..............................
........................................................................

 iter      E             dE          RMSdq      gap      omega  full diag
   1  -5198.3108411 -0.519831E+04  0.106E-02    3.79       0.0  T
   2  -5198.3108505 -0.936131E-05  0.622E-03    3.79       1.0  T
   3  -5198.3108416  0.884479E-05  0.190E-03    3.79       1.0  T
   4  -5198.3108526 -0.109938E-04  0.357E-04    3.79       4.5  T
   5  -5198.3108530 -0.308465E-06  0.150E-04    3.79      10.7  T
   6  -5198.3108530 -0.107275E-07  0.855E-05    3.79      18.8  T
     SCC iter.                  ...       20 min,  8.188 sec
     gradient                   ...        6 min,  3.079 sec
 * total energy  : -5104.1178568 Eh     change    :  -0.5299818E-02 Eh
   gradient norm :     0.0427393 Eh/a0  converged?    E=F G=F D=F
   time step     :     0.8630678 fs     power     :   0.6358795E-07
   step length   :     0.2797736 a0     speed     :   0.7841098E-02

........................................................................
.............................. CYCLE   39 ..............................
........................................................................

 iter      E             dE          RMSdq      gap      omega  full diag
   1  -5198.3917438 -0.519839E+04  0.106E-02    3.79       0.0  T
   2  -5198.3917485 -0.473972E-05  0.626E-03    3.79       1.0  T
   3  -5198.3917423  0.617758E-05  0.140E-03    3.79       1.2  T
   4  -5198.3917499 -0.760045E-05  0.268E-04    3.79       6.0  T
   5  -5198.3917501 -0.143618E-06  0.133E-04    3.79      12.1  T
   6  -5198.3917501 -0.726141E-08  0.590E-05    3.79      27.3  T
     SCC iter.                  ...       20 min,  7.891 sec
     gradient                   ...        6 min,  2.585 sec
 * total energy  : -5104.1236873 Eh     change    :  -0.5830512E-02 Eh
   gradient norm :     0.0423243 Eh/a0  converged?    E=F G=F D=F
   time step     :     0.9493746 fs     power     :   0.6725436E-07
   step length   :     0.3083204 a0     speed     :   0.7855607E-02

........................................................................
.............................. CYCLE   40 ..............................
........................................................................

 iter      E             dE          RMSdq      gap      omega  full diag
   1  -5198.3712030 -0.519837E+04  0.110E-02    3.79       0.0  T
   2  -5198.3712112 -0.816817E-05  0.663E-03    3.79       1.0  T
   3  -5198.3711966  0.145538E-04  0.200E-03    3.79       1.0  T
   4  -5198.3712144 -0.177955E-04  0.349E-04    3.79       4.6  T
   5  -5198.3712146 -0.256380E-06  0.211E-04    3.79       7.6  T
   6  -5198.3712147 -0.408236E-07  0.134E-04    3.79      12.0  T
     SCC iter.                  ...       20 min,  6.050 sec
     gradient                   ...        6 min,  1.538 sec
 * total energy  : -5104.1303256 Eh     change    :  -0.6638261E-02 Eh
   gradient norm :     0.0399134 Eh/a0  converged?    E=F G=F D=F
   time step     :     1.0443120 fs     power     :   0.6812781E-07
   step length   :     0.3432364 a0     speed     :   0.7950203E-02

........................................................................
.............................. CYCLE   41 ..............................
........................................................................

 iter      E             dE          RMSdq      gap      omega  full diag
   1  -5198.2678462 -0.519827E+04  0.122E-02    3.78       0.0  T
   2  -5198.2678633 -0.171418E-04  0.734E-03    3.78       1.0  T
   3  -5198.2678482  0.151089E-04  0.223E-03    3.78       1.0  T
   4  -5198.2678670 -0.187334E-04  0.528E-04    3.79       3.0  T
   5  -5198.2678678 -0.853282E-06  0.248E-04    3.79       6.5  T
   6  -5198.2678679 -0.466398E-07  0.159E-04    3.79      10.1  T
     SCC iter.                  ...       20 min, 13.251 sec
     gradient                   ...        6 min,  5.097 sec
 * total energy  : -5104.1373169 Eh     change    :  -0.6991373E-02 Eh
   gradient norm :     0.0358789 Eh/a0  converged?    E=F G=F D=F
   time step     :     1.1487432 fs     power     :   0.6143498E-07
   step length   :     0.3845724 a0     speed     :   0.8097860E-02

........................................................................
.............................. CYCLE   42 ..............................
........................................................................

 iter      E             dE          RMSdq      gap      omega  full diag
   1  -5198.1582867 -0.519816E+04  0.135E-02    3.78       0.0  T
   2  -5198.1582960 -0.927481E-05  0.808E-03    3.78       1.0  T
   3  -5198.1582784  0.175710E-04  0.252E-03    3.78       1.0  T
   4  -5198.1583000 -0.215139E-04  0.376E-04    3.78       4.3  T
   5  -5198.1583002 -0.206454E-06  0.196E-04    3.78       8.2  T
   6  -5198.1583002 -0.155669E-07  0.910E-05    3.78      17.7  T
     SCC iter.                  ...       20 min,  6.371 sec
     gradient                   ...        6 min,  2.673 sec
 * total energy  : -5104.1440532 Eh     change    :  -0.6736279E-02 Eh
   gradient norm :     0.0377115 Eh/a0  converged?    E=F G=F D=F
   time step     :     1.2500000 fs     power     :   0.5317768E-07
   step length   :     0.4247029 a0     speed     :   0.8218458E-02
 * RMSD in coord.:     0.0545247 a0     energy gain  -0.1021842E+00 Eh

........................................................................
.............................. CYCLE   43 ..............................
........................................................................

 iter      E             dE          RMSdq      gap      omega  full diag
   1  -5198.1445920 -0.519814E+04  0.231E-03    3.78       0.0  T
   2  -5198.1445923 -0.304406E-06  0.140E-03    3.78       1.1  T
   3  -5198.1445912  0.115451E-05  0.544E-04    3.78       3.0  T
   4  -5198.1445926 -0.138669E-05  0.687E-05    3.78      23.4  T
   5  -5198.1445926 -0.957516E-08  0.383E-05    3.78      42.0  T
   6  -5198.1445926 -0.135606E-08  0.198E-05    3.78      81.1  T
     SCC iter.                  ...       20 min, 13.928 sec
     gradient                   ...        6 min,  5.666 sec
 * total energy  : -5104.1453143 Eh     change    :  -0.1261084E-02 Eh
   gradient norm :     0.0369189 Eh/a0  converged?    E=F G=F D=F
   time step     :     0.2500000 fs     power     :   0.6457223E-07
   step length   :     0.0804395 a0     speed     :   0.7782952E-02

........................................................................
.............................. CYCLE   44 ..............................
........................................................................

 iter      E             dE          RMSdq      gap      omega  full diag
   1  -5198.1392559 -0.519814E+04  0.229E-03    3.78       0.0  T
   2  -5198.1392565 -0.571502E-06  0.143E-03    3.78       1.1  T
   3  -5198.1392551  0.142966E-05  0.636E-04    3.78       2.5  T
   4  -5198.1392569 -0.185941E-05  0.830E-05    3.78      19.4  T
   5  -5198.1392570 -0.204773E-07  0.350E-05    3.78      45.9  T
   6  -5198.1392570 -0.698492E-09  0.186E-05    3.78      86.7  T
     SCC iter.                  ...       20 min, 11.811 sec
     gradient                   ...        6 min,  2.916 sec
 * total energy  : -5104.1467256 Eh     change    :  -0.1411308E-02 Eh
   gradient norm :     0.0331399 Eh/a0  converged?    E=F G=F D=F
   time step     :     0.2500000 fs     power     :   0.7169355E-07
   step length   :     0.0771410 a0     speed     :   0.7463809E-02

........................................................................
.............................. CYCLE   45 ..............................
........................................................................

 iter      E             dE          RMSdq      gap      omega  full diag
   1  -5198.1423696 -0.519814E+04  0.249E-03    3.78       0.0  T
   2  -5198.1423705 -0.889715E-06  0.157E-03    3.78       1.0  T
   3  -5198.1423688  0.163818E-05  0.726E-04    3.78       2.2  T
   4  -5198.1423711 -0.228275E-05  0.100E-04    3.78      16.0  T
   5  -5198.1423711 -0.307436E-07  0.406E-05    3.78      39.6  T
   6  -5198.1423711 -0.105683E-08  0.224E-05    3.78      71.9  T
     SCC iter.                  ...       20 min, 10.397 sec
     gradient                   ...        6 min,  2.186 sec
 * total energy  : -5104.1481713 Eh     change    :  -0.1445726E-02 Eh
   gradient norm :     0.0287634 Eh/a0  converged?    E=F G=F D=F
   time step     :     0.2500000 fs     power     :   0.7196189E-07
   step length   :     0.0749783 a0     speed     :   0.7254558E-02

........................................................................
.............................. CYCLE   46 ..............................
........................................................................

 iter      E             dE          RMSdq      gap      omega  full diag
   1  -5198.1540465 -0.519815E+04  0.268E-03    3.78       0.0  T
   2  -5198.1540475 -0.960816E-06  0.168E-03    3.78       1.0  T
   3  -5198.1540455  0.198663E-05  0.771E-04    3.78       2.1  T
   4  -5198.1540482 -0.268066E-05  0.104E-04    3.78      15.5  T
   5  -5198.1540482 -0.300761E-07  0.453E-05    3.78      35.5  T
   6  -5198.1540482 -0.135151E-08  0.248E-05    3.78      64.9  T
     SCC iter.                  ...       20 min,  9.726 sec
     gradient                   ...        6 min,  3.803 sec
 * total energy  : -5104.1495514 Eh     change    :  -0.1380106E-02 Eh
   gradient norm :     0.0264294 Eh/a0  converged?    E=F G=F D=F
   time step     :     0.2500000 fs     power     :   0.6769496E-07
   step length   :     0.0736010 a0     speed     :   0.7121289E-02

........................................................................
.............................. CYCLE   47 ..............................
........................................................................

 iter      E             dE          RMSdq      gap      omega  full diag
   1  -5198.1737230 -0.519817E+04  0.273E-03    3.78       0.0  T
   2  -5198.1737237 -0.726453E-06  0.168E-03    3.78       1.0  T
   3  -5198.1737217  0.203544E-05  0.721E-04    3.78       2.2  T
   4  -5198.1737242 -0.254733E-05  0.933E-05    3.78      17.2  T
   5  -5198.1737243 -0.212767E-07  0.450E-05    3.78      35.8  T
   6  -5198.1737243 -0.109048E-08  0.239E-05    3.78      67.3  T
     SCC iter.                  ...       20 min,  9.645 sec
     gradient                   ...        6 min,  3.415 sec
 * total energy  : -5104.1508422 Eh     change    :  -0.1290716E-02 Eh
   gradient norm :     0.0264892 Eh/a0  converged?    E=F G=F D=F
   time step     :     0.2500000 fs     power     :   0.6358103E-07
   step length   :     0.0723951 a0     speed     :   0.7004617E-02

........................................................................
.............................. CYCLE   48 ..............................
........................................................................

 iter      E             dE          RMSdq      gap      omega  full diag
   1  -5198.2025778 -0.519820E+04  0.294E-03    3.78       0.0  T
   2  -5198.2025783 -0.515215E-06  0.176E-03    3.78       1.0  T
   3  -5198.2025767  0.156877E-05  0.618E-04    3.78       2.6  T
   4  -5198.2025786 -0.187342E-05  0.878E-05    3.78      18.3  T
   5  -5198.2025786 -0.174650E-07  0.443E-05    3.78      36.3  T
   6  -5198.2025786 -0.702130E-09  0.212E-05    3.78      75.9  T
     SCC iter.                  ...       20 min, 15.076 sec
     gradient                   ...        6 min,  3.577 sec
 * total energy  : -5104.1522038 Eh     change    :  -0.1361608E-02 Eh
   gradient norm :     0.0271584 Eh/a0  converged?    E=F G=F D=F
   time step     :     0.2750000 fs     power     :   0.6157983E-07
   step length   :     0.0781973 a0     speed     :   0.6878192E-02

........................................................................
.............................. CYCLE   49 ..............................
........................................................................

 iter      E             dE          RMSdq      gap      omega  full diag
   1  -5198.2397636 -0.519824E+04  0.310E-03    3.78       0.0  T
   2  -5198.2397640 -0.377685E-06  0.183E-03    3.78       1.0  T
   3  -5198.2397633  0.642219E-06  0.461E-04    3.78       3.5  T
   4  -5198.2397641 -0.793757E-06  0.789E-05    3.78      20.4  T
     SCC iter.                  ...       13 min, 26.734 sec
     gradient                   ...        6 min, 12.665 sec
 * total energy  : -5104.1536833 Eh     change    :  -0.1479490E-02 Eh
   gradient norm :     0.0269969 Eh/a0  converged?    E=F G=F D=F
   time step     :     0.3025000 fs     power     :   0.6136828E-07
   step length   :     0.0844649 a0     speed     :   0.6754076E-02

........................................................................
.............................. CYCLE   50 ..............................
........................................................................

 iter      E             dE          RMSdq      gap      omega  full diag
   1  -5198.2836268 -0.519828E+04  0.325E-03    3.78       0.0  T
   2  -5198.2836272 -0.388687E-06  0.193E-03    3.78       1.0  T
   3  -5198.2836265  0.717063E-06  0.486E-04    3.78       3.3  T
   4  -5198.2836274 -0.893395E-06  0.723E-05    3.78      22.2  T
     SCC iter.                  ...       13 min, 43.221 sec
     gradient                   ...        6 min, 20.497 sec
 * total energy  : -5104.1553046 Eh     change    :  -0.1621320E-02 Eh
   gradient norm :     0.0256902 Eh/a0  converged?    E=F G=F D=F
   time step     :     0.3327500 fs     power     :   0.6111986E-07
   step length   :     0.0915954 a0     speed     :   0.6658414E-02

........................................................................
.............................. CYCLE   51 ..............................
........................................................................

 iter      E             dE          RMSdq      gap      omega  full diag
   1  -5198.3312859 -0.519833E+04  0.343E-03    3.78       0.0  T
   2  -5198.3312864 -0.530865E-06  0.205E-03    3.78       1.0  T
   3  -5198.3312848  0.161926E-05  0.625E-04    3.78       2.6  T
   4  -5198.3312867 -0.193601E-05  0.860E-05    3.78      18.7  T
   5  -5198.3312867 -0.111922E-07  0.479E-05    3.78      33.6  T
   6  -5198.3312867 -0.144610E-08  0.216E-05    3.78      74.6  T
     SCC iter.                  ...       20 min, 27.511 sec
     gradient                   ...        6 min, 20.224 sec
 * total energy  : -5104.1570503 Eh     change    :  -0.1745770E-02 Eh
   gradient norm :     0.0235832 Eh/a0  converged?    E=F G=F D=F
   time step     :     0.3660250 fs     power     :   0.5924968E-07
   step length   :     0.0999365 a0     speed     :   0.6604323E-02

........................................................................
.............................. CYCLE   52 ..............................
........................................................................

 iter      E             dE          RMSdq      gap      omega  full diag
   1  -5198.3780126 -0.519838E+04  0.363E-03    3.78       0.0  T
   2  -5198.3780133 -0.694063E-06  0.218E-03    3.78       1.0  T
   3  -5198.3780117  0.158375E-05  0.630E-04    3.78       2.6  T
   4  -5198.3780137 -0.191259E-05  0.105E-04    3.78      15.3  T
   5  -5198.3780137 -0.223617E-07  0.541E-05    3.78      29.7  T
   6  -5198.3780137 -0.892214E-09  0.240E-05    3.78      66.9  T
     SCC iter.                  ...       20 min, 32.228 sec
     gradient                   ...        6 min, 20.319 sec
 * total energy  : -5104.1588667 Eh     change    :  -0.1816331E-02 Eh
   gradient norm :     0.0216794 Eh/a0  converged?    E=F G=F D=F
   time step     :     0.4026275 fs     power     :   0.5515906E-07
   step length   :     0.1096532 a0     speed     :   0.6587688E-02

........................................................................
.............................. CYCLE   53 ..............................
........................................................................

 iter      E             dE          RMSdq      gap      omega  full diag
   1  -5198.4170640 -0.519842E+04  0.381E-03    3.78       0.0  T
   2  -5198.4170649 -0.846572E-06  0.227E-03    3.78       1.0  T
   3  -5198.4170638  0.105307E-05  0.610E-04    3.78       2.6  T
   4  -5198.4170652 -0.135226E-05  0.106E-04    3.78      15.2  T
   5  -5198.4170652 -0.180962E-07  0.587E-05    3.78      27.4  T
   6  -5198.4170652 -0.184627E-08  0.250E-05    3.78      64.2  T
     SCC iter.                  ...       20 min, 35.886 sec
     gradient                   ...        6 min, 21.975 sec
 * total energy  : -5104.1607104 Eh     change    :  -0.1843749E-02 Eh
   gradient norm :     0.0220958 Eh/a0  converged?    E=F G=F D=F
   time step     :     0.4428903 fs     power     :   0.5050985E-07
   step length   :     0.1205316 a0     speed     :   0.6582940E-02

........................................................................
.............................. CYCLE   54 ..............................
........................................................................

 iter      E             dE          RMSdq      gap      omega  full diag
   1  -5198.4420624 -0.519844E+04  0.395E-03    3.78       0.0  T
   2  -5198.4420633 -0.897432E-06  0.235E-03    3.78       1.0  T
   3  -5198.4420609  0.243821E-05  0.810E-04    3.78       2.0  T
   4  -5198.4420639 -0.295552E-05  0.114E-04    3.78      14.2  T
   5  -5198.4420639 -0.283708E-07  0.653E-05    3.78      24.6  T
   6  -5198.4420639 -0.299042E-08  0.328E-05    3.78      49.0  T
     SCC iter.                  ...       20 min, 32.378 sec
     gradient                   ...        6 min, 19.303 sec
 * total energy  : -5104.1626452 Eh     change    :  -0.1934827E-02 Eh
   gradient norm :     0.0237724 Eh/a0  converged?    E=F G=F D=F
   time step     :     0.4871793 fs     power     :   0.4916358E-07
   step length   :     0.1318063 a0     speed     :   0.6544287E-02

........................................................................
.............................. CYCLE   55 ..............................
........................................................................

 iter      E             dE          RMSdq      gap      omega  full diag
   1  -5198.4498551 -0.519845E+04  0.419E-03    3.78       0.0  T
   2  -5198.4498562 -0.104025E-05  0.251E-03    3.78       1.0  T
   3  -5198.4498518  0.439886E-05  0.103E-03    3.78       1.6  T
   4  -5198.4498570 -0.527880E-05  0.108E-04    3.78      14.9  T
   5  -5198.4498571 -0.173450E-07  0.651E-05    3.78      24.7  T
   6  -5198.4498571 -0.269301E-08  0.341E-05    3.78      47.2  T
     SCC iter.                  ...       20 min, 37.327 sec
     gradient                   ...        6 min, 24.819 sec
 * total energy  : -5104.1647997 Eh     change    :  -0.2154491E-02 Eh
   gradient norm :     0.0224935 Eh/a0  converged?    E=F G=F D=F
   time step     :     0.5358972 fs     power     :   0.5038002E-07
   step length   :     0.1438691 a0     speed     :   0.6493834E-02

........................................................................
.............................. CYCLE   56 ..............................
........................................................................

 iter      E             dE          RMSdq      gap      omega  full diag
   1  -5198.4398338 -0.519844E+04  0.459E-03    3.78       0.0  T
   2  -5198.4398351 -0.132663E-05  0.274E-03    3.78       1.0  T
   3  -5198.4398311  0.401650E-05  0.106E-03    3.78       1.5  T
   4  -5198.4398360 -0.483275E-05  0.128E-04    3.78      12.5  T
   5  -5198.4398360 -0.356122E-07  0.656E-05    3.78      24.5  T
   6  -5198.4398360 -0.209093E-08  0.301E-05    3.78      53.4  T
     SCC iter.                  ...       20 min, 10.305 sec
     gradient                   ...        6 min,  3.732 sec
 * total energy  : -5104.1671396 Eh     change    :  -0.2339859E-02 Eh
   gradient norm :     0.0194416 Eh/a0  converged?    E=F G=F D=F
   time step     :     0.5894869 fs     power     :   0.4849374E-07
   step length   :     0.1583629 a0     speed     :   0.6498220E-02

........................................................................
.............................. CYCLE   57 ..............................
........................................................................

 iter      E             dE          RMSdq      gap      omega  full diag
   1  -5198.4148203 -0.519841E+04  0.491E-03    3.78       0.0  T
   2  -5198.4148214 -0.109152E-05  0.292E-03    3.78       1.0  T
   3  -5198.4148194  0.201881E-05  0.829E-04    3.78       1.9  T
   4  -5198.4148219 -0.246699E-05  0.124E-04    3.78      13.0  T
   5  -5198.4148219 -0.219989E-07  0.681E-05    3.78      23.6  T
   6  -5198.4148219 -0.231648E-08  0.307E-05    3.78      52.4  T
     SCC iter.                  ...       20 min,  8.901 sec
     gradient                   ...        6 min,  0.512 sec
 * total energy  : -5104.1695239 Eh     change    :  -0.2384254E-02 Eh
   gradient norm :     0.0196025 Eh/a0  converged?    E=F G=F D=F
[...]
  3613   6 C     3614   6 C                                       1.3829718
  3608   6 C     3615   6 C                                       1.5402818
  3617   6 C     3618   6 C                                       1.3908065
  3618   6 C     3619   6 C                                       1.3822757
  3619   6 C     3620   6 C                                       1.3845926
  3620   6 C     3621   6 C                                       1.3831143
  3617   6 C     3622   6 C                                       1.3885403
  3621   6 C     3622   6 C                                       1.3831473
  3616   6 C     3623   6 C                                       1.5369844
  3623   6 C     3624   6 C                                       1.5330817
  3625   6 C     3626   6 C                                       1.3884001
  3626   6 C     3627   6 C                                       1.3827835
  3627   6 C     3628   6 C                                       1.3831893
  3628   6 C     3629   6 C                                       1.3848906
  3625   6 C     3630   6 C                                       1.3902452
  3629   6 C     3630   6 C                                       1.3819470
  3624   6 C     3631   6 C                                       1.5402564
  3631   6 C     3632   6 C                                       1.5380295
  3633   6 C     3634   6 C                                       1.3882199
  3634   6 C     3635   6 C                                       1.3843798
  3635   6 C     3636   6 C                                       1.3833623
  3636   6 C     3637   6 C                                       1.3843844
  3633   6 C     3638   6 C                                       1.3904462
  3637   6 C     3638   6 C                                       1.3820839
  3632   6 C     3639   6 C                                       1.5364311
  3639   6 C     3640   6 C                                       1.5340176
  3641   6 C     3642   6 C                                       1.3902673
  3642   6 C     3643   6 C                                       1.3834130
  3643   6 C     3644   6 C                                       1.3849513
  3644   6 C     3645   6 C                                       1.3843588
  3641   6 C     3646   6 C                                       1.3898445
  3645   6 C     3646   6 C                                       1.3844332
  3640   6 C     3647   6 C                                       1.5388596
  3649   6 C     3650   6 C                                       1.3890913
  3650   6 C     3651   6 C                                       1.3843222
  3651   6 C     3652   6 C                                       1.3838327
  3652   6 C     3653   6 C                                       1.3834409
  3649   6 C     3654   6 C                                       1.3898938
  3653   6 C     3654   6 C                                       1.3818330
  3648   6 C     3655   6 C                                       1.5345968
  3655   6 C     3656   6 C                                       1.5334158
  3657   6 C     3658   6 C                                       1.3895485
  3658   6 C     3659   6 C                                       1.3837697
  3659   6 C     3660   6 C                                       1.3832426
  3660   6 C     3661   6 C                                       1.3842145
  3657   6 C     3662   6 C                                       1.3905389
  3661   6 C     3662   6 C                                       1.3833340
  3656   6 C     3663   6 C                                       1.5392227
  3665   6 C     3666   6 C                                       1.3898544
  3666   6 C     3667   6 C                                       1.3829384
  3667   6 C     3668   6 C                                       1.3832330
  3668   6 C     3669   6 C                                       1.3834827
  3665   6 C     3670   6 C                                       1.3900853
  3669   6 C     3670   6 C                                       1.3840101
  3664   6 C     3671   6 C                                       1.5346044
  3671   6 C     3672   6 C                                       1.5320562
  3673   6 C     3674   6 C                                       1.3907858
  3674   6 C     3675   6 C                                       1.3830801
  3675   6 C     3676   6 C                                       1.3853742
  3676   6 C     3677   6 C                                       1.3838178
  3673   6 C     3678   6 C                                       1.3893329
  3677   6 C     3678   6 C                                       1.3843594
  3679   6 C     3680   6 C                                       1.5334229
  3681   6 C     3682   6 C                                       1.3877664
  3682   6 C     3683   6 C                                       1.3838440
  3683   6 C     3684   6 C                                       1.3815294
  3684   6 C     3685   6 C                                       1.3843669
  3681   6 C     3686   6 C                                       1.3915991
  3685   6 C     3686   6 C                                       1.3820941
  3680   6 C     3687   6 C                                       1.5395876
  3687   6 C     3688   6 C                                       1.5364696
  3549   6 C     3689   1 H                                       1.0969518
  3551   6 C     3690   1 H                                       1.0919296
  3551   6 C     3691   1 H                                       1.0923955
  3552   6 C     3692   1 H                                       1.0959243
  3559   6 C     3693   1 H                                       1.0907734
  3559   6 C     3694   1 H                                       1.0895076
  3560   6 C     3695   1 H                                       1.0959719
  3567   6 C     3696   1 H                                       1.0911511
  3567   6 C     3697   1 H                                       1.0934179
  3568   6 C     3698   1 H                                       1.0961008
  3575   6 C     3699   1 H                                       1.0924241
  3576   6 C     3700   1 H                                       1.0958560
  3583   6 C     3701   1 H                                       1.0904987
  3583   6 C     3702   1 H                                       1.0924808
  3584   6 C     3703   1 H                                       1.0961609
  3591   6 C     3704   1 H                                       1.0903863
  3591   6 C     3705   1 H                                       1.0919712
  3592   6 C     3706   1 H                                       1.0965696
  3599   6 C     3707   1 H                                       1.0904527
  3599   6 C     3708   1 H                                       1.0937990
  3600   6 C     3709   1 H                                       1.0934395
  3608   6 C     3710   1 H                                       1.0942402
  3615   6 C     3711   1 H                                       1.0925154
  3615   6 C     3712   1 H                                       1.0919294
  3616   6 C     3713   1 H                                       1.0941538
  3623   6 C     3714   1 H                                       1.0893850
  3623   6 C     3715   1 H                                       1.0917470
  3624   6 C     3716   1 H                                       1.0963084
  3631   6 C     3717   1 H                                       1.0929801
  3631   6 C     3718   1 H                                       1.0924253
  3632   6 C     3719   1 H                                       1.0958605
  3639   6 C     3720   1 H                                       1.0915293
  3639   6 C     3721   1 H                                       1.0913591
  3640   6 C     3722   1 H                                       1.0961049
  3647   6 C     3723   1 H                                       1.0919569
  3647   6 C     3724   1 H                                       1.0917463
  3648   6 C     3725   1 H                                       1.0965553
  3655   6 C     3726   1 H                                       1.0916916
  3655   6 C     3727   1 H                                       1.0903302
  3656   6 C     3728   1 H                                       1.0962177
  3663   6 C     3729   1 H                                       1.0922765
  3663   6 C     3730   1 H                                       1.0922542
  3664   6 C     3731   1 H                                       1.0961121
  3671   6 C     3732   1 H                                       1.0908688
  3671   6 C     3733   1 H                                       1.0917837
  3672   6 C     3734   1 H                                       1.0960437
  3679   6 C     3735   1 H                                       1.0913392
  3679   6 C     3736   1 H                                       1.0898812
  3543   6 C     3737   1 H                                       1.0802533
  3548   6 C     3738   1 H                                       1.0808890
  3547   6 C     3739   1 H                                       1.0801294
  3546   6 C     3740   1 H                                       1.0815710
  3545   6 C     3741   1 H                                       1.0801910
  3554   6 C     3742   1 H                                       1.0808354
  3555   6 C     3743   1 H                                       1.0816892
  3556   6 C     3744   1 H                                       1.0815761
  3557   6 C     3745   1 H                                       1.0808777
  3558   6 C     3746   1 H                                       1.0813881
  3562   6 C     3747   1 H                                       1.0795051
  3563   6 C     3748   1 H                                       1.0807669
  3564   6 C     3749   1 H                                       1.0809536
  3565   6 C     3750   1 H                                       1.0808852
  3566   6 C     3751   1 H                                       1.0817275
  3570   6 C     3752   1 H                                       1.0803616
  3571   6 C     3753   1 H                                       1.0809216
  3572   6 C     3754   1 H                                       1.0795119
  3573   6 C     3755   1 H                                       1.0798439
  3574   6 C     3756   1 H                                       1.0804542
  3575   6 C     3757   1 H                                       1.0910129
  3578   6 C     3758   1 H                                       1.0807793
  3579   6 C     3759   1 H                                       1.0805238
  3580   6 C     3760   1 H                                       1.0801680
  3581   6 C     3761   1 H                                       1.0793764
  3582   6 C     3762   1 H                                       1.0829314
  3586   6 C     3763   1 H                                       1.0790562
  3587   6 C     3764   1 H                                       1.0812430
  3588   6 C     3765   1 H                                       1.0808476
  3589   6 C     3766   1 H                                       1.0801840
  3590   6 C     3767   1 H                                       1.0830187
  3594   6 C     3768   1 H                                       1.0819716
  3595   6 C     3769   1 H                                       1.0827329
  3596   6 C     3770   1 H                                       1.0813282
  3597   6 C     3771   1 H                                       1.0809498
  3598   6 C     3772   1 H                                       1.0799016
  3602   6 C     3773   1 H                                       1.0802068
  3603   6 C     3774   1 H                                       1.0808818
  3604   6 C     3775   1 H                                       1.0805790
  3605   6 C     3776   1 H                                       1.0810613
  3606   6 C     3777   1 H                                       1.0809865
  3607   6 C     3778   1 H                                       1.0905764
  3607   6 C     3779   1 H                                       1.0936168
  3610   6 C     3780   1 H                                       1.0805581
  3611   6 C     3781   1 H                                       1.0815945
  3612   6 C     3782   1 H                                       1.0796661
  3613   6 C     3783   1 H                                       1.0800551
  3614   6 C     3784   1 H                                       1.0810798
  3618   6 C     3785   1 H                                       1.0817434
  3619   6 C     3786   1 H                                       1.0810302
  3620   6 C     3787   1 H                                       1.0812584
  3621   6 C     3788   1 H                                       1.0794904
  3622   6 C     3789   1 H                                       1.0809795
  3626   6 C     3790   1 H                                       1.0821647
  3627   6 C     3791   1 H                                       1.0813250
  3628   6 C     3792   1 H                                       1.0793635
  3629   6 C     3793   1 H                                       1.0812702
  3630   6 C     3794   1 H                                       1.0797806
  3634   6 C     3795   1 H                                       1.0819432
  3635   6 C     3796   1 H                                       1.0809594
  3636   6 C     3797   1 H                                       1.0787247
  3637   6 C     3798   1 H                                       1.0804781
  3638   6 C     3799   1 H                                       1.0798625
  3642   6 C     3800   1 H                                       1.0801184
  3643   6 C     3801   1 H                                       1.0810763
  3644   6 C     3802   1 H                                       1.0813974
  3645   6 C     3803   1 H                                       1.0815867
  3646   6 C     3804   1 H                                       1.0816178
  3650   6 C     3805   1 H                                       1.0816664
  3651   6 C     3806   1 H                                       1.0815966
  3652   6 C     3807   1 H                                       1.0800606
  3653   6 C     3808   1 H                                       1.0804907
  3654   6 C     3809   1 H                                       1.0785450
  3658   6 C     3810   1 H                                       1.0820123
  3659   6 C     3811   1 H                                       1.0812069
  3660   6 C     3812   1 H                                       1.0804230
  3661   6 C     3813   1 H                                       1.0809883
  3662   6 C     3814   1 H                                       1.0808821
  3666   6 C     3815   1 H                                       1.0796734
  3667   6 C     3816   1 H                                       1.0798283
  3668   6 C     3817   1 H                                       1.0797715
  3669   6 C     3818   1 H                                       1.0808818
  3670   6 C     3819   1 H                                       1.0821556
  3674   6 C     3820   1 H                                       1.0805013
  3675   6 C     3821   1 H                                       1.0813762
  3676   6 C     3822   1 H                                       1.0811490
  3677   6 C     3823   1 H                                       1.0820031
  3678   6 C     3824   1 H                                       1.0815120
  3686   6 C     3825   1 H                                       1.0810642
  3685   6 C     3826   1 H                                       1.0801439
  3684   6 C     3827   1 H                                       1.0797644
  3683   6 C     3828   1 H                                       1.0791328
  3682   6 C     3829   1 H                                       1.0804469
  3550   6 C     3830   1 H                                       1.0872053
  3550   6 C     3831   1 H                                       1.0874033
  3550   6 C     3832   1 H                                       1.0878307
  3680   6 C     3833   1 H                                       1.0957134
  3687   6 C     3834   1 H                                       1.0922957
  3687   6 C     3835   1 H                                       1.0926489
  3688   6 C     3836   6 C                                       1.5317181
  3837   6 C     3838   6 C                                       1.3910090
  3838   6 C     3839   6 C                                       1.3827483
  3839   6 C     3840   6 C                                       1.3853264
  3840   6 C     3841   6 C                                       1.3835881
  3837   6 C     3842   6 C                                       1.3887290
  3841   6 C     3842   6 C                                       1.3846526
  3838   6 C     3843   1 H                                       1.0806180
  3839   6 C     3844   1 H                                       1.0814650
  3840   6 C     3845   1 H                                       1.0809142
  3841   6 C     3846   1 H                                       1.0806990
  3842   6 C     3847   1 H                                       1.0811434
  3836   6 C     3848   6 C                                       1.5337250
  3836   6 C     3849   1 H                                       1.0910623
  3836   6 C     3850   1 H                                       1.0897949
  3851   6 C     3852   6 C                                       1.3906497
  3852   6 C     3853   6 C                                       1.3824399
  3853   6 C     3854   6 C                                       1.3843120
  3854   6 C     3855   6 C                                       1.3840785
  3851   6 C     3856   6 C                                       1.3893327
  3855   6 C     3856   6 C                                       1.3841442
  3852   6 C     3857   1 H                                       1.0809893
  3853   6 C     3858   1 H                                       1.0804418
  3854   6 C     3859   1 H                                       1.0807150
  3855   6 C     3860   1 H                                       1.0812168
  3856   6 C     3861   1 H                                       1.0816641
  3688   6 C     3862   1 H                                       1.0945096
  3848   6 C     3863   1 H                                       1.0929404
  3848   6 C     3864   1 H                                       1.0944145

 * 2 distinct bonds (by element types)

   Z      Z             #   av. dist./Å        max./Å        min./Å
   1 H    6 C        1944     1.0852757     1.0975567     1.0779751
   6 C    6 C        1863     1.4198234     1.5405181     1.3810176


optimized geometry written to: xtbopt.xyz


           -------------------------------------------------
          | TOTAL ENERGY            -5104.263915694826 Eh   |
          | GRADIENT NORM               0.000975691712 Eh/α |
          | HOMO-LUMO GAP               3.706691547682 eV   |
           -------------------------------------------------

------------------------------------------------------------------------
 * finished run on 2024/07/17 at 22:16:22.091     
------------------------------------------------------------------------
 total:
 * wall-time:     9 d, 20 h, 52 min, 20.665 sec
 *  cpu-time:    60 d, 19 h, 35 min, 52.328 sec
 * ratio c/w:     6.162 speedup
 SCF:
 * wall-time:     0 d,  0 h, 17 min, 10.753 sec
 *  cpu-time:     0 d,  1 h, 43 min, 50.128 sec
 * ratio c/w:     6.044 speedup
 ANC optimizer:
 * wall-time:     9 d, 20 h, 33 min, 58.026 sec
 *  cpu-time:    60 d, 17 h, 50 min, 27.032 sec
 * ratio c/w:     6.163 speedup

