3864
 energy: -5104.228574225945 gnorm: 0.000784407265 xtb: 6.6.1 (8d0f1dd)
C           33.72115576252146       58.40796586933367       49.63304401108759
C           34.44819717943317       57.38314809767014       49.04157656463575
C           34.07898000307301       56.07103785764759       49.31451884449676
C           33.03606027949322       55.78995033864511       50.17868707947131
C           32.31876893237865       56.81886231535831       50.76378274829460
C           32.66085868092399       58.12896094573058       50.47726184816874
C           35.62878482329504       57.70023840249456       48.15916286079762
C           36.90734766486211       57.09127993003946       48.74382764754318
C           35.41792573985798       57.21471590261403       46.71858634841979
C           34.16654979243444       57.80273074668634       46.05124474582372
C           34.10128417878767       59.30315027194861       46.20106511088802
C           35.15926522032363       60.12448173979906       45.82916877215994
C           35.09699409258050       61.49420006293160       46.01057604680730
C           33.96373679572172       62.07229105795485       46.55672803436450
C           32.89062273093020       61.26961774334320       46.90415571651558
C           32.96100041827798       59.89899002872527       46.72633923493367
C           34.11100521477546       57.42528650479050       44.55966613339683
C           33.81587608737657       55.93293739928509       44.31382375267021
C           34.82244898105512       55.27180937034813       43.40215549728097
C           35.41119219699144       54.06764885738541       43.77266663683005
C           36.28953208939672       53.41348809886956       42.92590606810778
C           36.59636995619774       53.96089366910397       41.69185566592174
C           36.02376665973095       55.16353021313539       41.31280759186793
C           35.14078774286101       55.80872723427243       42.16038361263659
C           32.41368427377716       55.71116565517978       43.71869439363113
C           31.24776889659538       55.88700280588816       44.70863183824595
C           29.95336823933970       55.76884508478475       43.94537891870438
C           29.09516938359185       56.85637946529144       43.84772287669467
C           27.92127407676275       56.77431944307871       43.12016386177081
C           27.58659190944833       55.59790955167361       42.47237573616307
C           28.43414929546579       54.50639206079498       42.56039375108031
C           29.60487241324422       54.59284405072684       43.29045666774475
C           31.36052636966990       54.85343336500597       45.83356017904927
C           30.16409682819684       54.73522557082466       46.79030428295508
C           29.63172111427128       56.06607114373081       47.24505598508571
C           28.29888547357548       56.38958426031596       47.02161877793272
C           27.77715594378842       57.59569130996315       47.45306559426764
C           28.58534669387654       58.50494321014330       48.11382596338692
C           29.91653628788405       58.19644772315741       48.33360215350302
C           30.43468007112513       56.98809518412721       47.90395347816558
C           30.63432579804833       53.87232411034999       47.97484322389139
C           29.65383040982637       53.73650981181213       49.14762739649929
C           28.24911883924889       53.44583848805718       48.69260197695419
C           27.98083016772345       52.44866335325587       47.76136899925506
C           26.68643118766644       52.19661747880329       47.34438618925350
C           25.63188821214849       52.92765452962793       47.86464283055080
C           25.88440695411192       53.91673107283917       48.79949774178729
C           27.18249825983209       54.17400912574247       49.20351868660198
C           30.16767979063000       52.61532514688225       50.06917004823201
C           29.41833405325498       52.52811510144871       51.40179441454674
C           29.77924927831658       53.65284181910015       52.34256306285296
C           28.79291418196771       54.46042146130845       52.89424902248832
C           29.10264677693600       55.41492276350308       53.84824676303288
C           30.41090534121528       55.57405614743984       54.27005891573319
C           31.41009439359291       54.79947193997052       53.70529606367148
C           31.09488749837922       53.84972884161856       52.75065964040283
C           29.69784069253870       51.20675829564740       52.14357056638480
C           29.22966329224417       49.94969248968356       51.38614248082386
C           28.40002144149188       49.04566827286486       52.26296171183181
C           28.80744325816740       48.71399965368187       53.54996022886719
C           28.03542991904476       47.88612938635116       54.34318415409967
C           26.85348774863607       47.35398519282759       53.85680153380111
C           26.44548830420917       47.66334172323513       52.57087512298456
C           27.21041184226741       48.50808937785889       51.78624395984799
C           30.42385380707484       49.15628263631478       50.82038362474361
C           30.00742639333487       48.16410089316824       49.72164602731016
C           31.07050172795980       47.11364503924000       49.51152593727060
C           30.82627079052534       45.79438775201381       49.87425806221241
C           31.76997377661920       44.80622099181875       49.65182761344592
C           32.97785502195820       45.12377973421304       49.05442929454225
C           33.24201452954416       46.43742476428008       48.70654223531627
C           32.30071053790697       47.42330857121016       48.94114171670814
C           29.71115422501044       48.89679169050955       48.40638548476862
C           29.08941015401160       47.97518746514847       47.35225473988076
C           27.75530352895534       47.45688201102532       47.82796707448060
C           27.56068821002638       46.09542121925972       48.02418088303104
C           26.34455953954367       45.60530511726504       48.46594003931869
C           25.29583418102499       46.47350858587986       48.71500834132166
C           25.47480987071799       47.83230035789882       48.51892276569474
C           26.69399179972670       48.31842105478444       48.08169098564442
C           28.93516852265544       48.68355581769256       45.99444081916511
C           30.25967268950612       48.79328324230233       45.20859343603781
C           30.03719274214700       48.41025081375446       43.76580666781491
C           29.12502430336794       49.10640990656166       42.97917264465644
C           28.92301427737356       48.76263899009709       41.65572625867404
C           29.63677516525915       47.71773517056005       41.09022006461534
C           30.54302704634142       47.01479861833704       41.86362315153170
C           30.73600539078149       47.35728711479568       43.19160287938623
C           30.89060523777929       50.19526530277956       45.26617570770717
C           32.34272109115551       50.18130049485666       44.73096888211511
C           33.32930694498436       50.37426756123281       45.85753944512544
C           34.09138912045351       49.31293385177633       46.32782737393980
C           35.05265505708415       49.50468834009354       47.30643457169405
C           35.25557135820022       50.76507591787068       47.83907896258257
C           34.48529173167262       51.82602669357668       47.39458386196079
C           33.52826647852434       51.63129747435966       46.41718581870927
C           32.59729552561971       51.22194487872382       43.61799715409293
C           32.74463247427845       50.61406170987071       42.21203105749375
C           32.24152289911984       51.59148056614455       41.17636353373036
C           31.25541928082014       51.22697340495183       40.26975224550035
C           30.80113561410734       52.12185720911344       39.31541223325901
C           31.32996186052397       53.39924276285913       39.25107542301808
C           32.31692349464743       53.77276777912837       40.14705062577541
C           32.76771027703699       52.87759129702592       41.09946003231369
C           34.20394966624280       50.28123031965864       41.85676528908458
C           34.92022200492680       49.26304748589525       42.76051500606975
C           36.41062204858449       49.47346180410395       42.67081006002007
C           37.16975171161970       49.60171012829339       43.82808067035637
C           38.53428316217213       49.82631045220041       43.76108709275547
C           39.15920948348721       49.93826542746257       42.53159628615004
C           38.40951860480792       49.82864199704626       41.37305509351509
C           37.04985904130209       49.59015307155275       41.44173790539220
C           34.51760273134353       47.82679150811921       42.39263385110502
C           35.09222393925389       46.74820049744427       43.33700019263699
C           34.03927241097106       45.70878222150080       43.63008324569611
C           33.51496903264361       44.91486309641578       42.61523842811494
C           32.52675373993041       43.98543101463379       42.88415924782985
C           32.04118189472833       43.83010087735510       44.17216125209118
C           32.55668506906865       44.61065079201171       45.19216779908172
C           33.54607776074753       45.53939030014946       44.91844409353449
C           36.35581787098700       46.09163456063516       42.76146940071123
C           36.94432482403443       45.04752993003337       43.72274156545423
C           37.32790788749723       45.67712565686592       45.03840467824879
C           36.72430670763938       45.27318324362109       46.22272744405526
C           37.08543096460764       45.84011011947237       47.43253259574686
C           38.07273886150454       46.80946745709024       47.47925520734624
C           38.69803760688241       47.20034398204683       46.30831694283178
C           38.32046827551873       46.64757056354643       45.09885015601796
C           38.15809443240468       44.31602713257088       43.10756461207045
C           37.83249473018579       42.87426661069841       42.69499311730661
C           36.88320651839632       42.83893938134437       41.52479466702194
C           37.27652039593303       43.29595370539228       40.27060549364786
C           36.43270629873192       43.19872801472182       39.18054116376488
C           35.17010024136684       42.65087247857351       39.32942261152883
C           34.75610822098782       42.21550866998700       40.57574901157288
C           35.60692409728613       42.31016185078280       41.66365389337803
C           39.10955991519139       42.08536483100366       42.36386010418386
C           38.79108927419090       40.61064483780666       42.08532815140016
C           38.25988399864193       39.93417028087131       43.32728331520801
C           39.02566132444617       39.84376172939990       44.48385806318556
C           38.52926699043417       39.23445495611702       45.62149360313166
C           37.25605613577743       38.69094033423399       45.61964086396185
C           36.48725078560103       38.76049502177936       44.47041784106899
C           36.98671907858021       39.37759144802500       43.33646044806121
C           39.99962904780767       39.81588517087208       41.56520916216763
C           40.61613223800435       40.31079580945647       40.24568959376186
H           35.74593777702773       58.78968559644166       48.13940919215445
H           36.29857881380926       57.47784029817588       46.13037617884419
H           35.34485930007441       56.12609890703657       46.71383621695225
H           33.28272012896345       57.38912070794396       46.54796280697132
H           33.34047012094793       58.03433799561623       44.07995060736446
H           35.06571299419942       57.68916599273016       44.10123597050497
H           33.86481082370407       55.40519255114971       45.26730695586983
H           32.26507252678206       56.40271753941502       42.88694557792522
H           32.36490382244747       54.70031035857115       43.30798878294126
H           31.29205438657253       56.89037113746694       45.14400711759098
H           32.23887455499644       55.10101320098590       46.43069734587546
H           29.34923402304373       54.22024834579783       46.27105385493473
H           30.87444651739581       52.87863309773647       47.59092165898327
H           31.55463584155235       54.30152800004080       48.37428029857467
H           29.64357987694870       54.67748503105464       49.70921750421932
H           30.06281163667128       51.66996343383443       49.53852077283928
H           31.22887335092558       52.77607360932025       50.26158235446881
H           28.34232326519077       52.57683895111990       51.19668809370033
H           30.76429563190581       51.13388001089814       52.35301353345682
H           29.18548440611173       51.26113255010843       53.10700869556471
H           28.58946818691321       50.26712190221539       50.55794087898960
H           29.09407632736606       47.65851188625916       50.05491831740415
H           29.02123125509722       49.71908964778569       48.59745221969504
H           30.63915146657839       49.31138937610218       48.01403850123030
H           29.75092774336547       47.11251791620889       47.21200139677244
H           28.22332053449589       48.10507533043256       45.39920799173533
H           28.50252907336348       49.67367132197399       46.14330452462640
H           30.97085982316252       48.08232835631993       45.64335842779435
H           30.27526276944814       50.87906497919665       44.67907530722275
H           30.88672195958524       50.55525739095638       46.29633183218267
H           32.51263753025110       49.18969542844625       44.30507913194955
H           31.77121210082116       51.93634910719567       43.59491890754976
H           33.50498919497849       51.78573244563949       43.83932494863820
H           32.13396802901455       49.70771628645534       42.14634570619187
H           34.21860162305889       49.91586704345440       40.82667922483391
H           34.77350058599966       51.21367563488122       41.87909617753122
H           34.63388648583530       49.44782887823732       43.79660514306494
H           33.42604965589563       47.77000216695019       42.41209960912590
H           34.82935093023048       47.61512356023579       41.36934698838553
H           35.37091353174640       47.22560448433415       44.28246366254472
H           36.11882134104943       45.60016802106468       41.81449100730560
H           37.09325044923909       46.87181401122847       42.56388560798989
H           36.16109067437702       44.30630578289760       43.91874167313098
H           38.52292524231254       44.86679996865823       42.23968238120525
H           38.96297571688213       44.28064288832087       43.84515720393625
H           37.35096709596790       42.38024166587733       43.54777320454263
H           39.59396105404745       42.52613545310275       41.49361887235838
H           39.80069696709081       42.15216267769330       43.20441826289132
H           33.98790405642841       59.43750650729258       49.43581523095436
H           32.10761209946077       58.94432301572817       50.92131192441450
H           31.50429761951834       56.59571801129940       51.43839648991582
H           32.78183218190572       54.76748975739675       50.41176764059055
H           34.61887121899943       55.25732664847052       48.85292714728254
H           36.05488373360456       59.70218169979828       45.40467450164741
H           35.93972550522786       62.11047981606593       45.72827069325596
H           33.91535687297019       63.14166167986440       46.70987434754171
H           31.99709435305407       61.71241893455181       47.32284423677170
H           32.11872169364403       59.28293412896048       47.00823957727890
H           35.17834088905629       53.63108376972659       44.73436262486356
H           36.73576199130314       52.47611865295932       43.22746463659591
H           37.28199353416299       53.45650371294006       41.02748181317521
H           36.26615022686862       55.59319300022831       40.35024611328273
H           34.68786052623496       56.73924576899855       41.85124076192452
H           29.34612047540429       57.78134796497891       44.34884040232245
H           27.26724424173973       57.63261063938834       43.05498423866098
H           26.67221332642953       55.53327255626113       41.89945140634851
H           28.18459901155719       53.58620477511201       42.05061710794998
H           30.25455838900399       53.73146515663696       43.33688701507010
H           31.52078708942467       53.87156050465453       45.38492383019068
H           27.65829468049071       55.68754497311776       46.50483732990051
H           26.73588903794309       57.82666673999384       47.27454113519114
H           28.17889447512387       59.44554630861178       48.45843888650293
H           30.55540976505521       58.90172177777585       48.84619182201573
H           31.47258014373531       56.76348610008364       48.09668171881319
H           28.79244346206358       51.87051042141434       47.34546563925537
H           26.49205734084988       51.43250301846919       46.60380300491016
H           24.61994655991526       52.73061766926281       47.54016025194022
H           25.06697851653166       54.49415896423353       49.20909087725217
H           27.37420177085797       54.95752096760970       49.92433451195397
H           27.76393229902090       54.33089242578320       52.58523348836195
H           28.31894026726613       56.03081940672340       54.26780549224053
H           30.65417474232514       56.29038442453675       55.03977899605638
H           32.43667871252218       54.93363117655380       54.01595036098448
H           31.89017101572174       53.24641123971247       52.33775354279906
H           29.72909914665161       49.11038642899406       53.95025034211562
H           28.36320155636654       47.65956497672053       55.34694502541516
H           26.25233859693482       46.70348761521980       54.47649689649310
H           25.52705137756756       47.25081219801174       52.17703643428954
H           26.87235272830164       48.75039134069196       50.78801154321664
H           31.16564333389306       49.84526450303973       50.41343085538739
H           30.88904661082530       48.60652170143623       51.64287898021869
H           29.87789226559277       45.53714178505180       50.32822329951807
H           31.55668610156624       43.78463622916800       49.93670358398045
H           33.70721089018858       44.34976383707905       48.85827140053375
H           34.18591626318321       46.69503474308798       48.24941462859395
H           32.53270575437274       48.44076349002200       48.66268139364313
H           28.37501470015892       45.41012565219719       47.83203257772978
H           26.21378027557932       44.54280709053727       48.61628372723245
H           24.34471542717210       46.09331856418045       49.05928270316117
H           24.66100089975477       48.51727971034454       48.71255535355651
H           26.81474892780271       49.38256774927292       47.94140644810921
H           28.55865297991474       49.92134587430882       43.40587682221784
H           28.20763164959444       49.31208650488199       41.05950432765714
H           29.48363272244954       47.45296512027240       40.05324737932627
H           31.10287809691174       46.19421665005252       41.43762311485500
H           31.43576687905558       46.78900642575756       43.78761200683215
H           33.93507483487677       48.32754530984909       45.91194386362593
H           35.65707596264512       48.67442215937754       47.64511364093814
H           36.01503302284096       50.91995737448092       48.58795487229176
H           34.64504050307879       52.81494431844690       47.79968672973013
H           32.93718461094445       52.46547177102011       46.07327634112325
H           30.83555336768666       50.23098070035481       40.31402544805329
H           30.03199226698374       51.81957921520772       38.61744202780114
H           30.97564536143215       54.09924956033276       38.50753549509284
H           32.74316965551820       54.76427314908955       40.09916449069920
H           33.54410231297841       53.18530341392737       41.78401687237415
H           36.68771256571116       49.52814493018987       44.79384966194436
H           39.10604031733038       49.92732084937813       44.67190617673624
H           40.22254117762597       50.11875994049712       42.47439684909662
H           38.88278481591207       49.93718485000696       40.40963473103332
H           36.47886050455602       49.51489396941339       40.52767196199981
H           33.88289013464378       45.01898002573682       41.60447896045296
H           32.12783202173458       43.37897867391917       42.08279118342281
H           31.26511257875363       43.10627401359957       44.37774703788358
H           32.18644011136530       44.50222002504755       46.20269460105754
H           33.94178275654019       46.13700126207890       45.72708858674340
H           35.96076264310926       44.50609615585900       46.19370031715070
H           36.60476825421166       45.52069668771271       48.34636415998111
H           38.34685416478310       47.25175542370602       48.42645563977128
H           39.49265570324111       47.93185771230371       46.33402002007724
H           38.80630094865678       46.97445674093833       44.19270753700905
H           38.25896588958906       43.72355543848100       40.13262391456955
H           36.76087377581129       43.54035917607721       38.21000249539699
H           34.51405484835837       42.56581666330325       38.47523892164282
H           33.77034045923845       41.78882249188757       40.70110364245040
H           35.27624643232797       41.95778117080634       42.63175733431638
H           36.37629221951928       39.43129225963691       42.44485073298021
H           35.49350890766327       38.33425766391719       44.45758719362619
H           36.86347665477166       38.21226876397841       46.50576017785275
H           39.14068468219636       39.18858927770752       46.51147249459716
H           40.02403609943980       40.25285914860785       44.50841957210921
H           37.77817448406719       57.42828679977853       48.18517009043018
H           37.02686113548892       57.38872039105274       49.78398420474761
H           36.87603666446506       56.00517434905873       48.70473803190540
H           38.00377951764651       40.57010313021129       41.32608461604249
H           40.78665581524059       39.81667281788279       42.32269881917274
H           39.67179059343284       38.78112550737851       41.44588977278235
C           39.57871846244556       40.59121719089389       39.14762906835217
C           41.62308332670160       39.30664997409526       39.73149905123881
C           41.27115594240833       37.98017730879695       39.50571494342564
C           42.19064552662702       37.07423121022384       39.00795733512165
C           43.47705447858469       37.48460407460290       38.70148387960172
C           43.83287760960374       38.80717046565369       38.89541846690312
C           42.91693417112148       39.70272082748632       39.41688512650759
H           40.26579354616770       37.64173504505804       39.71297979361851
H           41.89796543281246       36.04555665872672       38.84766543394107
H           44.19168262433713       36.78057405277470       38.29957984947531
H           44.82590957055057       39.14295672366526       38.63936156165447
H           43.21337317448145       40.72937883492000       39.56955846131729
C           40.26551631194400       41.09559021946052       37.87502837842742
H           39.01433284733782       39.68097736324139       38.93873921822976
H           38.87517200191159       41.35311218211184       39.48420603607153
C           39.32825332566290       41.72476312570958       36.88402191790576
C           38.13024306381356       41.11923185154561       36.52454171103213
C           37.29788694447783       41.69990967675854       35.58420764179503
C           37.65496549501207       42.89204659055384       34.97796040893748
C           38.84461164684947       43.50596714125778       35.32896927914604
C           39.66828654509421       42.92767465871624       36.27734080206744
H           37.84312145952496       40.18199822003087       36.97819319853459
H           36.36871273707476       41.21492363744428       35.31808464831728
H           37.00953424613579       43.33845576943480       34.23435934270319
H           39.13773179085611       44.43219045396243       34.85637689284015
H           40.59224170728136       43.41776410372263       36.55051210328614
H           41.14719317184726       41.24788545756162       40.44230425694852
H           41.02318961682170       41.83246258695092       38.15297825174055
H           40.78105446971232       40.26115942543342       37.39032194444263
C           50.84460065555984       68.45880798714771       45.39786671918792
C           50.61440775095976       67.42477240234713       44.49984911793478
C           51.63380482949462       66.50610599222023       44.27655035836826
C           52.85029799212245       66.61938298129846       44.92398517313958
C           53.06808427273259       67.65786225542769       45.81338167465257
C           52.05982445094750       68.57571703253004       46.05148618284254
C           49.30430968986270       67.32609743079816       43.75757055819478
C           49.54675548411843       67.45885882196569       42.25024201351799
C           48.56992162624734       66.01434167595836       44.06207368898360
C           48.00928218213595       65.94966225077546       45.49276180592610
C           46.94454010333185       66.99639289122710       45.68740991315052
C           47.15301933012806       68.05415995061902       46.56339521087362
C           46.19099726581261       69.03317860048908       46.73983863247526
C           44.99756276412398       68.96647154133221       46.04180165187914
C           44.77574761694471       67.91411152724523       45.16949035943468
C           45.74103218967530       66.93971361748999       44.99292363968620
C           47.47601225397911       64.53581888904124       45.75639002804814
C           46.74096416016755       64.35637033941484       47.09346286728011
C           47.60996675666344       64.71641186676041       48.26917208469047
C           48.74799060059308       63.98555250694319       48.58721305414988
C           49.51913586740330       64.31547399499188       49.68703725486247
C           49.16888783053626       65.39047295883937       50.48445817268744
C           48.03972771123433       66.12940900742119       50.17701279294741
C           47.26687652372036       65.79100806725114       49.08088946129147
C           46.24735905097951       62.90304851321306       47.15687029738211
C           45.68174127453337       62.45736684137626       48.51015509411818
C           44.53563257006633       63.33173188221996       48.94339286388384
C           43.36858498891564       63.43095879072136       48.19491386404447
C           42.33057029807084       64.24641359266570       48.60748271129027
C           42.43825045052406       64.97708632572099       49.77836040885732
C           43.59290766982378       64.88165247846349       50.53568468359934
C           44.62951988181858       64.06720510981016       50.11762050558356
C           45.26066106523135       60.98568044839662       48.40022192531308
C           44.76209027611340       60.38730090389853       49.72171408016141
C           45.83246183183679       60.39441926266017       50.78204175675117
C           47.03031814090409       59.71315123664751       50.59739674580844
C           48.00415488796327       59.70537209566150       51.57825045527099
C           47.79734740926653       60.38149487491511       52.76760393006802
C           46.61084592976454       61.06522833869860       52.96530196767895
C           45.63805256711581       61.07105743315758       51.97966221283986
C           44.25562096977615       58.96306330343752       49.45730563374357
C           43.52012382716996       58.34299627623487       50.64814238979726
C           42.32072792760570       59.16826092386892       51.04374426473317
C           41.29269593531183       59.41658369826955       50.14046254385993
C           40.17717529252209       60.13896845451384       50.51874231428049
C           40.06464233903280       60.62876063264056       51.80773692724257
C           41.08100673073716       60.39321844994032       52.71600691584779
C           42.19440612427457       59.66510068731138       52.33416822088956
C           43.04275356310540       56.92245176832986       50.29709933884251
C           44.12347781921879       55.83042460728310       50.39245558362973
C           44.11297726939223       54.88761808051743       49.21187744716997
C           42.92574544483227       54.43372383491671       48.65005277805605
C           42.93331172967373       53.50656967574157       47.62266293094991
C           44.13264230207352       52.99455297239812       47.15910395263816
C           45.32201622776822       53.41951196138054       47.72662706426737
C           45.31059267813428       54.36587175314112       48.73554634257481
C           43.92390888192669       54.95658388895475       51.64506113485227
C           44.42644087307644       55.58827922865080       52.94319588632383
C           45.93205480287534       55.69237159564877       53.01297656392538
C           46.52084857850375       56.81217158999438       53.59001205443491
C           47.89134241692571       56.89365116184509       53.75865738954294