3864
 energy: -5104.223384934423 gnorm: 0.000744418474 xtb: 6.6.1 (8d0f1dd)
C           38.86472871028103       49.76206030999974       36.04434824621519
C           38.26176474831750       48.53068144663941       35.81626285596960
C           36.93865046550611       48.36173135220950       36.20360793776501
C           36.23824219234417       49.39159825203685       36.80768204782564
C           36.85186153855982       50.61146361790112       37.03321711976937
C           38.16779418552675       50.79407954133090       36.64569952573286
C           39.02935640326353       47.39729300443521       35.18249598514866
C           39.50278939307083       47.77075005117563       33.77577108031622
C           40.21851509115381       46.99873120283130       36.06685588529708
C           39.75259605543358       46.42566019541709       37.40981991608349
C           39.04050340120686       45.11029791930804       37.20784081827420
C           37.74223401252704       44.94630645653446       37.67646228820459
C           37.04488887390479       43.77251038626968       37.45158075872155
C           37.63941935272726       42.73958697000182       36.74751339420826
C           38.94621628281379       42.87572629569065       36.30783951364950
C           39.64251565235146       44.04674002929958       36.54395928316101
C           40.90785112261047       46.25374931361111       38.40732115703037
C           41.56507995852129       47.56715535314977       38.87534193049615
C           42.61999226725363       47.24918572508669       39.90647512777987
C           43.95204478080143       47.55144384575717       39.65377659113609
C           44.93766059500857       47.25931308886837       40.58061318021243
C           44.60635860369907       46.64277475034768       41.77336366071106
C           43.28236870490371       46.33771919809823       42.03528870388374
C           42.29623211249532       46.64371744219594       41.11554823420779
C           40.51227602522267       48.54857904734330       39.41146248380704
C           41.07505771114172       49.76857046704872       40.15854110397177
C           42.17434876944254       50.45293264745708       39.38811289462953
C           43.43799696194254       50.59680159584149       39.94653304023056
C           44.46636526009183       51.19391177413169       39.23788016504057
C           44.24360823346495       51.67022677196518       37.95732812187372
C           42.98297047031078       51.54974554791071       37.39702628108742
C           41.95970293261609       50.94721577268560       38.10624373534692
C           39.91841247214528       50.73902426707432       40.44747204719578
C           40.30337839509969       51.84360474741106       41.43470027833841
C           40.71080787227602       51.28211982865906       42.77315708100461
C           39.90834721769404       50.37608402928931       43.45507550101483
C           40.27866778671069       49.90605846630943       44.70147030944708
C           41.44448537916466       50.35039880036552       45.29905115686480
C           42.25201891823377       51.25115286700752       44.62751235474009
C           41.88747142707041       51.70859054773616       43.37499228796375
C           39.14647888087170       52.83269735200171       41.66412617696663
C           38.93319661304793       53.81263378000133       40.49823997347323
C           37.57351492865819       54.44990532433613       40.63151897559417
C           37.25627223652326       55.21543033767612       41.74815380990338
C           36.00979252787470       55.79968009846704       41.87802184569061
C           35.05524678243421       55.63106239459490       40.88923894108282
C           35.35300635984401       54.86199327273078       39.77803974054876
C           36.60004217381274       54.27416245031718       39.65665557318813
C           40.05088687711328       54.87339831937237       40.43080672605012
C           40.63097409766846       55.06177126540147       39.01757505404672
C           41.88558752472144       55.89486758210685       39.11559894592764
C           41.82948062150918       57.25544183260735       39.39782333109353
C           42.98902692058493       57.99421028637934       39.55329013162610
C           44.22690726982231       57.38829081801541       39.42004755044547
C           44.29539309504675       56.03579793285076       39.13442238888579
C           43.13383237877544       55.29591758512287       38.98720043792125
C           39.58587766275355       55.68321175161581       38.08515157195420
C           40.07318049475830       55.90464866403459       36.64405996104364
C           39.02111377385284       56.68630910072205       35.89735978213857
C           37.77953951830563       56.12978931562368       35.61079429126096
C           36.82247259119831       56.84791251653486       34.91825966013793
C           37.09116361091503       58.13800780585807       34.49256461391406
C           38.32118245952433       58.70563491044642       34.77528806551101
C           39.27233843661865       57.98681415125940       35.47769748248931
C           40.38826293078819       54.57453618078034       35.94112790963133
C           40.59609503726434       54.71675516960122       34.41623317971058
C           39.61968728374402       53.85027796062955       33.66277542297740
C           39.62098567145446       52.46912572522405       33.81890545830895
C           38.70920815712899       51.67819280050290       33.14526468492466
C           37.78048494022713       52.25717123338309       32.29720579681771
C           37.77401579890048       53.63051497668845       32.12633057436476
C           38.68746511427589       54.41851048660318       32.80464478089650
C           42.03586598767816       54.39063519054169       33.98709057311046
C           43.02428949338547       55.50497930965719       34.37086337451221
C           44.43626477934519       54.97690438680814       34.39913050680020
C           45.12355502818080       54.89193972434505       35.60414846091231
C           46.41882334337916       54.40617208326342       35.65229984731933
C           47.04599621428282       53.98348500906758       34.49325585259864
C           46.36542153220607       54.04930094054745       33.28904370915582
C           45.07455207467463       54.54559646118331       33.24144203578135
C           42.88661319665395       56.69935318485200       33.41727602598932
C           43.83192714645705       57.86474228056430       33.74212372797482
C           43.61078363451347       59.00000926223029       32.77311361464902
C           44.65259356610955       59.45468631105631       31.97534117778547
C           44.47086468328858       60.51130546601431       31.10078576829659
C           43.24102621573288       61.13948663669974       31.01655579196063
C           42.19642210061741       60.70274126321343       31.81434331364516
C           42.38016057162320       59.64253028100852       32.68219917019315
C           43.64744561394499       58.35094884289510       35.18700912808320
C           44.27894303659010       59.72211031306998       35.44305017559641
C           45.72130600646530       59.80515114176143       35.01777427125083
C           46.61402874821123       58.75818683950480       35.21323770325689
C           47.93152533878149       58.86614930497593       34.80220812072778
C           48.38676067451605       60.03608848101900       34.21990018521549
C           47.51374513094503       61.09522328185280       34.04301564977050
C           46.19136953574907       60.97237745120551       34.42729434179255
C           44.13853680386940       60.09640970743290       36.93079125860039
C           43.92408728591992       61.60137548495567       37.11804924324997
C           42.72546362789745       62.07758698751583       36.33243282967513
C           41.48068530134165       61.47482047414255       36.47576551198982
C           40.38769555197203       61.92623783146995       35.75980212839741
C           40.51876363964220       62.98382378914892       34.87613041697078
C           41.75191768822610       63.59248055203798       34.72272839969691
C           42.84081028506571       63.14474455872477       35.44987574308643
C           43.72794001621612       61.98602621827888       38.59356302646728
C           44.90567550993772       61.64224994911787       39.52094856728485
C           44.49849353505202       61.94632452252649       40.94362961718380
C           44.23598152568515       63.24692259794723       41.36024933464927
C           43.79673445492459       63.50715012127406       42.64608246500837
C           43.62212846473168       62.46901934580977       43.54609482922697
C           43.89554514268158       61.17154108654788       43.14965301787403
C           44.32564723843054       60.91441835968646       41.85932231171432
C           46.18532804524164       62.38012913011008       39.11111662605409
C           47.39881690371416       61.94579354390791       39.94279681134759
C           47.61138700993602       60.45687155825158       39.80004720215117
C           47.88311780942364       59.89280113527870       38.55678684274258
C           48.07036270645312       58.52870741943935       38.42182932650428
C           47.98901207700317       57.70133324559569       39.52844682672723
C           47.72817510321504       58.25032257951389       40.77101983953929
C           47.53531793982538       59.61442203668595       40.90229404244344
C           48.67768656513928       62.67756815608740       39.50489686126730
C           48.62865439619637       64.20752177258245       39.69101624329315
C           48.91268818314497       64.90508025262430       38.38506027430459
C           50.11699606483858       64.69890767731901       37.72048562062872
C           50.38636049987376       65.34240102079646       36.52726959589823
C           49.45395668090448       66.20299368315048       35.97321015863095
C           48.24698301576773       66.40793320987686       36.61913858073017
C           47.98065367928483       65.76157336048767       37.81365082271859
C           49.61052303823837       64.68131568005511       40.77121859678528
C           49.44661163441499       66.18045850081954       41.05861157966711
C           48.05347953908281       66.46620314093057       41.56225625015759
C           47.56011095887034       65.84399900991072       42.70382309341430
C           46.26548714316101       66.07438640534910       43.13067630666655
C           45.44177786911307       66.93789824341825       42.42918331323855
C           45.93116668229780       67.58865193509656       41.30998649445122
C           47.22534393008710       67.35108650233508       40.88184534519839
C           50.50014703063913       66.67384020360355       42.05858887791687
C           50.42163172530503       68.19432055145538       42.25419134466631
C           50.90624293786443       68.92776479007772       41.02896385418897
C           52.22554676250925       68.83264506287831       40.60133315303871
C           52.66272062322831       69.52740080469935       39.48880828168571
C           51.78570550182076       70.32790480141932       38.77788042485554
C           50.46918664703745       70.43009243287702       39.19218677592431
C           50.03652198101199       69.73835140562211       40.30960860310277
C           51.22350044140912       68.63072330644727       43.48989498767469
C           50.51495984763537       68.27791877411350       44.81288799694612
H           38.36108409502260       46.53195084696709       35.09759624933899
H           40.81763630172131       46.25543435501432       35.54104096945935
H           40.84652035611379       47.87335881644233       36.23665722526210
H           39.02519983166103       47.11850864311763       37.84248739743381
H           40.51028331494636       45.73071309358224       39.28078929185389
H           41.67212579731999       45.61217103403033       37.96160688236431
H           42.06852055264254       48.03726749455174       38.02368074308855
H           39.91243811113700       48.90781362012495       38.57284763335189
H           39.84591079686090       48.01171046562848       40.08891595608376
H           41.48873651317666       49.42985403046813       41.11483629777312
H           39.07437351944077       50.17481027198089       40.84757827272332
H           41.15577527423328       52.38898424848045       41.01593812570552
H           38.22402899641610       52.26906773799357       41.82798991314502
H           39.33813537727946       53.39854224902003       42.57921653458695
H           38.94366611794602       53.23340245797675       39.56995094810712
H           39.66955750010197       55.83404525263877       40.78293021911990
H           40.86666550155336       54.58082806367250       41.09538117765533
H           40.90680786460404       54.07184533280426       38.63700277880434
H           38.70312749337656       55.04345240726898       38.06264890875872
H           39.26554377313447       56.64541947803153       38.49229489903765
H           40.98597153863772       56.50974385744589       36.68029621640393
H           40.38828279091329       55.75156090564275       34.13223684299885
H           42.34967547627079       53.45454513595298       34.45420185810042
H           42.06053018917471       54.23845832682629       32.90481124120446
H           42.76917360078759       55.83402927155129       35.38130118587482
H           43.08028448460327       56.37228848621102       32.39227445545049
H           41.85727157288576       57.06007517658699       33.44973303930357
H           44.86276809570488       57.51559363100207       33.62138037135925
H           42.57962700489310       58.43289600203023       35.40266607661977
H           44.07161389252498       57.62035801221389       35.87564506631037
H           43.71965102491510       60.45688706890636       34.85339125467212
H           43.29523957063362       59.55590188875045       37.36184620034538
H           45.03806945738962       59.78012204691026       37.45971127223446
H           44.80239658909525       62.12546561986392       36.72867562545056
H           43.53708529387337       63.06178413347204       38.64180824017686
H           42.83330243830744       61.48223208316762       38.96966346896060
H           45.09500241803858       60.56739783781040       39.45285090561066
H           46.39840997655382       62.17936699577810       38.06044708518870
H           46.02830057823868       63.45474467412698       39.21076602776677
H           47.19811752964551       62.18143805460829       40.99417678606406
H           49.51931992898391       62.27118095189184       40.06959850559607
H           48.86033924526480       62.45594735654293       38.45220929034876
H           47.62869272481844       64.49839403784459       40.02510061864929
H           49.42740609947275       64.11329435509521       41.68503658400267
H           50.63371607673830       64.48682613478795       40.44323934553464
H           49.59168124734541       66.72808171735976       40.11859124979533
H           50.35346280483568       66.17519515045765       43.01797281078894
H           51.49573174979341       66.41074498647184       41.69608515847663
H           39.89162199477493       49.91530205240472       35.74622931627383
H           38.65165949241328       51.74693421553611       36.80974118580959
H           36.30331544113766       51.41280690420589       37.50751260664558
H           35.20941679227722       49.24064249122489       37.10383665940456
H           36.45292788463971       47.41013010758871       36.03381357553050
H           37.26660214965914       45.75080866761974       38.22123460623895
H           36.03461505081076       43.66750778492515       37.82205114695044
H           37.08893932397122       41.83103304524837       36.54418658839558
H           39.42564675600054       42.06381883490798       35.77894276602027
H           40.66348441047204       44.12679667413978       36.19941120818484
H           44.21829715478930       48.03312082112988       38.72283889019580
H           45.96585977830130       47.51914451114174       40.37375596958256
H           45.36830115086401       46.39742436026815       42.49837076445806
H           43.02350020140154       45.85357029983088       42.96620438034034
H           41.26623462814015       46.40684801765764       41.34104402479316
H           43.61867889045818       50.22556414225403       40.94554221486437
H           45.44564446284411       51.27793252676905       39.68699210960095
H           45.03806322379123       52.13172469404965       37.38810813337249
H           42.80686950236592       51.91928038598947       36.39598139124796
H           40.98320588077848       50.85363596134680       37.65421574203952
H           39.58646888064709       51.18535865916206       39.50853033051448
H           38.97902853055397       50.03738035344942       43.02126698944151
H           39.64571372259357       49.19333603148188       45.21136764598019
H           41.72462018707814       49.99305704676199       46.27879865503036
H           43.17189037682239       51.59349540789459       45.07783916046438
H           42.52295520698213       52.41142452138492       42.85434001995817
H           37.98585056940697       55.35020882378479       42.53340812451943
H           35.78278086857922       56.39444690547597       42.75184665914231
H           34.08237586664425       56.09260882463872       40.98541855250282
H           34.61110496341804       54.71983817820905       39.00401181458616
H           36.81506239963861       53.66643698172782       38.78740199332832
H           40.87358493917296       57.74895535425741       39.50267333508839
H           42.91903817101353       59.04526315839222       39.79312837283882
H           45.13453094827703       57.96095976762964       39.54286896840597
H           45.25821870911105       55.55459896909147       39.03618024257603
H           43.19651010922049       54.23651626537538       38.77317716688488
H           37.55509123987070       55.11968720401603       35.91912876706265
H           35.86432694377775       56.39701145829322       34.70076889541350
H           36.34700524706694       58.69614865755754       33.94213531764439
H           38.54234976102636       59.70929378943654       34.43917842732310
H           40.22739179873076       58.44472292478687       35.69809245180227
H           41.28186748240854       54.14363930948703       36.39372003470972
H           39.56251578936283       53.88288891549959       36.12055147870570
H           40.34244090357316       52.01082512728254       34.47870692607386
H           38.71383533800309       50.60790813046182       33.28569752240184
H           37.06488727024767       51.64049014660026       31.77242096861555
H           37.05315536759889       54.09079730413049       31.46510728415686
H           38.66935559351065       55.49184262086403       32.67175127871361
H           44.63655119782857       55.20912098988313       36.51614781539980
H           46.94102718216259       54.35852458320741       36.59707210914577
H           48.05585065709215       53.60075250131477       34.52088849406131
H           46.84122521551293       53.70408836079923       32.38306642862311
H           44.55977219821390       54.58930734592345       32.29183912412844
H           45.62376239187174       58.98578542333545       32.04229289954504
H           45.29641723961920       60.84472137192763       30.48798926648907
H           43.09603357133489       61.96778919061895       30.33740125576320
H           41.23550834181495       61.19542233004839       31.76299128470596
H           41.55507397326737       59.32522449543079       33.30349315534637
H           46.27967778195525       57.84366682961740       35.68010895610422
H           48.60856078650561       58.03316161436601       34.93266122711228
H           49.41197466384483       60.12822025957373       33.89226298398842
H           47.86433179313273       62.01237927966086       33.59126340481191
H           45.50574801767397       61.79107772182520       34.25238159952877
H           41.35803752381569       60.64301558579306       37.15339747108902
H           39.42594262637240       61.45170871247255       35.89417693506478
H           39.66576066565017       63.33323876850714       34.31148017816795
H           41.86593035673945       64.41833592531290       34.03429798045337
H           43.79899993168426       63.63195170585261       35.32500929533940
H           44.36770485830635       64.07417169026004       40.67637500773451
H           43.58467029120910       64.52495831594332       42.94038753383429
H           43.27572570760343       62.66656850956328       44.55082955147164
H           43.77376495155026       60.35414938913006       43.84420809765358
H           44.52875787732411       59.89427781909330       41.56416049584834
H           47.93817092529827       60.51538321282689       37.67418476574030
H           48.27549073105593       58.11432216232592       37.44596622379684
H           48.11781228711884       56.63502161973629       39.42295527192846
H           47.66549543178016       57.61154640235820       41.63736210714254
H           47.29836955836460       60.02592211547481       41.87303235161841
H           50.85446433339926       64.02435767374635       38.13006492768619
H           51.33126889005501       65.17187096883657       36.03143954142359
H           49.66375527967408       66.71043353129814       35.04150805383030
H           47.51053633313101       67.07431101609231       36.19040743095619
H           47.03448056831703       65.92911365212130       38.31027912821190
H           48.18100930818296       65.15925722725649       43.26343350452270
H           45.89645273702058       65.56765378303851       44.00985259478404
H           44.42330498899454       67.10306290683016       42.74890803693649
H           45.30456138559468       68.28283249242244       40.76708482341779
H           47.59722002996874       67.85373528156254       39.99893207534689
H           49.00732326731111       69.83019817424847       40.62882680461168
H           49.77837441004776       71.05494357958057       38.64317911629959
H           52.12568022176487       70.86960829875377       37.90640042562089
H           53.69156207114915       69.43974669653764       39.17080462923254
H           52.92730453598566       68.21037976415019       41.13594960818521
H           39.98711003236624       46.91753635825184       33.30463905522195
H           38.65810123214948       48.06510473291115       33.15511437621985
H           40.21244133566900       48.59427192153913       33.80904556530535
H           49.37230931310643       68.46402680371297       42.41333154189454
H           52.19920122262020       68.14124267336922       43.46425071204085
H           51.40043404747230       69.70755834780805       43.43960728472041
C           49.90525224298455       69.50861735678565       45.49829850747944
C           51.46268520062860       67.56411625085653       45.74421911268666
C           52.57536791366012       68.20964218843015       46.27335846608558
C           53.43813002892091       67.54593371721084       47.12708659027366
C           53.20991908289205       66.22048874278018       47.45746065704859
C           52.11806451100249       65.56366889030195       46.91936723413239
C           51.25108464539025       66.23210416400806       46.07415349998721
H           52.77042559998675       69.24100476901241       46.01535978535167
H           54.29499785629639       68.06274947730229       47.53670986015043
H           53.88599136484877       65.71003003791333       48.12814276786242
H           51.93598020890046       64.52748485942480       47.15350095972315
H           50.39752363349817       65.70494631663723       45.67096473708895
C           48.68847454771894       70.05788801251731       44.74428054725701
H           49.59127165328589       69.23300881667267       46.50784717294901
H           50.65402179609615       70.29788942593825       45.59484144534022
C           48.02315288960588       71.13663370407913       45.54763710442993
C           48.34214779804680       72.47451628199209       45.34916011005876
C           47.73832029719522       73.46651437531332       46.10225298737954
C           46.80847605331746       73.13149582675345       47.07171068255703
C           46.49258804819806       71.80054253612815       47.28684618792279
C           47.09610080340333       70.81195031098960       46.53082274083252
H           49.06705990418140       72.74349440244026       44.59263075343226
H           47.99195697376199       74.50319978258631       45.93104920974420
H           46.33451888689708       73.90539102231739       47.65846308529328
H           45.77193963209098       71.53641697503008       48.04735712458644
H           46.85150858814981       69.77358969629998       46.70490199713674
H           49.69131427153188       67.59177163179781       44.58924350545916
H           49.00084259758847       70.45320940533672       43.77634320118126
H           47.97870753225401       69.24604008419814       44.56748714438272
C           48.92400935369020       28.51199556231780       49.16215500817542
C           49.94384480712381       27.96606790273416       49.93328376820022
C           49.64708738558925       27.57327223224310       51.23231280949267
C           48.37540107815011       27.73352115999948       51.75439790578653
C           47.37808738289981       28.30892933003444       50.98705423794203
C           47.65797409891981       28.69437735804686       49.68737925650353
C           51.33973042208297       27.77411842104107       49.39171619577681
C           51.38901763079789       26.49451842847138       48.55035795328781
C           51.82484032843286       28.97211582967449       48.56639233521580
C           51.67481561934811       30.29844265550393       49.32177253965680
C           52.54981843437865       30.33764013342212       50.54765221069518
C           51.98004215048067       30.51370613623746       51.80219658770154
C           52.76398170315436       30.55342944957883       52.94170172748714
C           54.13589276049537       30.40371865283718       52.84078721778115
C           54.71725542200257       30.22673644897569       51.59692086860870
C           53.93063286157290       30.20236153993795       50.45992931846841
C           51.95407988362844       31.49162740937141       48.39909971391310
C           51.51153285216277       32.81752860347810       49.02984950373509
C           50.05282009897097       32.79036512422993       49.41695455375605
C           49.67515922342513       33.07356757728989       50.72364682310092
C           48.34249049678256       33.08111141452085       51.09678455418423
C           47.35963032469092       32.80581963636857       50.16239336847516
C           47.72186812285930       32.51183325488850       48.85912740509496
C           49.05528619200762       32.50459407726634       48.49107804618460
C           51.79159201675850       33.99113252865183       48.07269982246096
C           53.22550910630319       34.53800700848367       48.20164550896286
C           53.65091417505974       35.15768044566173       46.89329262003388
C           53.22997085364300       36.42406854040988       46.50779180265266
C           53.60785560387207       36.96159701794448       45.29105134616498
C           54.40295010900559       36.23259384270087       44.42511076844397
C           54.82445262807871       34.96657428532603       44.79198397868514
C           54.45551198234091       34.43914138209472       46.01667454984529
C           53.31131786853884       35.51359873467873       49.37884586597908
C           54.72453307408738       36.06367935697926       49.59193558595933
C           55.68679402569933       34.94266123817117       49.89590838455682
C           55.55123884084603       34.16874424784712       51.04410906602146
C           56.45244327427653       33.16106462600307       51.33344134109992
C           57.50536572789660       32.90173431092138       50.47158097561200
C           57.64675404410801       33.65621447952200       49.31978500910144
C           56.74414054226402       34.66730247195063       49.03749107002766
C           54.72398334753554       37.10393328496543       50.72014833015808
C           56.12351126206325       37.67926829392421       50.96446014308525
C           56.51490263502836       38.74210796345373       49.97227484825164
C           57.60789810042765       38.54435720923192       49.13936569692287
C           58.05583229281249       39.54884826403099       48.30075873994866
C           57.42260209590383       40.77860051278496       48.29123797022488
C           56.31887358766370       40.98302175325668       49.10264351399980
C           55.86315081954831       39.96907609629289       49.92591388523167
C           56.26227691443066       38.21414832917210       52.40314340667545
C           56.94799395107266       37.18594462435955       53.31898072918599
C           56.68030919313015       37.51221662544271       54.76471722325692
C           56.10875100140922       36.56852389965729       55.60871239436973
C           55.82936158774928       36.86915063823736       56.92954494583466
C           56.12205572398572       38.12512586784523       57.42895915550173
C           56.68396789147357       39.07891762428734       56.59761619871949
C           56.95916642477839       38.77381428012608       55.27792303524581
C           58.44840453812893       37.14974196961516       52.99222791818404
C           59.28821559682379       36.08157757233366       53.71508891857346
C           60.65255972626843       36.04655205453965       53.06765280788434
C           61.78318391736153       36.47306093787531       53.75228628557177
C           63.02588189404372       36.48160127342334       53.14014064861186