3864
 energy: -5104.078871304542 gnorm: 0.000907983216 xtb: 6.6.1 (8d0f1dd)
C           38.86012196801528       49.75992402147197       36.08891489406249
C           38.25294095218644       48.52477573846880       35.89545767181254
C           36.95232602998211       48.34909930737523       36.35041510511081
C           36.27872657758115       49.37596460112263       36.98838457546486
C           36.89507499961344       50.60061976526693       37.17719783584701
C           38.18736966514173       50.79069345108674       36.71998676790827
C           38.99745358942372       47.38882369106167       35.23904869249475
C           39.45179849617537       47.75989297554140       33.82605315995370
C           40.19634528635847       46.97791844286976       36.10522691577786
C           39.74239241495548       46.41635574023337       37.45706862285439
C           39.01651601233699       45.10450902426756       37.27924669907306
C           37.73468150234788       44.95184801893067       37.79445742896313
C           37.02145151361905       43.78288777954345       37.59689536744403
C           37.58350830869273       42.74560021562555       36.87297637304802
C           38.87527458306177       42.87044992783174       36.38810623771187
C           39.58907982504618       44.03602118366637       36.59829614463909
C           40.90675090183861       46.24380949211473       38.44337358120924
C           41.56714011669526       47.55872175585077       38.90333750703932
C           42.62250708057589       47.24614481572871       39.93500098300720
C           43.95389431862380       47.55182162098621       39.68251957725700
C           44.94037519162178       47.26115718228570       40.60882256872675
C           44.61097171168268       46.64307814516722       41.80144455905909
C           43.28732153981901       46.33705657504712       42.06452039199849
C           42.30045222282628       46.64156242812787       41.14519920060475
C           40.51602828218198       48.54311704600389       39.43751412738098
C           41.08010624595242       49.76403239236542       40.18166884665305
C           42.17931245552229       50.44562322753465       39.40849910652589
C           43.44161705105170       50.59673800742887       39.96825979144921
C           44.46973015844526       51.19067605822659       39.25616742406704
C           44.24769718324706       51.65724292295162       37.97179484823816
C           42.98817643356711       51.52944630270083       37.41056259853350
C           41.96554483453109       50.92925072068658       38.12234657082229
C           39.92355460810938       50.73564302432131       40.46783461896756
C           40.31279920760311       51.84689333000256       41.44584659242869
C           40.73108083761369       51.29226840521454       42.78334837023613
C           39.93454899562557       50.38861402586070       43.47549215528095
C           40.31563312164712       49.92346924019669       44.72022574032513
C           41.48653185610440       50.37011663673474       45.30608203328071
C           42.28851551551290       51.26814884282485       44.62411666291806
C           41.91289679495126       51.72123105639459       43.37327683472366
C           39.15590908332099       52.83589422142443       41.67648958336150
C           38.94751579601423       53.81692466037769       40.51116844093364
C           37.58969819986045       54.46101438831096       40.63928393694406
C           37.26996170020572       55.21779217863524       41.76075205713251
C           36.02716393960707       55.81159923450616       41.88487376602638
C           35.08195238622982       55.66237197128498       40.88438145075023
C           35.38311734149013       54.90224233601938       39.76823776527546
C           36.62530685209227       54.30329449460444       39.65279521318701
C           40.06917205029901       54.87441185626457       40.44836273177550
C           40.65127482966175       55.06372169292469       39.03586364092971
C           41.90788515505157       55.89325330127308       39.13618228852068
C           41.85480033194059       57.25524221747857       39.41300512105647
C           43.01577667269067       57.99160652945244       39.56822886812240
C           44.25252179341146       57.38262137486262       39.43823704571921
C           44.31821162541519       56.02880840106913       39.15800304205724
C           43.15509560146930       55.29080850907664       39.01297152603399
C           39.60899228625352       55.68956453647328       38.10344151110312
C           40.09710716712833       55.90940452673448       36.66289911463358
C           39.04491671989452       56.68919022948957       35.91323946428072
C           37.80183602540381       56.13283754317373       35.63417410959073
C           36.84719094546666       56.84750824560017       34.93480524871541
C           37.12069798205854       58.13180758759257       34.49568367696980
C           38.35233609651059       58.69887176778303       34.77150154566545
C           39.30138536399492       57.98437594613141       35.48132106895024
C           40.41350788649027       54.57784360299446       35.96230403369390
C           40.61342281547109       54.71565347001289       34.43576015191853
C           39.62761858000317       53.85163838512774       33.69091478520686
C           39.62601575215924       52.47086420264959       33.84801258843753
C           38.70314093508692       51.68353235996720       33.18503499025216
C           37.76702193147784       52.26678207285193       32.34849708537139
C           37.76391141316514       53.63983037815237       32.17732869695384
C           38.68837713648308       54.42446275700658       32.84399592044308
C           42.05033819855994       54.38603972977720       34.00068624384807
C           43.03894452314739       55.50109599367931       34.38207718988392
C           44.45231574083609       54.97763501602509       34.41888755468025
C           45.14201558180667       54.91939984124552       35.62428983873346
C           46.44272480814145       54.44874332141217       35.67896184250598
C           47.07205554281979       54.01070381668949       34.52679212866479
C           46.38789357658364       54.04590423270417       33.32322827618759
C           45.09299525302397       54.53047671618316       33.26842812572132
C           42.90617411677529       56.69245871996988       33.42341823413940
C           43.85301028640674       57.85590914318139       33.74908329988180
C           43.63748541891191       58.99792952458674       32.78575665337381
C           44.68550362866358       59.45667194941655       31.99881373647073
C           44.51174432596945       60.52424734340416       31.13600610794305
C           43.28543153793537       61.15948112427117       31.05630787263015
C           42.23521044678366       60.71819425637825       31.84372964418427
C           42.40956583142840       59.64554385382191       32.69818406016748
C           43.66897034241406       58.34074924342099       35.19464860267095
C           44.31683202455155       59.70321668036370       35.45389494026562
C           45.76336312690983       59.76707199056381       35.03895526153207
C           46.63658645000412       58.70127164110497       35.22041780386568
C           47.95720594396631       58.79253742701237       34.81414000869600
C           48.43473831694994       59.96472282907200       34.25458464577156
C           47.58150631673617       61.04244144409640       34.09361338539943
C           46.25567468809393       60.93573616487282       34.46963638030041
C           44.16927555087247       60.08266830698519       36.93998655842680
C           43.94262810157994       61.58736103892149       37.11940391221656
C           42.74017105443407       62.04431832615050       36.32676842596346
C           41.49660176053624       61.44578063456488       36.49315726110885
C           40.40187133121958       61.87467078163198       35.76565228447527
C           40.53224515859758       62.90200814542933       34.84719340245420
C           41.76483032393038       63.50493458296765       34.67057403953018
C           42.85516356979041       63.08169564464288       35.40974368755379
C           43.74444408869455       61.97937966992440       38.59224434979222
C           44.92378439078654       61.64393735558125       39.52109958172797
C           44.51785698174567       61.94905070215386       40.94373002217478
C           44.24169610585957       63.24819828859339       41.35634985325323
C           43.80364662939915       63.50806641115030       42.64245723515775
C           43.64602146557078       62.47168743909266       43.54764329242250
C           43.93355976956317       61.17595459909946       43.15535171126004
C           44.36020881088469       60.91854985116395       41.86384529273101
C           46.19928545430829       62.38751244101273       39.10809393637043
C           47.41962273490241       61.95526916014646       39.93117892002177
C           47.63200386038729       60.46608654216522       39.79109891974991
C           47.89803795428180       59.89872140193470       38.54782496328028
C           48.08613246243342       58.53469988719173       38.41490758295259
C           48.01120167606157       57.70935218132247       39.52354904019000
C           47.75547113194395       58.26090963232830       40.76615182135961
C           47.56199959644978       59.62526402596905       40.89522512799406
C           48.69439779514036       62.68464146589005       39.47625482707844
C           48.65447853380496       64.21440088662025       39.66372526411705
C           48.96833970236411       64.91057688634227       38.36294540147387
C           50.17595353667489       64.68144447400977       37.71276063882758
C           50.47069329814030       65.32164141045028       36.52340297056272
C           49.56151328833655       66.20220398688022       35.96283806070393
C           48.35235133570698       66.43087066279683       36.59612770189536
C           48.05914340766196       65.78686278333763       37.78541228136805
C           49.62091242627120       64.67855622110265       40.76200968250605
C           49.45420893184739       66.17591580697786       41.05656903412579
C           48.05975416615753       66.45542060656243       41.56063679147224
C           47.56951374224158       65.83002604571382       42.70175831397555
C           46.27384869602692       66.05524096058170       43.12894460884004
C           45.44706839691106       66.91623498137814       42.42795236689360
C           45.93374063137419       67.57001224235138       41.30939082246525
C           47.22846415334780       67.33781176053364       40.88070174022292
C           50.50620416083169       66.66907029023542       42.05807520107846
C           50.42473970377881       68.18978334946466       42.25345045814851
C           50.90756646716856       68.92166845492035       41.02575348590363
C           52.22810362228490       68.83255225058528       40.60131318963394
C           52.66117130443920       69.52270075716253       39.48411773000860
C           51.77877793023858       70.31178363571640       38.76751143156072
C           50.46147156692956       70.40841532461788       39.17989861917560
C           50.03216345689278       69.72110487735142       40.30125006100522
C           51.22519809031861       68.62713539288846       43.48912772698117
C           50.51984654550965       68.26983354689901       44.81264043863107
H           38.32181846940275       46.52908236307326       35.16484897321504
H           40.77799955300305       46.22489778638661       35.57378812784363
H           40.83874678349581       47.84531778968710       36.26256987487869
H           39.02674141699909       47.11785992004782       37.89470961584481
H           40.51775824294322       45.72303719102410       39.32223961417058
H           41.66816866489362       45.60191058747449       37.99326793471248
H           42.07056840963731       48.02464359221189       38.04948471063871
H           39.91780726810856       48.90224723979884       38.59832055214454
H           39.85042662570372       48.00880139040908       40.11718899226261
H           41.49505064868629       49.42839972526637       41.13869898898589
H           39.08273637162215       50.17339064351219       40.87631684614060
H           41.16296237912194       52.39029412852999       41.01960151357360
H           38.23365450706272       52.27241052483442       41.83824158210153
H           39.34902115831411       53.39940137824735       42.59267443190342
H           38.96203776115626       53.23780415465325       39.58278887317125
H           39.69089680369999       55.83572585561199       40.80199835921606
H           40.88387762225388       54.57937130598174       41.11432238331143
H           40.92721972384170       54.07358147109961       38.65536577397510
H           38.72583850124815       55.05121923895449       38.08153741566308
H           39.29316231027477       56.65200395203824       38.51230708862177
H           41.01078312844019       56.51373485772794       36.69956626805566
H           40.40876751387236       55.75105554125209       34.15258703098495
H           42.36587202455435       53.45027262152402       34.46775257581860
H           42.07072936430904       54.23440206411574       32.91875121335092
H           42.78129431526842       55.83382187275657       35.39101870345797
H           43.10471517320747       56.36047808867650       32.40152669250278
H           41.87744115639845       57.05454194597024       33.45231276308056
H           44.88305010715923       57.50366317666304       33.63077907237652
H           42.60156492894065       58.43559447624840       35.40767082099472
H           44.08097710702371       57.60512923774546       35.88613160383744
H           43.77129460262024       60.44338835678113       34.85970125087739
H           43.32799084266134       59.53810569726184       37.37086185518820
H           45.06810393451761       59.77200399326114       37.47451272105121
H           44.81764072808244       62.11469001282014       36.72815892649282
H           43.55136980822366       63.05430186512979       38.63596238810889
H           42.85318787740852       61.47396740960877       38.97380002095363
H           45.11903923919138       60.56968010643735       39.45709875494279
H           46.40865101174611       62.18909139307468       38.05679343128761
H           46.04013391796047       63.46049356982369       39.21488430845267
H           47.23018240396306       62.19237088945476       40.98443541070653
H           49.54350854446971       62.27329577948063       40.02742555739015
H           48.86007914218361       62.46284111590180       38.42090567771621
H           47.65138008817070       64.51156316706810       39.98202256764151
H           49.42606779233809       64.10306928880847       41.66967160561934
H           50.64877170445355       64.48329223012809       40.44760882369239
H           49.59880819196645       66.72578867180658       40.11879425572181
H           50.36021672008440       66.16700532299129       43.01655789676109
H           51.50266397805034       66.40640800043779       41.69644886796739
H           39.87116896223360       49.91757398611637       35.74179681226303
H           38.67340819797595       51.74777241757145       36.85267154187529
H           36.36825037555377       51.40057057940335       37.67701243368567
H           35.26839930518803       49.22025470723410       37.33832225775387
H           36.46574393383107       47.39431130456491       36.20713837341381
H           37.28667273378024       45.76093883516323       38.35491554811104
H           36.02517600468624       43.68707014213781       38.00404705033873
H           37.01928576082038       41.84198168683189       36.68890155485770
H           39.33091560283247       42.05548397281443       35.84407229366180
H           40.59917911631635       44.10816301671977       36.22150059224622
H           44.21936739057838       48.03466701748728       38.75226528493500
H           45.96829642938979       47.52244720312815       40.40191728621415
H           45.37399937952206       46.39663409675167       42.52502534317279
H           43.03030940020090       45.85233403589920       42.99581596585049
H           41.27130626049887       46.40317801084966       41.37236209813700
H           43.62199933788896       50.23434187621958       40.97087446737374
H           45.44825572002086       51.27900168764488       39.70657622681636
H           45.04242211259681       52.11669192921906       37.40182534622578
H           42.81313691728289       51.89177025524913       36.40760754229382
H           40.99036280388471       50.82846069646836       37.67009100658827
H           39.58908799660318       51.17620625810775       39.52741169091424
H           39.00203006373437       50.04902980905876       43.05100691843374
H           39.68831356465557       49.21309781112604       45.23960220493732
H           41.77470721023429       50.01761306293108       46.28513039730645
H           43.21283885705986       51.61254888422232       45.06462889582187
H           42.54438992764184       52.42307743171857       42.84561767703826
H           37.99529348157407       55.33800194872611       42.55250236133019
H           35.79965314589839       56.39818445926296       42.76315549613068
H           34.11370674384096       56.13208744239612       40.97613607399180
H           34.64934336637111       54.77438131193961       38.98533881091713
H           36.84537187421552       53.70164544039484       38.78092825162410
H           40.90058979730845       57.75156689951164       39.51373276876180
H           42.94939688854969       59.04331361023262       39.80517897125395
H           45.16182878078475       57.95308577902175       39.55923422453684
H           45.28043203751294       55.54559188924444       39.06162544228976
H           43.21698449368910       54.23031413845035       38.80391880389701
H           37.57670359856536       55.12631509556682       35.95297281051036
H           35.88858995147206       56.39671414573214       34.72269808101682
H           36.37908278190208       58.68633214041339       33.93954952008343
H           38.57872944760856       59.69718670684083       34.42478922449242
H           40.25875003279515       58.43937135477022       35.69843042251561
H           41.31039250074718       54.15009058209696       36.41306193999088
H           39.59093152977162       53.88410485057350       36.14866830149332
H           40.35378849439645       52.01101108723780       34.50076097986489
H           38.70639810454367       50.61328326897924       33.32538939499227
H           37.04350981855488       51.65224378066602       31.83320488125328
H           37.03781461559220       54.10288382708185       31.52497369179868
H           38.67545562625262       55.49736992112954       32.71192599993984
H           44.65440167181948       55.24718954596462       36.53268984698370
H           46.96712560547873       54.42628949325395       36.62417850016701
H           48.08609335344020       53.64028491842050       34.56224827045050
H           46.86568925181022       53.68689707340831       32.42445406214865
H           44.57634077536932       54.55363896224959       32.31996865397765
H           45.65363069562422       58.98229350123421       32.06671882479866
H           45.34141636637831       60.85905708326300       30.53080736249798
H           43.14732257965574       61.99676462628032       30.38776812060307
H           41.27692943329514       61.21506871023537       31.79606915360135
H           41.58132301809889       59.32226010963042       33.31203580896426
H           46.28653247247052       57.78449968916836       35.67204850807853
H           48.61683704273685       57.94290540760483       34.93110495277955
H           49.46211364604969       60.04228292533152       33.93141226606498
H           47.95054329458592       61.95978903119602       33.66015753279346
H           45.58431373141510       61.76666227672443       34.30533622646636
H           41.37722913286940       60.63548739381937       37.19752034828761
H           39.44130779905186       61.40488398382344       35.91985987993538
H           39.67790361434350       63.23279212934975       34.27464184747719
H           41.87827184253352       64.30745251393421       33.95625866046670
H           43.81331538588974       63.56347521027386       35.26957485570995
H           44.36183430308288       64.07309687254377       40.66906605931051
H           43.57908176519712       64.52311173786153       42.93498565431429
H           43.30259483044010       62.66725657701249       44.55387572831963
H           43.82556939195597       60.35959354063128       43.85378478366552
H           44.57316751425684       59.89895188627975       41.57274214770334
H           47.94772282938616       60.51856167240988       37.66413463814050
H           48.28551566002774       58.11710950413642       37.43964221376854
H           48.13968820881637       56.64259151891942       39.42091019975377
H           47.69661297504614       57.62398303090173       41.63484377603719
H           47.32826329147333       60.03658769593083       41.86707963174481
H           50.89434107720717       63.99181774704766       38.13156604759676
H           51.41697262917631       65.13085350787470       36.03905538463885
H           49.79161154319342       66.70610596457922       35.03528634732673
H           47.63417667877938       67.11226915584069       36.16277329780024
H           47.11166851610839       65.96799251888194       38.27379549960913
H           48.19349845488825       65.14727611874987       43.26148422020531
H           45.90833280670908       65.54572752454868       44.00839855638312
H           44.42874686528895       67.07593839040443       42.75003423004060
H           45.30445855632276       68.26146046668325       40.76832658895449
H           47.59989356633663       67.84143742110558       39.99945491277244
H           49.00305036452814       69.80652393996736       40.62131047131773
H           49.76672316877865       71.02449676931636       38.62737096272416
H           52.11635200937324       70.84947358960279       37.89350737730408
H           53.69078106479711       69.43945569248422       39.16933534307255
H           52.93288932427013       68.21808926526717       41.14133274745734
H           39.92162696362344       46.90312113045588       33.34680575905656
H           38.59956283226695       48.06229625510470       33.22056011115919
H           40.16950632128998       48.57698622435674       33.84742920025575
H           49.37442449211639       68.45488667838026       42.41350142757571
H           52.20189492982610       68.13997802404701       43.46202339452812
H           51.39757664532273       69.70434683211055       43.43987508748022
C           49.90655773437858       69.49769720095972       45.50050186490997
C           51.47154099363417       67.55774961617897       45.74095395999549
C           52.58852874727081       68.20299686564637       46.26146358029639
C           53.45432913053269       67.54131148552796       47.11327478818241
C           53.22432436596560       66.21813277072233       47.45177733717168
C           52.12866106566798       65.56110907241656       46.92150792756596
C           51.25912631267683       66.22730945759851       46.07675964476020
H           52.78294495165451       69.23206746465509       45.99722652267077
H           54.31424109508647       68.05620539591268       47.51599269424156
H           53.90042581980270       65.70751787200014       48.12179442480448
H           51.94447883985740       64.52593123152432       47.15952004882348
H           50.40387419218595       65.69830967604739       45.67845731930620
C           48.68414927190250       70.03810337920602       44.74951308482672
H           49.59866081676904       69.22028363966123       46.51139979057818
H           50.65184478998560       70.29021138137637       45.59233383598809
C           48.01313663974103       71.11570678455340       45.55054608260831
C           48.30476948735151       72.45582713266165       45.32830265269072
C           47.69117373582610       73.44713381575990       46.07406618036107
C           46.78087323786803       73.10901800535541       47.06043402978574
C           46.49493584684936       71.77592020056728       47.30133472335574
C           47.10680995364975       70.78757852620676       46.55150356543403
H           49.01588229704149       72.72524159116786       44.55931589166378
H           47.92238211551668       74.48515945386180       45.88366734736564
H           46.29893119726054       73.88147364547631       47.64177142087180
H           45.79185830536917       71.50854520208968       48.07688222860104
H           46.88517803398396       69.74688078274443       46.74409417820632
H           49.69849383374271       67.58003225480036       44.58957261825843
H           48.99113909855564       70.43151509153655       43.77916279574919
H           47.97881503258343       69.22070899339238       44.57633400267002
C           48.89995126572020       28.56297676930677       49.18544388935814
C           49.91537580988747       28.00279381723951       49.95193808029924
C           49.61921556235381       27.61257694773689       51.25174863753844
C           48.35208321705765       27.78916086141540       51.77924318884051
C           47.35928761938133       28.37862565217787       51.01681468974596
C           47.63879233000273       28.76192568565928       49.71641519877614
C           51.30662704201416       27.79219940859548       49.40509217579412
C           51.33688933976144       26.50739895129959       48.57148276740241
C           51.80137586829576       28.97920726993438       48.56991749414264
C           51.66540052739749       30.31122741957630       49.31769505318482
C           52.55163256490641       30.35529181882245       50.53574510774595
C           51.99288896831737       30.54642737045928       51.79299719889642
C           52.78635178821642       30.58825258068756       52.92595640811695
C           54.15592964838675       30.42510313043385       52.81473539952556
C           54.72622474129058       30.23513456623004       51.56762966197967
C           53.93050267418229       30.20945514547707       50.43710988582568
C           51.94139267290097       31.49731209369592       48.38517219523863
C           51.50220753155760       32.82616278100291       49.01199214800285
C           50.04397061788323       32.80378037138355       49.40215561258225
C           49.67030264429194       33.09068980009234       50.70929460603346
C           48.33825074859935       33.10329849102121       51.08508563904216
C           47.35269288116175       32.82990304080165       50.15280291360242
C           47.71121171532163       32.53109602476754       48.84950440753024
C           49.04393018867633       32.51817270768971       48.47893126390729
C           51.78405178639004       33.99605063776546       48.05066007371879
C           53.21863856166599       34.54019953972629       48.18290707730936
C           53.65547365682259       35.15095332915429       46.87408765753061
C           53.23556533140594       36.41354870684735       46.47543858750293
C           53.62304304187143       36.94225067061614       45.25772502071423
C           54.42659176029269       36.20784589087702       44.40430408154484
C           54.84855161286715       34.94623168046160       44.78542094600775
C           54.47031943891482       34.42776170619523       46.01088722990140
C           53.29843572334362       35.52260793027572       49.35495959650638
C           54.71313212485891       36.06455307161318       49.57705565550049
C           55.66735186965531       34.94063661239256       49.89804297606420
C           55.51204549948319       34.17069842017529       51.04638318521228
C           56.40804673840271       33.16314721759319       51.35245573816378
C           57.47377448162649       32.90062294021525       50.50750248429734
C           57.63424742319383       33.65161081603890       49.35608418006947
C           56.73733532648868       34.66282057726873       49.05640197632066
C           54.70844237394518       37.11149370022171       50.69921885238379
C           56.10876617701091       37.68238166578845       50.94926573415407
C           56.50932526962681       38.74249576609016       49.95791836900606
C           57.60537594380745       38.53882503939899       49.13037627071783
C           58.06174764960637       39.54025843922221       48.29296310051971
C           57.43450917621433       40.77313832362089       48.27939047184423
C           56.32806886683178       40.98366454751077       49.08573141899141
C           55.86344046550460       39.97251533628642       49.90783859019201
C           56.24288865621051       38.21916662925663       52.38761497711376
C           56.92408837981981       37.19119541346330       53.30718742398658
C           56.65080872219426       37.52252553605069       54.75069230136783
C           56.06888446128477       36.58434487733641       55.59369031896016
C           55.78545195274575       36.89008879822086       56.91233533083105
C           56.08391817244559       38.14538860415524       57.41018698775406
C           56.65415706965619       39.09451332026733       56.57915322290837
C           56.93414136240657       38.78415246144088       55.26152500270226
C           58.42553557916733       37.15152198507413       52.98559741904574
C           59.26031447518744       36.08334918234068       53.71429483746554
C           60.62878143220224       36.05085285000318       53.07424334678839
C           61.75372954897819       36.48192426006306       53.76518895475582
C           62.99961857468230       36.49563321915314       53.15932947184829