3795
 energy: -5103.700639712754 gnorm: 0.000875459577 xtb: 6.6.1 (8d0f1dd)
C          129.74736688208762      109.02827233546249      125.11523474374931
C          129.80791574195462      109.43413341600086      123.66019127310533
C          128.37134855228908      109.35928139559536      125.70552770024770
C          127.25407231008370      108.57834849435751      125.01600202681696
H          128.38101539015668      109.12238442423292      126.76996744469717
H          128.18881584327247      110.42957613755443      125.59110724171582
C          125.90448557207624      108.83055617406217      125.69436070635184
H          127.19913925249334      108.88709020444169      123.97031315774012
H          127.48621673353330      107.51283885639859      125.04206546250188
C          124.74150972792945      108.22850521854021      124.93910026525926
H          125.91247960829342      108.37711390651501      126.68906382797736
H          125.73371237585074      109.89985648850399      125.81225806496521
N          123.66730014834846      108.99384381392180      124.83372134666121
O          130.04233226178133      108.42199577963299      122.85518011240497
O          129.64446777876179      110.57306444458328      123.27404931096603
H          129.94514551260133      108.65920022956918      121.88028767318137
H          130.51533805411154      109.58257637302836      125.65697761596935
H          129.95350931704360      107.96145464634307      125.18882671497629
C          122.40119492390264      108.55447488628879      124.27024066850400
H          123.65042361680096      109.89991926692608      125.29966033802353
C          121.44365546080527      109.73717170070111      124.17436949461469
H          122.58868661285582      108.10758606512640      123.28949680727455
H          121.96860542569247      107.78252871735924      124.91598938671160
C          120.02790600730563      109.33087884028353      123.76685035569056
H          121.40994252544400      110.21991712488082      125.15291493750385
H          121.83892933604987      110.46241735422416      123.46132349339818
C          119.05775146323138      110.51260452168840      123.83271835231152
H          120.03356783663752      108.92907552087244      122.75340687209091
H          119.67543107131563      108.54236731637519      124.43351310941394
C          117.61893972562001      110.08089515696815      123.55139102495851
H          119.11285642010940      110.97462511326714      124.82114700355584
H          119.34960176694355      111.27137892388122      123.10534196159212
C          116.62516329649125      111.23672345945323      123.58030850889843
H          117.57572649749629      109.63625909952231      122.55589766948086
H          117.31322795128270      109.31995134897514      124.27420652082299
N          116.55761155273069      111.87095892743484      124.88360333949350
H          116.91847565395179      112.01515033479485      122.87065708313823
H          115.63003066615084      110.87391817703778      123.29116692477909
C          115.93660422371718      113.04054030572998      125.06635603984249
H          116.76248483755511      111.30119553907915      125.69586334973332
O          124.79171764398511      107.08181462207992      124.45719152982809
C          116.02023851163756      113.60724579569406      126.47484019984229
C          116.38516875696234      115.09311818670953      126.42079310421293
H          115.04386703197993      113.48626301843326      126.94787514496841
H          116.75450896292406      113.04564895445529      127.04930815789596
C          116.62320550116513      115.72583143228286      127.79091162228116
H          117.28875987179899      115.20631875204468      125.81617998136218
H          115.58107746063224      115.62908971179954      125.91308830312266
C          117.82563461848787      115.12664702687034      128.51613922266012
H          116.80363264006357      116.79530577254330      127.65780694968605
H          115.73145816069531      115.63374822402629      128.41290392697965
C          118.44723239315266      116.07880679390546      129.53167027827399
H          117.55491819707018      114.20838340176572      129.03912267064709
H          118.60593090022759      114.87144795506585      127.79607139712695
N          119.59584341395727      115.60172152711932      130.03470753194463
C          120.50670487941883      116.35351910490439      130.86706587081633
H          119.92665202687412      114.69649109691208      129.70471640531730
O          115.36349406809403      113.64078095196516      124.15911076811877
C          121.82737053634209      116.61133928105015      130.13817508634565
H          120.01684143466423      117.29762549529536      131.11949470336936
H          120.70233017820308      115.80001811860397      131.79143487709402
C          122.83763915215710      117.31305119606871      131.04337117996468
H          122.23590885542380      115.65727696004348      129.79815941923763
H          121.62545148327455      117.22177863238970      129.25704794970832
C          124.07790598745039      117.81121847883813      130.29630887673977
H          122.35446295498255      118.16495775670228      131.52750012479663
H          123.14348524586455      116.61946673591417      131.82826906471647
C          123.77045419839034      119.01757067246784      129.41121794239936
H          124.83075171845361      118.10250413221064      131.03115495688465
H          124.49542986169301      117.00468167374923      129.69158885030714
C          125.02261726212059      119.71638039755298      128.88583735751021
N          124.66184122261642      120.96682207644051      128.25269004390910
H          125.70916853854810      119.92001412861813      129.71575214708818
H          125.54335256765849      119.10694184085999      128.14353558118466
C          125.00403929599221      121.31825916615257      127.00835183051726
H          123.99269639511091      121.53675389202886      128.75753816635705
O          117.94948222459033      117.14972003771953      129.85744502350548
C          124.39226259812223      122.63335631799607      126.55688750291867
C          122.90810363005538      122.42418562025236      126.24904245833945
H          124.50232140733769      123.37569940739542      127.34814369525674
H          124.91989098164507      122.97618317204636      125.66718227653908
C          122.24031465452492      123.67801104092541      125.69209387863567
H          122.79906133661980      121.61660919181656      125.52156176982825
H          122.39960319481274      122.13613590996849      127.16993396542654
C          120.72560358313359      123.46380427172478      125.58340823324760
H          122.44197958813221      124.53111457728852      126.34250315440283
H          122.65415504023468      123.90251175497909      124.70680562979355
C          120.09040630453123      124.54930902104891      124.74180483945956
H          120.53691566893313      122.49078590416843      125.12733602437615
H          120.28502536756989      123.47493219073617      126.58049965815873
N          120.17261256903845      124.33089556314467      123.42655422599968
C          119.64396369663527      125.23302361868613      122.42590065577018
H          120.55451884121283      123.45674136421042      123.10144727116696
H          123.15858718539650      118.71730435126958      128.55994977146000
H          123.20420500927852      119.74969954094935      129.99154295260257
O          125.73547556691678      120.64564301417209      126.28705550968222
O          119.56954555972663      125.55716616744486      125.21308198156383
C          120.44052216984537      125.15135532370617      121.12780722184166
H          118.59122623192778      124.98555759611133      122.24068137643970
H          119.68371180865536      126.24169767791250      122.84626259782580
C          120.35020573459002      123.77169505322156      120.47273290051523
H          120.03559572663788      125.89453516799909      120.43977516075610
H          121.48020226503439      125.40967087549794      121.32857399984132
C          120.73449292923843      123.79971474011624      118.99320694244089
H          120.98353495775103      123.05619804800894      120.99907897756641
H          119.32317588518963      123.41356990917053      120.54713682386706
C          122.17804931614359      124.21226957476925      118.71326736907299
H          120.56020248340337      122.80837796893397      118.56912292227189
H          120.08416020637097      124.50677349275767      118.47585540875450
C          123.19246382540867      123.30055351910171      119.38734127633168
H          122.34092632870556      124.16664622201462      117.63675179441556
H          122.34698947627781      125.23993668622509      119.03531662317411
N          124.53034923514511      123.57782278432757      118.91121371173983
H          123.16456742974182      123.42750856376847      120.47515439821724
H          122.97458014077537      122.25325337216269      119.15540577598381
C          125.48808506321065      122.64954896992685      118.89085376284471
H          124.70949000020396      124.49970724395141      118.52203008349819
C          126.79085663987746      123.12988517313291      118.28505477644477
C          128.01257817754473      122.38896845740534      118.81772907553002
H          126.71299639550696      122.97685828363672      117.20575439403977
H          126.88468982484466      124.20040920930509      118.47032130702483
C          129.27895016016089      122.81714094454445      118.08181095904287
H          128.12126639785774      122.59140000658979      119.88446418563926
H          127.86347067461917      121.31289557101120      118.71223313336951
C          130.52887197306291      122.13065488588248      118.63870490974253
H          129.18377203119022      122.56528654310476      117.02258543427614
H          129.40362412158001      123.90011125670289      118.15812498817775
C          130.82815766912060      122.60317579481534      120.05116612450973
H          130.38209163090062      121.05116610209190      118.63109376110695
H          131.38694837819372      122.38678280540955      118.01305581668886
N          130.55173830112724      121.71873047497287      121.00564611078910
C          130.73846328135633      121.94263981495918      122.42262010070645
H          130.07784294424314      120.84800325597588      120.76117636031127
O          125.31596128571485      121.50601713356470      119.31495279153489
C          129.41539530931061      121.79851203575006      123.17739996193716
H          131.45783148066732      121.20518441361493      122.79416849230064
H          131.15863118659379      122.94264136624859      122.55241468593910
C          128.54388753580352      123.04659716443857      123.05636346655949
H          128.88806959525189      120.93551563322316      122.76832817571264
H          129.61826114031768      121.59986603399697      124.23029126435712
C          127.09871416990805      122.80814120385304      123.49700606223439
H          128.98370882152633      123.84112032024994      123.66186612834960
H          128.54665594233558      123.38685642457105      122.01952704769595
C          126.27080634671294      122.12560920295326      122.41043016535696
H          127.08604261997750      122.19557764596212      124.40105046148044
H          126.63635286173920      123.76827874863119      123.73824363891885
C          124.85246225199629      121.85137502069111      122.88551342445250
H          126.23513675475722      122.76554805500807      121.52641861732901
H          126.73784116246196      121.18452599924139      122.11937250396542
N          124.07544515825961      121.16751661684233      121.86827183419071
H          124.87012912494225      121.24139844278581      123.79435833861275
H          124.35606653024698      122.79852880017748      123.13705099663591
O          131.30358863037293      123.71985543389441      120.27114110583315
C          122.93302508206474      120.54471912793004      122.15760601805755
H          124.43332718904307      121.20572860762785      120.91357999749755
C          122.17221643125384      119.96096893117357      120.97908069567565
C          122.92987394421353      118.86993028854944      120.21805233138109
H          121.23220295328022      119.55744314736560      121.36089592171217
H          121.94133582788464      120.77953928625614      120.29620530575625
C          122.95915669704026      117.55376640337202      120.98903152807708
H          122.43404109069300      118.70546753375692      119.25899679335210
H          123.94793635159184      119.20331675977468      120.00854592081015
C          123.75964652171982      116.48189480785520      120.25261518319087
H          123.39443106064063      117.70951419274806      121.97734427867462
H          121.93943668798082      117.19065096692525      121.13689829526294
C          123.71834279108859      115.15537299631524      120.99274942091841
H          123.32534729130053      116.32874819648983      119.26015854047421
H          124.79339315651991      116.79947836383353      120.11872460313599
N          124.83770880804673      114.43349411666500      120.93915899070598
O          122.48985547800449      120.48423981391146      123.30681080231675
C          124.95796323950269      113.15505709370699      121.61937349058678
H          125.63063535600224      114.75885865111047      120.39123102948599
C          126.32900775917949      112.54717507433473      121.36525710152857
H          124.79194091359552      113.31304384959135      122.69108346203723
H          124.17109899006324      112.49100296588934      121.25679807379770
C          126.54100158764936      111.18792415124680      122.03807658842499
H          126.47907993297218      112.45910500844181      120.28829419804882
H          127.08171505772516      113.24336263312370      121.74435675294768
C          125.62061008290202      110.05344654498120      121.57188550027169
H          127.58172152327407      110.89539184051556      121.88654575953656
H          126.40216404476097      111.30480548977332      123.11514471822186
C          125.53664437598530      109.84465745692380      120.05933844649634
H          125.97285128963860      109.12856815148577      122.03452945243136
H          124.61232268784639      110.23766930630214      121.94557304129637
C          126.87379205617502      109.59219448348503      119.36956626501305
H          124.88882101197089      108.98832252221631      119.86504887888790
H          125.08679661358470      110.72389340294602      119.59958941217940
N          127.36609913969338      108.24153208267120      119.53476390354969
H          126.76411621104923      109.77871383933896      118.29510928271993
H          127.64443503672551      110.25915295226523      119.75502832334912
C          128.60085450865509      107.98443271287704      119.94863630330282
H          126.75453725740492      107.48134446985731      119.22727542755833
O          122.71104660058407      114.76665968427100      121.58222418244020
C          129.06444489850074      106.54822468157167      119.82518477091928
C          128.22029912693742      105.53812944980915      120.60153216513976
H          129.04994265726162      106.29411125424133      118.76283501575790
H          130.09907095017857      106.50480163666786      120.17024301737065
C          128.19072370803624      105.84927470271656      122.09814385435840
H          127.20468783787179      105.51260733872724      120.20352475899769
H          128.65574351903282      104.54780445643242      120.45093085444370
C          127.76496541115468      104.62841021812052      122.91795204682873
H          129.18500345381071      106.15469524502217      122.42757401671346
H          127.51554599545740      106.68598853346174      122.28429981580433
C          126.48192733579081      104.02155432050643      122.38752149686566
H          128.53851322109762      103.86035274524372      122.86092379991705
H          127.63241206403939      104.91097477800004      123.96211850494940
N          125.42989277585698      104.84123113646777      122.37214348364820
C          124.16263819020442      104.53147309099795      121.75037947566933
H          125.49686543031817      105.74840152086180      122.81122627424645
O          129.35957188285946      108.86819061456544      120.37667707129100
C          123.01606790978525      104.53283018004761      122.75855759263585
H          123.97550291254618      105.27645090912155      120.96914629166641
H          124.26339256351802      103.55340961588577      121.27978966852147
C          121.67187854367680      104.35328805211701      122.05821147134742
H          123.16902452922558      103.73050222887240      123.48402493971572
H          123.03875866107350      105.47556807822799      123.30527711764296
C          120.49871015744746      104.23176049866342      123.02726201066491
H          121.49811031277765      105.19413577679198      121.38585738447853
H          121.70728878090242      103.45165814233633      121.44245647559167
C          120.32206390376741      105.45602347941136      123.92249674709247
H          119.58438187270265      104.09215070012415      122.44878978356958
H          120.62945820577951      103.34524478303275      123.65163656813611
C          118.99696280861806      105.37058023965567      124.66979518173675
H          121.13144900949358      105.50108465001878      124.65168075923486
H          120.35189973826112      106.36377450653869      123.31953310076470
N          118.91532801970286      106.33721197547432      125.74365332830679
H          118.15436283817449      105.55467527751006      123.99888778215232
H          118.88704333368585      104.36076962564462      125.07950660589093
C          117.76111640716840      106.90010112630542      126.12704466838889
H          119.75643543653752      106.48178518173474      126.28279747305440
O          126.44011678158829      102.85957790788072      121.98089609253645
C          117.84084440791179      107.78670396102362      127.35643807597556
C          118.99765529699295      108.78391253764215      127.35821165865738
H          116.89816322616235      108.33183956724594      127.42749280688309
H          117.92130451071287      107.12449490283112      128.22237042830685
C          118.88393385325331      109.76558624290409      128.52463747385823
H          119.95291419453916      108.26196743926259      127.41929621418986
H          118.98188569466501      109.35048647932928      126.42869824479962
C          120.12537990648217      110.65358142139219      128.59631844032668
H          117.99047449645838      110.37740361757413      128.38764028993023
H          118.77283050770070      109.21697859910284      129.46061757342852
C          120.02097633987016      111.79502827365975      129.58920310995768
H          120.99244412211458      110.04999146255615      128.87233408591254
H          120.32760171513098      111.09147851613176      127.61735526898300
N          119.70597675717978      111.44189171720741      130.83491602010858
O          116.70187387606899      106.69525079851282      125.54387442820051
C          119.57960151705481      112.34803959906168      131.95602429056109
H          119.52777715667588      110.47023392090733      131.06647505957730
C          118.29788935783732      112.05298639865292      132.73614555976965
H          120.44851284527705      112.21583701637734      132.61140234798265
H          119.58834887402867      113.36877226055023      131.57062165608994
C          117.04761955296811      112.67329843472706      132.11073562761663
H          118.18782655562727      110.96882478542061      132.78494837647892
H          118.40679278754826      112.42302377012807      133.75688280868232
C          116.93516959005666      114.16897038817812      132.40790163612891
H          117.05688732087339      112.50289864308709      131.03288074750532
H          116.16784080391098      112.17290783400341      132.51717107321636
C          115.55759508398657      114.73584757842310      132.07135219632440
H          117.11912488691779      114.33155102961389      133.47294744654928
H          117.69210016301923      114.72611928265250      131.85290990281615
C          115.47285790940687      116.21057552357054      132.44378413332691
H          115.35113152965504      114.61560674098197      131.00704769672882
H          114.79490729509406      114.18748026371360      132.62854192464368
N          114.09758469891210      116.67539366110908      132.44318263663280
H          115.90063291718926      116.37320652448834      133.44140700181796
H          116.05500136653694      116.81790077697784      131.74099246867169
C          113.77030329416169      117.91779435633694      132.80030358655702
H          113.36140915377663      115.97940193829149      132.39995330537090
O          120.24531427089887      112.95542917648581      129.24328167039980
C          112.28896534242890      118.23250690736349      132.76268818726248
C          111.92085800047367      118.65306394302527      131.33606257161568
H          111.71171197580084      117.36119559847548      133.06806767101665
H          112.09676922328612      119.05842904521269      133.44872557699418
C          110.55655491179775      119.33020615220588      131.25465241447833
H          112.67625199169221      119.35068714460216      130.96959095666588
H          111.93867966225795      117.77255911620942      130.69047489959007
C          110.25871720672271      119.79061980013657      129.82508910815613
H          109.77401422015951      118.64566780439809      131.58924853256494
H          110.54386523455078      120.19824871663354      131.91760819078769
C          108.90779864613447      120.47699165352839      129.76557429307718
H          111.03611576668995      120.47375052700602      129.48449686181340
H          110.24055165726563      118.92140220210707      129.16484012909538
N          108.94846157981424      121.77165155912979      129.45690801982397
C          107.77901742473294      122.62430571544478      129.41390486965236
H          109.84689278634274      122.22841135966242      129.34108717659643
O          114.60936683667148      118.77496149251991      133.07820337700983
C          107.88436202653223      123.64849881674010      128.28774796135991
H          106.90717490762569      121.97798177423397      129.28355470117080
H          107.67858598706125      123.14484766563504      130.37397613824163
C          107.71750878341538      123.02652572558661      126.90137793955350
H          107.12360348088053      124.41111621561315      128.45263767011625
H          108.86296210162620      124.12839590704640      128.35378890853278
C          107.96761388421669      124.03430511150751      125.77689651372846
H          108.42932581631599      122.20545203129682      126.80553191767852
H          106.71230424893879      122.61047289589642      126.81109575521286
C          106.85086707036352      125.07284236882334      125.63154512863494
H          108.90986194471051      124.54524545487531      125.98005136107652
H          108.08002357452143      123.50600454598639      124.82903259608194
C          105.70850631814550      124.60319245522081      124.73810985947368
H          106.44734201291173      125.32188020497917      126.61169482386410
H          107.26093117826302      125.98929689724447      125.20658289725785
N          106.07465424219622      124.69033798271430      123.33611551890463
H          105.43596375883207      123.56806573843149      124.96190795772367
H          104.82051552318445      125.22404976229485      124.91138993505278
C          105.37555015901744      124.09840973523717      122.37191515976376
H          106.85054883899311      125.30509363062814      123.09151583547906
O          107.85694290883501      119.87333740259258      129.98978476399105
C          105.84117165178374      124.38175107257517      120.95462031282912
C          104.64273679317654      124.67075476637780      120.05079480126648
H          106.54124588113318      125.21618174695840      120.95269506662316
H          106.36442938520261      123.49838321827005      120.58064601931230
C          105.05651430131131      125.02953051539086      118.62617343560864
H          103.98390614075539      123.79919535109021      120.04123125814684
H          104.07666425600182      125.50193574445312      120.47884559250481
C          103.83416428910385      125.18669262247722      117.71193914371084
H          105.62799591860662      125.95936544118962      118.63799826168331
H          105.70835948132537      124.25419313240737      118.21930203642685
C          102.83900982626598      126.14518464548435      118.33364347254961
H          104.15243614831273      125.57553744947657      116.74508188861260
H          103.35168592912510      124.22166550589668      117.57449492742977
N          101.72479902014705      125.56042341965154      118.78674059920887
O          104.41371199735657      123.36124013412262      122.60423217487764
C          100.75248458700644      126.23468434729629      119.62024642210781
H          101.63563330135129      124.55424533335163      118.70037786103897
C          100.89253246700868      125.81756420997321      121.08905554232057
H          100.93201941852173      127.30711594105749      119.51598667319679
H           99.74832353118738      126.00158011735410      119.25739941415347
C          100.52236784740789      124.35147523887611      121.30367918430011
H          101.92544152842150      125.98247791956325      121.40307965553527
H          100.25420293728517      126.45712164351647      121.69984501355529
C          100.93152845874714      123.83326400169068      122.67992721695757
H           99.44350675920015      124.23354048130736      121.18128727647964
H          101.02579652390881      123.74602396645371      120.55018963214181
C          100.53846547046398      122.37048423540527      122.88460970802277
H          102.01404989186175      123.92707045514108      122.79155179396281
H          100.45839086610623      124.44316506968555      123.45251727351157
C          101.30431810981287      121.42765779660701      121.95827114449420
H          100.75502530254009      122.08705739113178      123.91681354614522
H           99.46715125501750      122.24326139453413      122.72484993621352
N          100.97246608049953      120.04052467106764      122.26636390203018
H          101.02019809950021      121.59451730560976      120.91605325650715
H          102.37894179153371      121.64156572138600      122.05330072394705
H          101.26107287432824      119.82668413735244      123.21586338626440
H          101.48194422214480      119.41875277423200      121.64624897480464
O          103.04557625214561      127.35583798383739      118.41759281948630
C          125.42848585132597      101.55258623711323      110.66907352549129
C          124.17246928415133      101.07887116269512      109.97120264298067
C          125.79025019556916      103.00444149778882      110.28815120202520
C          125.54017764714996      104.00884152343768      111.41282656437851
H          126.84653115275843      103.04000873809143      110.01935892292811
H          125.22384018732600      103.30978462799557      109.40544170281402
C          124.05406163799543      104.20319609728433      111.69265673819700
H          126.03600040344341      103.67223410541605      112.32599911909891
H          125.98539054692768      104.96399006311042      111.12478680797159
C          123.76781364906365      104.96527464263525      112.97558066011452
H          123.56995846481844      104.70468441292321      110.85470816599629
H          123.58218510640478      103.22347223231117      111.80051545163884
N          122.60678607113223      105.61261376893505      112.94935391231455
O          124.42253346232336      100.12943543271577      109.09244882104468
O          123.06157952067724      101.51441401120617      110.18643957634755
H          123.61585221900805       99.84243149776957      108.56609295456084
H          126.23174160930164      100.87359896419045      110.38739265255771
H          125.27214415470702      101.48609412778205      111.74662947987039
C          121.99894936846803      106.35300028371883      114.03813354477477
H          122.07079168368730      105.59865072703545      112.08774830998360
C          120.85770236119400      107.18286274909326      113.45852265518428
H          121.61846759619219      105.65413621989838      114.79330055690440
H          122.75586663036178      106.97791742859340      114.52040300452100
C          119.91163098043963      107.77781069370999      114.49510035625832
H          121.27198121488341      107.97717918455540      112.84192807929622
H          120.28064857110482      106.52973843952159      112.80181466556634
C          120.52957801615149      108.88273198132659      115.35117022901146
H          119.06384902883650      108.20205691989678      113.95544836522861
H          119.54601115324789      106.97349675758539      115.13295764766887
C          119.46004223566437      109.72307103680828      116.05195468003274
H          121.20720980179864      108.45040053302574      116.08837658170660
H          121.10873638167975      109.54721303877731      114.70992003941467
C          118.69615851893607      108.92047390568897      117.10150873692540
H          119.92599894949969      110.58949950979675      116.52611802126044
H          118.75103051131855      110.09290793462031      115.31011674047716
N          117.55177729896316      109.63378256557390      117.62107412396423
H          118.33283637323102      107.99433318573097      116.64744141118000
H          119.34023795190959      108.66568051471350      117.94000544394490