3795
 energy: -5103.101975402128 gnorm: 0.000923631235 xtb: 6.6.1 (8d0f1dd)
C          129.58926798135792      109.08365767825455      125.15053476358499
C          129.65198345078542      109.52014241764465      123.70072788040351
C          128.20793701309867      109.38574075269820      125.74047808023884
C          127.10205234355213      108.60840120193765      125.02851924062821
H          128.21224104795314      109.12837238882683      126.80133079180719
H          128.01416616037707      110.45614606322231      125.64735512545451
C          125.74868036535415      108.81408006846853      125.71538278921156
H          127.03910246061163      108.95022266600905      123.99375605883525
H          127.35250265027975      107.54628249512560      125.01945618137063
C          124.59800034419254      108.22325149308588      124.93099648996044
H          125.76188854749826      108.32196862688457      126.69191524041321
H          125.55784564289982      109.87475713913270      125.87492360269813
N          123.53560610811058      109.00033492547773      124.80722566155586
O          129.94557808865594      108.53514898594376      122.88613838958521
O          129.43942327220796      110.65669584237673      123.34064346060299
H          129.85183150617914      108.78551734847878      121.91272852683778
H          130.34917840339355      109.63577322896050      125.70697049014984
H          129.81034720121863      108.01818465459515      125.20611126896860
C          122.27939576524109      108.57690605476299      124.21410419153629
H          123.53707888322919      109.92338243663963      125.24756859109273
C          121.31543679365670      109.75598006809030      124.15376552426164
H          122.47461479169175      108.16722917502906      123.21731955228155
H          121.84721399315868      107.77707966369653      124.82447144675017
C          119.90388856958121      109.35222194683216      123.73166752921996
H          121.27383361005087      110.20987078705163      125.14522241419134
H          121.70663929054690      110.50473696390505      123.46274979602013
C          118.93691362257137      110.53588490905496      123.78878152037522
H          119.91991649226426      108.94917929052234      122.71774512989315
H          119.54447692059642      108.56269440643790      124.39353995259684
C          117.50285721884677      110.11119894948818      123.47437873566774
H          118.97652445247107      110.98407121315061      124.78335743561992
H          119.24702973379459      111.30022790832049      123.07586759527352
C          116.51017968002365      111.26840110069618      123.51365060231758
H          117.47727585500893      109.68640722907419      122.46935305238418
H          117.18915828438928      109.33309641272480      124.17542615137843
N          116.45080437442563      111.89643865266868      124.81885103288663
H          116.80744043320347      112.05105077144481      122.81048684420314
H          115.51473618283669      110.90681053846559      123.22352535669562
C          115.84163519290320      113.07433195765114      124.99962723848307
H          116.65628531279347      111.32936442860830      125.63442655342587
O          124.64890332752987      107.07873457828961      124.44624984837574
C          115.96429482863245      113.65220385065504      126.39877770625561
C          116.33017000464253      115.13681813559336      126.31645563009593
H          115.00486261245663      113.53730901110922      126.90511002028352
H          116.71490051687751      113.09471670528569      126.95627155790629
C          116.60834162048610      115.78011255778760      127.67291807150117
H          117.21706001822240      115.23790344453366      125.68567906233341
H          115.51349011557254      115.66761889159982      125.82455859756872
C          117.82126699250148      115.17214983151884      128.37189978067761
H          116.79699776946927      116.84576319410621      127.52766024585480
H          115.73255815837815      115.70135826197804      128.31872845768112
C          118.43688983745224      116.11246921505118      129.40178490747334
H          117.56086839017161      114.24094963083280      128.87763025690478
H          118.59657211841950      114.93824393276132      127.63907512229936
N          119.58944903090898      115.63355943668778      129.90015865388762
C          120.48473705240106      116.39117507653972      130.74260552040627
H          119.93547265979586      114.74088590224720      129.55439789202669
O          115.25771464309868      113.66733119334071      124.09837284814374
C          121.81238447571853      116.65091044930780      130.02905031631829
H          119.98545783098548      117.33372920519103      130.98038234076603
H          120.67265066586508      115.84537013402888      131.67371838833412
C          122.80802968054461      117.36006782641391      130.94319830798608
H          122.22998077380797      115.69738110674957      129.69764348366925
H          121.61956970821883      117.25764882869188      129.14375431838963
C          124.05776517864720      117.84805409947184      130.20670295546989
H          122.31919094432239      118.21774969572678      131.41107627570105
H          123.10006587320700      116.67461359344438      131.74146027830449
C          123.76139359905976      119.04154250763385      129.30176773129844
H          124.80248074315105      118.14807043390957      130.94740876880115
H          124.48373308118728      117.03167038509640      129.62003917034784
C          125.02140625430725      119.72124966927829      128.76979672358300
N          124.67651497426336      120.97795017873848      128.14700208357922
H          125.71940665936502      119.90557161268814      129.59605815937735
H          125.52444686781766      119.10696056966448      128.01912056878015
C          125.00416127534272      121.31509105329498      126.89173609501877
H          124.02113311024476      121.55881438691073      128.65763969466386
O          117.93298746040995      117.16912279364708      129.74235730822966
C          124.40325313881226      122.64080704018491      126.45743421423109
C          122.90987228713274      122.44147006702227      126.19527190764781
H          124.54279960286701      123.38243875319688      127.24497844126668
H          124.90904737245899      122.97979136619688      125.55412331329039
C          122.23554593264231      123.70164026843692      125.66517069155022
H          122.77157160344022      121.63870587433242      125.46758696144018
H          122.42854493918004      122.15755548578898      127.13143905054767
C          120.71475870153003      123.50543358622477      125.63326631085260
H          122.47797854254073      124.55522031857619      126.30035310895218
H          122.60271889845482      123.91926353607124      124.65902408507436
C          120.07257748904148      124.57839627897390      124.78935742369224
H          120.48998276520410      122.52395747751214      125.21261626520398
H          120.32234625890645      123.55429153377953      126.64817001142573
N          120.09905717028012      124.31592142265406      123.47444884787838
C          119.55845765744641      125.20733181156046      122.47566778453101
H          120.44169207488011      123.42113799313803      123.16350422828862
H          123.15070957064523      118.73135097226395      128.45351548712804
H          123.19796322292349      119.78565313257693      129.86919327614208
O          125.69700253301778      120.62674028400041      126.15761170705700
O          119.59793528008890      125.61216400621610      125.24040308975667
C          120.38058117248671      125.17194899926125      121.19159534056070
H          118.51797349657429      124.92664492065471      122.26285555277168
H          119.55853063766170      126.21057185340109      122.91004017450844
C          120.37226082884571      123.78869857306528      120.53993096869961
H          119.95234389905541      125.89283461214217      120.49396891077667
H          121.40235598065971      125.48313749974288      121.41078702873823
C          120.78950513493709      123.82983830712243      119.07078890961688
H          121.03108483121572      123.10782411462642      121.08099023830033
H          119.36233225550238      123.37865243170087      120.59472033975079
C          122.21209517672671      124.32890511045473      118.83006351184599
H          120.68749034949350      122.82566592496326      118.65098610404884
H          120.10886737089149      124.48778079647461      118.52592607092956
C          123.25695872963460      123.53319431107322      119.60210319152719
H          122.42742614699266      124.22704811672359      117.76650562676581
H          122.29049986737687      125.38519888908500      119.08847140750071
N          124.57512258443731      123.72814179158800      119.04561124024796
H          123.26015537557346      123.82086227957700      120.65965520990997
H          123.03759752032869      122.46417626567501      119.53347214031163
C          125.44134573515957      122.71823229508760      118.89882443409118
H          124.77869038466706      124.63164160262845      118.62627593335577
C          126.73066980497735      123.11370320463418      118.21417429542325
C          127.94126597382721      122.35819331537843      118.75538827881608
H          126.60735266565688      122.89504556275334      117.15114067711009
H          126.87137734889129      124.18852129775030      118.32922599183762
C          129.21138322534128      122.74406320894397      118.00232308741268
H          128.06228428916273      122.58688033719072      119.81551280007926
H          127.76800474504554      121.28408399243175      118.67829694785985
C          130.45028816630685      122.06111909333087      118.58576025692388
H          129.11315983578362      122.45826835702925      116.95230088023881
H          129.35097396628046      123.82699438034565      118.04357681341867
C          130.73373065005603      122.55929344457151      119.99423398237718
H          130.30004904586090      120.98200545574213      118.59466935125627
H          131.31780396054785      122.30346925174256      117.96715010602264
N          130.49721575633470      121.66813232873551      120.95565863371377
C          130.69512778168954      121.91235543522752      122.36661796171595
H          130.04702267760265      120.78098172350808      120.72278358278483
O          125.20632248223770      121.57899456992807      119.28940353847510
C          129.38337852256933      121.75713392721508      123.13923665312471
H          131.43235861021998      121.19218365719351      122.73984156076720
H          131.10024176762522      122.92085078911560      122.47856369752866
C          128.50398278752098      123.00087373947541      123.03159855330634
H          128.85614274723676      120.89273475860419      122.73420705702652
H          129.60034244132157      121.55733143897812      124.18937496409758
C          127.06370415870744      122.75256448043417      123.48254487584522
H          128.94468062786044      123.79508680858625      123.63770082533146
H          128.49824187968758      123.34739801793529      121.99691881286427
C          126.23418738257706      122.06728369040329      122.39911441067551
H          127.05963576485654      122.13841988052164      124.38480664566312
H          126.59854379939850      123.71127689397854      123.72691113683945
C          124.81312661274595      121.79949413137486      122.87121524703625
H          126.20260750344109      122.70286428677579      121.51153061750270
H          126.69833136747641      121.12318398342927      122.11551577360255
N          124.04585153186356      121.11839406139647      121.84418095226924
H          124.82506265703768      121.18873259077262      123.77854783188334
H          124.31689430473247      122.74836399890826      123.11762767026261
O          131.15971387296250      123.69279214008012      120.20394291501302
C          122.87050677107618      120.54634112189243      122.10694849783305
H          124.40754042749569      121.17770136469876      120.89195827902948
C          122.12603445740838      119.97671349245284      120.90707206653232
C          122.88979313074510      118.88634203008229      120.15176359571475
H          121.17408050309788      119.57988666387557      121.26717520262824
H          121.91094324060258      120.80137246186705      120.22391015246546
C          122.89530806506112      117.56283055218292      120.91106671891524
H          122.41326534905286      118.73467008078086      119.17993259066137
H          123.91314550558978      119.21513112426855      119.96484236788967
C          123.74352500790206      116.51112997006260      120.19868591013478
H          123.28251303695343      117.71181822574633      121.91936752579471
H          121.87368218870304      117.18690926594215      121.00496940141845
C          123.66185530669540      115.16703254641413      120.90035485002409
H          123.37203185388017      116.38178948011783      119.17739839065754
H          124.78152748083586      116.83512113666592      120.13725031323760
N          124.79831810236065      114.46911691607883      120.92978107547601
O          122.39414183372654      120.50496861486586      123.23887294048366
C          124.87553832870735      113.17121956279095      121.57478749662631
H          125.61140837101571      114.78930400828975      120.40376298320987
C          126.26338750592292      112.57599231050396      121.39277341802779
H          124.63510262153460      113.29324306939155      122.63659396719555
H          124.11966919897498      112.51393221549451      121.13865766448610
C          126.44600531469580      111.20169745386650      122.04114444473034
H          126.47659029163158      112.51611542874056      120.32435921156224
H          126.98796102169020      113.26374486199394      121.83533278417852
C          125.53950593442143      110.08270307094857      121.51458590153266
H          127.49028395212852      110.91065499664771      121.92081080340172
H          126.26356480765071      111.29194537688566      123.11411219218958
C          125.49557058568257      109.92506785806583      119.99439882144557
H          125.87736147812890      109.14040930174241      121.95280558965192
H          124.52029261526920      110.25311054891665      121.86734967564782
C          126.85171280646189      109.69087522158671      119.33742756133999
H          124.85202933428467      109.07645296530870      119.75308118570693
H          125.05626093856675      110.81824601265473      119.54965119708994
N          127.34220712157881      108.34078829782588      119.49674904584779
H          126.76849028988950      109.89575304980629      118.26349558727259
H          127.60751334774474      110.35411567146217      119.75767374459205
C          128.56895831974728      108.09512697782439      119.94869179299599
H          126.73555097060984      107.58254773389116      119.17756389608111
O          122.61911309682083      114.74869545616662      121.39744901917483
C          129.05787601365640      106.66867678832348      119.81732543670486
C          128.21284600580407      105.63601413573748      120.56232822499601
H          129.07146386875797      106.42854533424075      118.75153813449317
H          130.08501156694018      106.63786035074008      120.18587602341856
C          128.16727421749715      105.91835488942094      122.06443690873309
H          127.20058348963960      105.61220957605623      120.15518462061439
H          128.65579402965540      104.65133353836026      120.39758156260324
C          127.73198157193129      104.68225421688895      122.85607534929940
H          129.15768817340788      106.21879670695549      122.41059729454543
H          127.48978523581823      106.75180582078963      122.25911333199372
C          126.44949979869175      104.09100786943962      122.30681837849703
H          128.50303395222491      103.91262773103570      122.78750288870414
H          127.59283909336712      104.94447286825027      123.90517020269621
N          125.40147135947960      104.92151710511213      122.30351945739031
C          124.14084013486669      104.62328624108169      121.66686359825724
H          125.46564032724315      105.81702355112668      122.76482626602925
O          129.29191103053000      108.98422255202318      120.41088072658304
C          122.99400116283925      104.55807455767292      122.67322880588902
H          123.94044651206623      105.39949094573427      120.91963907062973
H          124.25741448957739      103.66878434296980      121.15284937417677
C          121.65662361427664      104.36804810109956      121.96374804092393
H          123.16588912644215      103.73192880216654      123.36678669331171
H          122.99156611992564      105.48060941597048      123.25428829040541
C          120.47888585842134      104.21390200201560      122.92141281146009
H          121.47119618032279      105.21470305210222      121.30188343408867
H          121.70888601021552      103.47705967458623      121.33318575608888
C          120.26687755586045      105.42617988726069      123.82411382198200
H          119.57330412818793      104.05949510114154      122.33292649198084
H          120.62284777206669      103.32541913760795      123.54011888509187
C          118.94751331994557      105.29384717620377      124.57485473351024
H          121.07728743517485      105.49284244006034      124.55026166561862
H          120.26916867092444      106.33932488809950      123.22703614470134
N          118.86405190301653      106.21267453403824      125.68743945839667
H          118.09677616988139      105.49196858765295      123.91810558064637
H          118.85391502944505      104.26545263014093      124.94055923441536
C          117.70435636607471      106.73606686079629      126.11144928142689
H          119.71950595090219      106.39140478798679      126.19404484297142
O          126.39701397171784      102.94314921451287      121.87851626960970
C          117.81422026491725      107.58886384555812      127.36179726271064
C          118.74660744834311      108.78797214241331      127.19071657674657
H          116.81177238650749      107.94487945270579      127.60304513935137
H          118.16897086665959      106.95017325454343      128.17488088143963
C          118.76457306473684      109.68017685754246      128.43179008439424
H          119.76026510076041      108.44590445573762      126.97721013789096
H          118.39584626927164      109.38010845815354      126.34687321173504
C          119.71381270881862      110.85313897322172      128.21696946353654
H          117.75662052160821      110.05828789267737      128.60865241528921
H          119.07229098864299      109.08855080536796      129.29431112476590
C          119.83169266207067      111.87500550851951      129.33486932705074
H          120.72787502143626      110.48843678623638      128.02200934530674
H          119.40587672306241      111.40939077793155      127.32786624415003
N          119.50506730964463      111.47952574611803      130.56658335143788
O          116.64006536167931      106.52761372353856      125.54686007196666
C          119.58251945209851      112.32522485836192      131.73831379042616
H          119.20786652703003      110.53115713125101      130.76301980916926
C          118.34999481167887      112.11055413965971      132.61480972733673
H          120.48524702539854      112.07152745720312      132.30780235039455
H          119.66593227751355      113.36027398904815      131.40338564515145
C          117.08267146282155      112.73838420843751      132.03293804510622
H          118.21021754224942      111.03416459486864      132.72062219338656
H          118.53736688768434      112.52240033592446      133.60831857679111
C          117.00822000003623      114.24695889772049      132.26700771339785
H          117.03407930079604      112.52354432583238      130.96374455398927
H          116.21316833076396      112.27213383476594      132.49989388584609
C          115.64032132408873      114.81616944114583      131.90050497291199
H          117.19493768131521      114.45138431299809      133.32445712128890
H          117.77595133556746      114.75916408983838      131.68589989088733
C          115.56397160036876      116.31615001633052      132.16028504951623
H          115.42586906470481      114.61743885178952      130.84906950875131
H          114.87360771756687      114.31507217752112      132.49621647336943
N          114.18197609344853      116.75938304623233      132.16887474729347
H          116.01074194690707      116.55956011405213      133.13156955365852
H          116.12585932017716      116.86454266606411      131.39503164862657
C          113.81799508162638      117.94887485166372      132.65607588653245
H          113.46494283013445      116.06591002792923      131.99708189862113
O          120.23455580210515      113.00544160554935      129.07728166225900
C          112.32721256645235      118.22375041842876      132.60920622899468
C          111.98328144806078      118.72529624080488      131.20387229811561
H          111.76715190936393      117.31863948388163      132.84212100266649
H          112.09514620798706      118.99621624149992      133.34325866774520
C          110.58889021226776      119.33606625899002      131.10984875242781
H          112.71115220235399      119.48538965268628      130.91792073182398
H          112.07495580939778      117.89573587305919      130.49930674006956
C          110.32067546901384      119.85040436993374      129.69193153208676
H          109.83004993523407      118.59983411119904      131.38353308815263
H          110.51108068860846      120.16908030930054      131.81190785505686
C          108.97580067248863      120.54650943876383      129.63058986961141
H          111.10644595733449      120.54375463467493      129.39458081711413
H          110.31710726387261      119.00806866202733      128.99790406541172
N          109.04249804185488      121.86200672756742      129.42406260195924
C          107.88614880687616      122.72589523563245      129.39063014105835
H          109.94784619590209      122.31449855783193      129.32883391233287
O          114.62446751002450      118.78661133428596      133.04304671955555
C          107.98454294179530      123.73368837570578      128.24771346123305
H          107.00183449560842      122.09129278493876      129.28495084541106
H          107.80955208105624      123.26552390672862      130.34296401571973
C          107.80871741442770      123.08901788126634      126.87317830551942
H          107.22814438381727      124.50407997716795      128.40291546081357
H          108.96608187710578      124.20905405190484      128.29736128406628
C          108.01297426516720      124.08901534725197      125.73274873043124
H          108.53941483495981      122.28481586323817      126.77610634813941
H          106.81257306292123      122.64529037571602      126.80328703751678
C          106.85470319068453      125.08100129945434      125.58298458943281
H          108.93652427453378      124.63817466179651      125.92185119951706
H          108.14008785080532      123.55441420979618      124.78968173393039
C          105.75281766622678      124.57652018190497      124.65886313151825
H          106.42097611219417      125.29283339609128      126.55990654150956
H          107.23009207473466      126.02261455111221      125.18319895097733
N          106.14146049206077      124.70111551148632      123.26657348780344
H          105.52100961388456      123.52735659672481      124.86573029480361
H          104.83360217077821      125.15433840912999      124.82255917195118
C          105.45513789070407      124.12004290929649      122.28559760235005
H          106.92973793633223      125.31471288834668      123.04969671979185
O          107.91318961173457      119.94512114242293      129.77123152722962
C          105.93039799641404      124.42462981246464      120.87725884779030
C          104.73891197019478      124.67915090893980      119.95479398909148
H          106.60798742961775      125.27712057660172      120.88646477608086
H          106.48293697014013      123.55749107993756      120.50647319698164
C          105.16889356322679      125.03053635498031      118.53297727478416
H          104.10075089142073      123.79231221508942      119.94476495984328
H          104.14825412191827      125.50109834409656      120.36573062403653
C          103.95800750570031      125.13298116065015      117.59682224999442
H          105.70777235418082      125.97888748736624      118.53900125555684
H          105.85503384043511      124.27303084874181      118.14970064789748
C          102.92682258103081      126.07144127059762      118.19027755539389
H          104.27913230992415      125.51596926517928      116.62810399307922
H          103.51038911806452      124.15050469060991      117.46523708989469
N          101.80774649201898      125.46236073442901      118.61076581178465
O          104.49548762006360      123.37681208520148      122.49915033929378
C          100.81634009420230      126.13286116401963      119.42247606147448
H          101.73514044708095      124.45576840009133      118.52102725319486
C          100.95735825392671      125.75763968636726      120.90256355885168
H          100.97619948449577      127.20566377521843      119.29266069002955
H           99.81771709508175      125.87211834004250      119.06050092755721
C          100.62628398425764      124.28780854933534      121.15044994122555
H          101.98354892301926      125.95674273303680      121.21667902809750
H          100.29871834345614      126.39452375174670      121.49511322806035
C          101.05196538992135      123.80871740549105      122.53575069317068
H           99.55005590254389      124.13801001754551      121.03168563108778
H          101.14380372674798      123.68039621715428      120.40831788594394
C          100.68537065577931      122.34410791596999      122.77318236044371
H          102.13308466286229      123.92170607267987      122.63818289929669
H          100.57212048897956      124.42731817126668      123.29765930927735
C          101.44516721839884      121.40065313428263      121.84218880924121
H          100.93042883079204      122.08022711801962      123.80432359641294
H           99.61173845869939      122.19783201565799      122.64298967160224
N          101.17435428512705      120.01213472668327      122.20123497328377
H          101.11155983259368      121.52798982890587      120.80941181794398
H          102.51303979726448      121.65401523524851      121.88912945008965
H          101.53826859028563      119.82456518277544      123.13047659685186
H          101.65607419689167      119.39178137915576      121.55779493909280
O          103.10553535833591      127.27890925669686      118.28812239482585
C          125.31360516854852      101.50037745488989      111.04375472073232
C          124.07794768593313      101.10378843406157      110.26254485989858
C          125.87352922866741      102.86053928646128      110.57168416895323
C          125.60772795327499      103.99347684568437      111.56192887936561
H          126.95197972477681      102.76537514438940      110.43840639501074
H          125.44908002641549      103.12394017064595      109.60065335939689
C          124.12731104227093      104.35017262114938      111.66111069978780
H          125.96597427897598      103.70488612930302      112.55282329153984
H          126.17570008945381      104.87251096326690      111.24844617879327
C          123.77866638743257      105.09183416811565      112.93902713695816
H          123.81146507948698      104.94544194938112      110.80368173549904
H          123.53138514298185      103.43473549453482      111.65184070501087
N          122.55020482229632      105.61018222811022      112.92409067280400
O          124.35635992698633      100.25086442598894      109.30563546892951
O          122.96497029251321      101.52732011128572      110.49361738948744
H          123.57505262969690       99.99411045937953      108.73130527089472
H          126.05749975532338      100.71900815758525      110.89439736095873
H          125.06053097071576      101.55549861098460      112.10321516349319
C          121.93373384605353      106.35686705575552      114.00093930731478
H          122.01844175525913      105.57234758086959      112.05984600785285
C          120.80523266588911      107.20097648280135      113.41818199004474
H          121.53488845045014      105.66331372673716      114.75199219138040
H          122.69204369748059      106.97401861510954      114.49290406955465
C          119.86048829047671      107.79844805706637      114.45408338005610
H          121.22920061218814      107.99527703304652      112.80770639546387
H          120.22501495205735      106.56038601518921      112.75261698832327
C          120.48660356457485      108.88884206133254      115.32268262605665
H          119.01790142995287      108.23620330559194      113.91583176521030
H          119.48247197830214      106.99315513572625      115.08480599392857
C          119.42677756430029      109.72166083531654      116.04577793804755
H          121.17047454603508      108.44324200063689      116.04758701357498
H          121.06420807170302      109.56077550956142      114.68646032493244
C          118.67564157675042      108.91043008379226      117.09762276430804
H          119.90196578671940      110.58237705841506      116.52165816220358
H          118.70897903327362      110.09994898557005      115.31672437249964
N          117.53427467890317      109.61393129414382      117.63310108771898
H          118.31619960002084      107.98249754318923      116.64212270069808
H          119.32880401194743      108.65321095962321      117.92870544582492