3795
 energy: -5103.630930627416 gnorm: 0.000910992092 xtb: 6.6.1 (8d0f1dd)
C          103.26962459958419      131.01726788798504      113.56506524004713
C          103.33986477214432      129.74186101414205      112.75599707730380
C          104.59683068958128      131.28987242965394      114.28458626142631
C          104.90564462385106      130.21036612625900      115.31762084007570
H          105.40355852659880      131.33669068672231      113.55128764994419
H          104.53003624381907      132.25987027844093      114.77906564528895
C          106.14126275965209      130.54919351247639      116.15717116734052
H          104.04877068095605      130.09296320121072      115.98422305903055
H          105.07097974715387      129.25969028630516      114.80454523963411
C          106.36223791325693      129.45903215843546      117.18791217418186
H          107.01979090237184      130.65031169924342      115.52155979953838
H          105.96749633648675      131.48970436934744      116.68285713823101
N          107.39260448326435      128.64812951944316      116.93765627117943
O          102.59972180753664      128.77702271228296      113.24474352062758
O          104.02259756906605      129.62687773029748      111.75578683615760
H          102.60225342825690      127.92890708554215      112.68205859465429
H          102.46036115672878      130.92779189096976      114.28860996107927
H          103.05853581714798      131.83817239049526      112.87847085179928
C          107.78439120510200      127.55539919802578      117.80443443649577
H          108.01644661607243      128.88720820424413      116.17120874571904
C          108.09978443051622      126.28277114042838      117.02272050962364
H          108.66275964157619      127.85189509056582      118.39033165703492
H          106.96084260516274      127.37423201474962      118.49378405226724
C          108.51097896690870      125.14354121096250      117.96349353734507
H          107.22375875400681      125.99138451213594      116.44319600488633
H          108.90461089882461      126.49750737899038      116.31921134603806
C          107.32781588409401      124.30440997854187      118.44887929265856
H          109.20741979819979      124.48151745703979      117.44745460386473
H          109.02455144017638      125.56557047178633      118.82835708722935
C          107.76544084660617      123.27713588658025      119.49711464963811
H          106.56038222929608      124.95196449868182      118.86972898394875
H          106.89488949100605      123.78086347289720      117.59427207064842
C          106.83432249837551      122.07329456694040      119.58843279444957
H          108.75371317624963      122.89917772086412      119.23024598618296
H          107.85004531366658      123.75214513423191      120.47461802999909
N          105.55905171305442      122.36420870712361      120.20935152810100
H          106.65535367256524      121.67983631975902      118.57899679675084
H          107.30227219366353      121.28299770795837      120.18267415690427
C          104.80819518840660      121.41534827148566      120.77543919264930
H          105.21525712898681      123.31852438852206      120.20544986262361
O          105.61411137034553      129.32287426450770      118.15745653917605
C          103.50145089699174      121.93369799332639      121.34330757533066
C          102.51671509185286      122.35336027753299      120.24526663860419
H          103.05005471559599      121.17054750607279      121.97749083153460
H          103.73393737741905      122.80609558004666      121.95419652070980
C          101.61326763736996      121.23017604946065      119.74872002565856
H          101.88223969138927      123.14921283232221      120.63471787542672
H          103.07072898458735      122.78207847117429      119.41000380060903
C          102.35152646799925      120.11108526917950      119.01230826654762
H          101.06051942698841      120.80492667212579      120.58981847156038
H          100.87511976149746      121.66123641994029      119.06781415455602
C          101.38356894962503      119.30208014589971      118.16938760038704
H          103.13415693398956      120.51811131698166      118.37438510299796
H          102.83292450809309      119.43988837345591      119.72621082576471
N          101.91486590492033      118.68670948737709      117.11020711790557
C          101.11487054964741      117.87007540269971      116.21928917062969
H          102.91339583488566      118.73525772400882      116.90958745586254
O          105.14648986434298      120.23352511567302      120.83352994446405
C          101.70491196841984      117.83364509244511      114.81689667589356
H          101.03666481050848      116.84919436973394      116.61658233400209
H          100.10416506846632      118.28870954962473      116.21238623332512
C          101.59617766077783      119.17104188664884      114.08741675581356
H          102.74882841095857      117.53174191109548      114.89933826818309
H          101.18418368094667      117.06881112756328      114.23942501386044
C          102.09301560725893      119.07521366932555      112.64497783762316
H          100.54703590462024      119.47661422128510      114.06382804855458
H          102.15314567069058      119.93529915805019      114.62885414017319
C          103.59222623902784      118.80361678489651      112.49764887981129
H          101.54186073633061      118.26742131259998      112.15793127915644
H          101.84871314426201      120.00148075930146      112.12094582001156
C          104.47946266835815      120.03418842152379      112.61693391146464
N          104.54410055131866      120.59135028961865      113.95307196398365
H          105.49326280996254      119.76793045816241      112.29444078012401
H          104.12337983570902      120.82636091039063      111.95207181820936
C          104.75147380890473      121.89582678295727      114.12801119387312
H          104.52937585507043      119.95307958483511      114.74462159622252
O          100.18186929691410      119.23411926653090      118.43246791515323
C          104.85609758059012      122.37345243824988      115.56074391780668
C          103.50884631983307      122.35895705987309      116.28545609701796
H          105.54699427112998      121.72577077851670      116.10066610710950
H          105.25151510249857      123.39038544768968      115.54989210221090
C          102.49604024306264      123.32683187784416      115.68219600190884
H          103.09952816540195      121.34782203623004      116.27225590743315
H          103.68308743105368      122.64182714225484      117.32533273235342
C          101.22085663281615      123.39200751603785      116.53217205829463
H          102.93691783180920      124.32343318621454      115.61943040911908
H          102.23419965890061      123.01571474413704      114.66908835445579
C          100.29904915572310      124.44117937992755      115.94580919696992
H          100.72838261344980      122.41824831544308      116.51871007079455
H          101.46977063995962      123.65558651309404      117.56002293714228
N          100.42065539630656      125.65713692904693      116.47885536189416
C           99.69826121879174      126.79438815012099      115.94361055636794
H          100.85145562877013      125.76522632040593      117.38916321087565
H          103.91499355283554      118.05908250451766      113.22489779493614
H          103.77053545563011      118.39699252093257      111.50079481490542
O          104.85769747865882      122.66916041666401      113.17403852342393
O           99.54779198271348      124.20593457861834      114.99747954211995
C           99.86812505735180      128.04382949164747      116.79664073934475
H          100.05527634288879      126.98151810311613      114.92390144606267
H           98.63422498930784      126.53516462767811      115.87116582538903
C          101.26222585513507      128.68124215427051      116.74670394712736
H           99.14222011460805      128.77439451012097      116.43534636616148
H           99.61229404798765      127.80608022593697      117.83119576568534
C          102.29833869627477      128.02168742195832      117.67022447275728
H          101.62422354616736      128.67600433202841      115.71673573781500
H          101.14821670773472      129.72482263738073      117.04644995204451
C          103.28259459181409      127.10055089402650      116.94381824034313
H          102.87247691207322      128.80198443507518      118.17296261983020
H          101.78688746146013      127.45197932447191      118.44711720813872
C          103.92897560892358      126.10050999579632      117.89789093627734
H          102.76696815774582      126.54915638166580      116.15755727125452
H          104.06213643402654      127.70402114354924      116.47639982778207
N          104.49859340798105      126.77676620371155      119.04536231785605
H          103.18317108816905      125.39792995421408      118.28120693938058
H          104.70658688522970      125.53087034792124      117.37466639187420
C          104.56373607866033      126.20951578233679      120.25073991896183
H          104.75864812896103      127.74841739943390      118.91223452162883
C          104.95303704902794      127.12356370909235      121.39701433610976
C          106.27939912472124      127.85146036149983      121.18626092340104
H          104.15167286383495      127.85543832265616      121.52622132395571
H          105.00481740577476      126.51163879666062      122.30010011601557
C          106.66856493877279      128.64472729030945      122.43094941350412
H          107.06689953509149      127.12927391958046      120.96914333506945
H          106.19203645774964      128.54089644483514      120.34532196368210
C          107.91456768344931      129.50091989376168      122.20728491533926
H          105.84140098543082      129.30171007109891      122.70818512459097
H          106.84615788501881      127.95729612682538      123.26057359570869
C          109.20469077716545      128.69954270254303      122.14089803430842
H          107.81177329115660      130.04670281628040      121.26551821734036
H          108.00283311815654      130.23304360530662      123.01166208732576
N          110.29863022543489      129.44141643956672      122.36153519500564
C          111.65410054392653      128.93268808111677      122.38853590276007
H          110.20123584648698      130.43780057897411      122.48369020165980
O          104.31742995907608      125.01783468963723      120.43725564474317
C          112.48717643962885      129.67759218493271      123.42366836584678
H          111.60298352814988      127.86614802658193      122.61980117957721
H          112.12113105364105      129.05612501994864      121.40458186590409
C          112.11041176318857      129.34290324950950      124.86638376022437
H          113.53350996632975      129.44085789435147      123.23861352123318
H          112.36977603490227      130.75133301065341      123.25744896176997
C          112.86632373689100      130.24349420029398      125.84100485775269
H          111.03532897809211      129.48095729095584      125.00318984811554
H          112.34267471386967      128.29651996398223      125.07085440126238
C          112.45913222839948      130.07641060815499      127.30493603550605
H          113.93833488425005      130.05669119776988      125.74587867656503
H          112.69403248080985      131.28464311835583      125.55836537338331
C          112.82976215507843      128.72349908532752      127.91514349229958
H          112.96277111258658      130.85243764098277      127.88280322493350
H          111.38392033625915      130.23536055834754      127.40739891275913
N          111.80368370493665      127.71709487981731      127.73049533980273
H          113.74589873216823      128.33235317437746      127.46851240300725
H          112.99916653774724      128.84573465188976      128.99129227111499
O          109.25694012790605      127.49721011903911      121.91298614799946
C          112.05721601684658      126.44935517838340      127.38129962767697
H          110.86813816500133      127.97094943010163      128.00868197256790
C          110.85277696567375      125.52916578885653      127.40679458708971
C          110.05200372791877      125.59119152459448      126.10056939784018
H          111.20755851408458      124.50648666126429      127.54953351341535
H          110.20572253275634      125.78973070882036      128.24530214377177
C          110.89979373708701      125.16944348842617      124.90390378025252
H          109.20154527766522      124.91313211257700      126.19798694616317
H          109.66367181819705      126.59906492013590      125.94290273632328
C          110.05435746179833      124.81978072031072      123.67880467706098
H          111.60071754347946      125.96725382660161      124.64620609530688
H          111.48762431358458      124.29169782783342      125.17625121552211
C          110.96398076841672      124.32143692118267      122.56722127651284
H          109.36300473162636      124.01593221117172      123.94069357068108
H          109.48236700780079      125.68292865947802      123.34264258319483
N          110.89735451826911      125.03233400983447      121.43372357451643
O          113.17781977392839      126.06762636280732      127.06096329903392
C          111.78228451044318      124.80365434237365      120.31162705167867
H          110.34747472586518      125.88387850920999      121.43049432016457
C          112.98400489843071      125.74999787996254      120.36067935680400
H          112.11724503743037      123.76613812758492      120.37320214997831
H          111.21995912942982      124.95286927643946      119.38808377378439
C          113.84761105869573      125.67888797811284      119.10587724977566
H          112.62386035056244      126.77277343275756      120.48542270853096
H          113.58647552018239      125.50345040243683      121.23637164846465
C          115.04527351271753      126.62273948553737      119.21382134210050
H          114.19821287719185      124.65602517594395      118.96051870830898
H          113.24689771398529      125.95293295745084      118.23754288203982
C          115.79478195098987      126.74020337827268      117.89126387406176
H          114.71051149920882      127.61214961291535      119.52988731178286
H          115.72483019869068      126.26007312035813      119.98710561415673
C          117.02989964404384      127.61709486231808      118.00309932826737
H          116.10809437866700      125.75110758028710      117.55374878443449
H          115.13215486601828      127.16275055774702      117.13640253060399
N          117.76112292574035      127.61306122814993      116.74957413005355
H          116.75589620405152      128.64933097185622      118.24251792911960
H          117.68957595621684      127.26528944903403      118.80331205224248
C          118.69368795789526      128.51419939974062      116.47141798185424
H          117.62142214509954      126.83019187834719      116.11512839015360
O          111.68966880683936      123.34296770544978      122.70746744416971
C          119.37074265719578      128.34030921520957      115.12727972931266
C          120.59407588721048      129.23952510470343      114.97504832150952
H          119.62862813675990      127.28755166436812      115.00293770541572
H          118.63699262890916      128.57990893960539      114.35362204380313
C          121.28242596629072      129.04247319153308      113.62661618316814
H          120.28066439475495      130.27998795405242      115.08137261295447
H          121.29977064228852      129.03150288197321      115.78240909779146
C          122.40788096620507      130.05986446706549      113.42999220258541
H          121.69685345390866      128.03473880546875      113.56874832395566
H          120.55213152386159      129.15997469514838      112.82480860450545
C          123.04490954288033      129.94297421178200      112.05584989565368
H          122.00930002902356      131.07026190275573      113.53460023265569
H          123.17308037004037      129.91030134797685      114.19280306286100
N          123.88035264327313      128.90833294172029      111.91956005835399
C          124.69841681681777      128.69045604838800      110.74147671226271
H          123.95508804732479      128.22435301117457      112.66204226676631
O          118.96087009999705      129.44806526326073      117.24062351248581
C          125.16103605925642      127.24080881998036      110.65880298032766
H          124.12164484534929      128.98104204901222      109.85906292920043
H          125.57233129424186      129.35275601380874      110.79253567096882
C          126.25291796642098      127.05979171391205      109.60613663570561
H          125.54185125411297      126.95357825345762      111.63897488544789
H          124.31621488602657      126.59262108428233      110.42472185235886
C          126.72899039205770      125.61176657302492      109.48191757820365
H          125.87480803506718      127.38597389502696      108.63618824667027
H          127.10345955247639      127.69555015174058      109.86012546079762
C          127.30223099398256      125.07383994306370      110.79410928902348
H          125.89917990666896      124.98394377275166      109.15033968852252
H          127.49800876717396      125.56930643748414      108.70840596562081
C          128.18005450971489      123.84394985153175      110.58193475910346
H          127.90456047063567      125.85534894059666      111.26248739652698
H          126.48576321876983      124.81198610976709      111.46863008960318
N          128.59705366618735      123.30556352021185      111.86192622660658
H          127.63624774446467      123.05573784139055      110.05609713286262
H          129.05721573424259      124.10903987663019      109.98117607520720
C          128.74125560896695      121.99939197021479      112.11597464409415
H          128.81141648400484      123.97869833136129      112.58166832161864
O          122.81469366007582      130.74349995762992      111.15190181334617
C          129.07340177600318      121.65550284123675      113.55326276451605
C          127.79915402915223      121.23547376844878      114.29935739306244
H          129.77559476666499      120.82135383582424      113.55426171548262
H          129.53705067120416      122.50266373520323      114.05777492455114
C          128.10168125199129      120.85082841010873      115.74884960292256
H          127.07933517220633      122.05570300425524      114.28594418083183
H          127.34619417617488      120.38877698285162      113.78058801497716
C          126.96045557638394      120.06134216616381      116.39564375127090
H          129.00283239357279      120.23618374334376      115.78241487509200
H          128.29357818014554      121.75096524846143      116.33211184016065
C          125.65622775515841      120.82902828942707      116.39629426460317
H          126.81171614040743      119.10773247341506      115.88868269205670
H          127.22765441849810      119.83998132150835      117.42979515078001
N          124.57029623930283      120.08614384913622      116.14977251079048
O          128.57905109657256      121.14356878904633      111.25032275298352
C          123.27996076932220      120.67122821448616      115.85472920757944
H          124.67408523596427      119.08167544834365      116.07498731924314
C          122.13885605076283      120.16143049406044      116.73185638891125
H          123.39143979392885      121.74766449435482      115.99522725899818
H          123.05132222693575      120.47957074309538      114.80083449374244
C          120.84259656578284      120.94314886347591      116.48977870003563
H          121.97114951580514      119.10333491604112      116.52315884920192
H          122.41978574672780      120.25526485134068      117.78181669977926
C          120.41661068037484      120.95549777346810      115.01993417639929
H          120.05443256554960      120.48721086802880      117.09055993777270
H          120.96754473658068      121.96766438431511      116.84242208033017
C          118.95772389081459      121.34890897842452      114.79504613606842
H          121.05090397858697      121.64207182614166      114.45694903083485
H          120.54785713740793      119.95928959618358      114.59757319002303
C          118.63066195183718      122.77175061645728      115.23205444343176
H          118.73821765599624      121.25035525556248      113.72948486537406
H          118.30586884895564      120.65460190313222      115.32527846213985
N          117.31605196541091      123.14595537705671      114.74957627174408
H          118.66368691539236      122.85289461450284      116.32400113528591
H          119.35262617281425      123.48390464012620      114.81948091243034
C          116.93630872057088      124.41169214982683      114.56084986125028
H          116.66968095796646      122.39137539785696      114.53820597267472
O          125.58905747431614      122.04186355912867      116.60377918462129
C          115.57450644429215      124.57627126722566      113.91455701123904
C          114.70631444774311      125.56094654264055      114.69814428832913
H          115.74810763988054      124.95484233450166      112.90497428432688
H          115.08128115305642      123.60839020960532      113.83508180431612
C          113.28493805035546      125.69005575699541      114.15490008780142
H          114.64657028099280      125.22095808694861      115.73326429719960
H          115.19136725484370      126.53854212447949      114.69411922982511
C          113.23000585300292      126.24686222408033      112.73204867560403
H          112.80600382976516      124.71091152449559      114.15564906740691
H          112.72586757148173      126.35439916314932      114.81430716819648
C          113.88952506699432      127.60799613773318      112.62647088781242
H          113.68738579916882      125.54426087102577      112.03675611150722
H          112.18357037464092      126.36730856563484      112.44323029549217
N          114.67223651486975      127.76632532608933      111.55562025451077
C          115.39633435226473      128.98116261347741      111.24864904438932
H          114.67766174156098      127.05498456789947      110.84196154038091
O          117.64530809310207      125.36753289230366      114.87820436245073
C          116.69665679548726      128.67642273430786      110.51530833161084
H          114.77766201382491      129.62983740330739      110.62118230753933
H          115.58234371537891      129.49460661998563      112.19537323296063
C          117.63312885167007      127.76029882159187      111.30120452383008
H          116.45628283485873      128.21383898363581      109.55569127990435
H          117.19642103650185      129.62028467016398      110.29238302720250
C          118.94371144861844      127.53439355199937      110.55279708740828
H          117.84053314307869      128.20052261648431      112.27896618493227
H          117.15338236130169      126.79441432635556      111.47551731845456
C          119.85589301483022      126.53282837954737      111.25757618926025
H          118.71534305408522      127.15440533243586      109.55591004476697
H          119.46217953256233      128.48919791223517      110.43526668936921
C          121.24330283672850      126.52387595048863      110.61376798048003
H          119.94209873557038      126.78566766306383      112.31520379989618
H          119.41692557703671      125.53605139466720      111.18086649344725
N          122.12830844593456      125.56218473616731      111.23498807476581
H          121.15123739233569      126.24549592022512      109.56308644880046
H          121.68890252727816      127.52024469308205      110.68340463831890
C          122.55654628112210      124.44876040828294      110.62160517747860
H          122.45971937152972      125.79070599014527      112.16613067853559
O          113.72634940285596      128.49428524661283      113.46368690390635
C          123.34314375165492      123.50427663459350      111.52415403267305
C          124.09297513125871      122.44164888949010      110.72538075665348
H          124.02520844605181      124.08243335961463      112.14749138915924
H          122.61509656860989      123.01703160839874      112.17842182591637
C          124.61179573320938      121.28991803866205      111.58385335851564
H          123.41147479009985      122.04313948359473      109.97039757211593
H          124.92837648927949      122.90838519891953      110.20104281159125
C          125.40212720371170      120.29429406701766      110.72917355026622
H          125.25945683186988      121.67362169106950      112.37465621031465
H          123.77107909903079      120.77561639915835      112.05581991146974
C          125.71442225762689      119.00706197556623      111.47528451201680
H          124.81719815869246      120.01819093761621      109.84808847231243
H          126.32965653307355      120.75163657710178      110.38846840471955
N          127.00925821545867      118.81794252554138      111.72658423332555
O          122.31762558310452      124.19704882293360      109.44543839240164
C          127.57557592048165      117.63068853602478      112.33576627684445
H          127.67402999634798      119.53139398579732      111.43203664677122
C          128.88914592049716      117.97175607500000      113.03352488035387
H          126.84603865078385      117.21107899579673      113.03321603954718
H          127.75894236254626      116.87836825788689      111.55956133769665
C          129.74252567818613      116.73349523799061      113.29172546226258
H          129.44719078214453      118.65638312163732      112.38971935138780
H          128.67778314816559      118.47663947156200      113.97392408824740
C          131.12060340602528      117.08042599483494      113.86198445616907
H          129.21285149144308      116.05454351876186      113.96040349323965
H          129.88207363583172      116.21052455632598      112.34341164371426
C          131.11383576041558      117.50678118898216      115.33080317841106
H          131.77948518057264      116.21471812251798      113.76092701654197
H          131.54965214814052      117.88523105440059      113.26039108239826
C          130.97406767399784      116.32509654388686      116.29987856575559
H          132.05377868541930      118.02098373428865      115.55223125576453
H          130.29980311272647      118.21109900494677      115.51244163340326
N          131.01876992141430      116.69565578718546      117.70666035542203
H          130.02631194150348      115.81087048594821      116.12681504552387
H          131.78278467440103      115.60959072946389      116.12236032332713
H          130.25501445196696      117.32985606863731      117.91806176474532
H          131.88324081198613      117.18954004083962      117.90414747900824
O          124.83513054984596      118.21619180159098      111.81828897565842
C          100.24703167707547      111.41264360144288      117.75671203348878
C          101.36818475220859      111.51762179664981      118.76255412941647
C          100.12314838319291      112.60273660468894      116.81436724329745
C          101.26134929714921      112.66470548176892      115.80155288209644
H           99.17729059709177      112.52447162897471      116.27412511854645
H          100.10041461574055      113.52985739082528      117.38914698735084
C          101.05298527783683      113.82098924903465      114.83133303720318
H          102.21363254236587      112.80086165568524      116.31698050148903
H          101.31330944248673      111.72778444010169      115.24185844825210
C          102.24943056973761      114.05471628871349      113.92534923229533
H          100.16515928111944      113.66021188986241      114.21948213902745
H          100.88783608198615      114.73664094559108      115.40493260860291
N          101.93491703389552      114.70949533111079      112.79913348568330
O          101.65584015597653      110.32747809496141      119.26075073953989
O          101.93358385130499      112.53427642478533      119.09797404835081
H          102.42216499848942      110.33379614481819      119.90706655802335
H           99.32966677183117      111.29471186339600      118.33957860796673
H          100.40530336900682      110.49068379829470      117.19722869337041
C          102.90613000558578      115.09401045770296      111.80058654531366
H          100.97279072819680      114.98896502097141      112.63742469961026
C          102.32848585107659      114.94143100991019      110.39727124527992
H          103.20079230526765      116.13734006173581      111.95835318571547
H          103.78107805354126      114.45692883162421      111.94768987529734
C          103.23062672866959      115.52654793377761      109.31297117403507
H          102.14377957108093      113.88635872756589      110.19050469513347
H          101.36352689719254      115.45138423869618      110.36772407279240
C          104.54571561035314      114.76474241095198      109.17164653694975
H          102.69378695603064      115.49301762794470      108.36366083567211
H          103.44193737350479      116.57501945817549      109.53210207610849
C          105.32348079889054      115.17792087357779      107.92588151945577
H          105.16597120371473      114.93978215771284      110.05048321586867
H          104.33560743645864      113.69456608405443      109.11274592886542
C          106.69427313309968      114.51166315585607      107.89572350033289
H          104.77150243010173      114.87936871130285      107.03345841059000
H          105.43447767954083      116.26245376049120      107.88969354517252
N          107.28033131767189      114.59204381644751      106.57741940116748
H          107.36733881221153      114.98016397632790      108.62494193566265
H          106.60628032833468      113.45133118012009      108.15205693893249