3536
 energy: -3716.271809966221 gnorm: 0.000777576497 xtb: 6.6.1 (8d0f1dd)
C           59.16583605431449       64.71541364533866       36.49349767047047
C           58.88721587785037       65.28835242299901       37.88290661260850
C           57.64706496683374       66.17818558728719       37.82319062383679
C           60.12001173288356       66.05141049778980       38.38292839394519
C           60.05885581171000       66.54811147523705       39.83453851269749
C           61.15477353288637       67.59175684929873       40.05359252471298
C           60.21502959238399       65.39782306435202       40.83750493703527
C           59.79733523032773       65.76948510248100       42.27458430136144
C           60.92715882578386       65.48219877460296       43.26495933278812
C           58.53274496629493       65.02245058886150       42.71915915794564
C           57.27040103174884       65.34106763860375       41.91052336498569
C           56.77842633268000       66.75728592810486       42.20897669383027
C           56.14790516813998       64.34301660187691       42.23189974447681
C           56.32385799475369       62.93823798609892       41.64315388719594
C           56.09634254900659       62.95637910731902       40.13128958143486
C           55.34106362974929       61.93922049802396       42.27406471859626
C           55.52829373457427       61.65802012287932       43.76912598443984
C           56.89076947358652       61.02331924049628       44.04542875281206
C           54.43626655581134       60.71985216698393       44.30317321648675
C           52.98297059557854       61.19401477045130       44.17178248406968
C           52.81397842604643       62.65506271758728       44.59061615647308
C           52.04158944227522       60.34368029611742       45.04156534812074
C           52.12891812354372       58.82205611156974       44.89380906666248
C           51.81238918909397       58.38021613989397       43.46777295687006
C           51.16032907575220       58.12328238183255       45.85991178469592
C           51.49071520310138       58.24334773856388       47.35273839456647
C           52.83235953121822       57.59369894591052       47.68047594255408
C           50.37976421379144       57.59002376136444       48.19074027062972
C           49.19118477188009       58.50723774123562       48.50042428900851
C           49.57316597676969       59.52192005656647       49.57495221484902
C           47.99295685895196       57.68111475869582       48.98773049708678
C           47.20735401869691       56.99157102765576       47.86290947632146
C           46.06033822922046       57.88985118086686       47.40553400937983
C           46.64643324233872       55.63295031757591       48.30383226244994
C           47.70016373611283       54.52580685599656       48.41784550133892
C           48.14695272272002       54.06332486868641       47.03027655418707
C           47.18487264669281       53.30610531757630       49.19618139978321
C           46.70709014274257       53.56251386808953       50.62900261493078
C           47.74712724239830       54.33042488176146       51.43994326693842
C           46.41567841286412       52.24791840956396       51.36474995668977
C           45.40616067130973       51.29011630036629       50.72198488722914
C           44.09614632954281       51.99495603589106       50.37849448696317
C           45.14313692392348       50.13810874701575       51.70347193839405
C           44.60131744793092       48.85245355291697       51.06532586407261
C           43.75894508377175       48.08845189008822       52.08211691729316
C           45.70565014052728       47.98185361681026       50.44016708416730
C           46.77704666082656       47.40044178383981       51.38140749174503
C           48.10657484683610       47.30746020187902       50.63210440046286
C           46.39257676601879       46.01612529863930       51.92192870218233
C           47.17203533294358       45.55872100354478       53.16678554690881
C           46.89673916565922       44.07389031832238       53.39764882869999
C           46.78541010387519       46.39946161857117       54.39127707978411
C           47.34628023043693       45.95005758990779       55.74970006845406
C           46.79704123553894       46.88118724509617       56.82905346405273
C           48.87828612195568       45.93906973676248       55.76132171545748
C           49.53949941553411       45.37548196257101       57.03012187788655
C           51.03907222925290       45.66553602501126       56.96754909112282
C           49.27252010686175       43.87180571601884       57.15908543258038
C           49.74646712728407       43.19534157410546       58.45321144793400
C           49.49394133631402       41.69136414821780       58.32880722842739
C           49.03705510322272       43.73178075719464       59.70830841096574
C           49.81691835581652       44.76278309614898       60.53430108150619
C           51.05817162085359       44.14462829743394       61.17292774099130
C           48.90442338794156       45.33206345061345       61.62949146221017
C           49.40424902693654       46.64924319090724       62.25152266147343
C           49.58543682291428       46.49927961740237       63.76248223423850
C           48.43413406733572       47.80654136988846       61.97986937978425
C           48.24606281082343       48.18676232108269       60.50808671294354
C           49.53866812013747       48.72657659133517       59.89647031287517
C           47.14776895891024       49.24898139205062       60.33587169356259
C           45.74147265706377       48.90877975376098       60.85943193462807
C           45.20696584135219       47.63542101896236       60.21202915904235
C           44.83606279083771       50.12541455469266       60.59887400692145
C           43.49591037003748       50.23327360811660       61.35779395611003
C           43.66256020518232       49.91790527570248       62.84168264065851
C           42.37125161549037       49.40645820148984       60.72295628627733
C           40.95534110002213       49.74357925526399       61.21457146907952
C           39.95976453098496       48.77955314538567       60.56843225971108
C           40.54971198468461       51.20173335430782       60.92959698476228
C           40.37887719383505       52.05249200923866       62.19296156968177
C           39.12323647995080       51.62046027678625       62.95191598352599
C           40.26827985904146       53.54688067420400       61.86368754696615
C           41.52846242161397       54.21270994314471       61.29792077166494
C           42.64041150226963       54.26755934753497       62.34405829431802
C           41.21505891357189       55.63993371746783       60.82538147400086
C           40.35021508097035       55.74445160126596       59.56334281197547
C           41.14289046029480       55.33575160989643       58.32394443513358
C           39.81432110510197       57.17166622357518       59.38970399771396
C           38.65703365449405       57.51296713023394       60.32544490793629
C           38.12970389189070       58.91974591369497       60.07078541421482
H           59.36622220174446       65.51815231180765       35.78659741693865
H           60.02797851716663       64.05298782308471       36.51077228702955
H           58.30920180302214       64.14899552277549       36.13437714504422
H           37.76750709529711       59.01480516559172       59.04923191609292
H           37.31124954767250       59.15420820584385       60.74828899557244
H           38.92108711572276       59.65055445183218       60.21879133602805
H           40.62730670238317       57.88445978310926       59.54508278421615
H           39.46572015194305       57.29274400805475       58.36187597502639
H           40.72066604343734       56.16466280108889       61.64571422911552
H           42.15704206442980       56.15840192361404       60.62959349634583
H           41.89184164253048       53.63586986309924       60.44338023333233
H           42.30904426730798       54.82426121866406       63.21765843498768
H           42.93271505275260       53.27165071723032       62.66438933294061
H           43.52078185339407       54.76142270987201       61.93810244824449
H           39.44745014476545       53.66861486153087       61.15362606741759
H           39.98527876021873       54.08154824202131       62.77544587971529
H           41.29629693572060       51.65977348209190       60.28203623177308
H           39.60508440827557       51.21789560475391       60.38082738652329
H           39.48860442680712       55.07399768918503       59.65299903333859
H           41.50564264969125       54.31594809352598       58.41799235923064
H           40.51847700010028       55.38819569344503       57.43493369585381
H           41.99352580787544       55.99885083903201       58.18322978045785
H           41.24170802828915       51.89660784015268       62.84544521837456
H           39.02262881312627       52.17258752930196       63.88424067736499
H           38.23480653351061       51.80647882696750       62.35034196998779
H           39.15288471820775       50.56045326958348       63.19173685669451
H           40.92606605637527       49.56932408200190       62.29436758892714
H           40.22217139619583       47.74754368855967       60.78903280465255
H           38.95331788761560       48.95993625650296       60.94087605811355
H           39.95258733487891       48.90523970303057       59.48735003063216
H           42.40433788494383       49.54438874571002       59.63882528164739
H           42.53859977385317       48.34715406841266       60.92193450220285
H           43.20392587525668       51.28648972181957       61.27663327239891
H           43.80609817436790       48.85210684800877       62.99883306097964
H           44.52202317564981       50.44889235405235       63.24561870973046
H           42.78272526278761       50.22616496714516       63.40251983490094
H           45.41341390225025       51.01500993257525       60.86611359113437
H           44.63434733075739       50.18717959793827       59.52607098000644
H           45.80413469921861       48.75412010571446       61.93863440007652
H           45.07994371828255       47.77748473299071       59.14126700760802
H           45.88906816521988       46.80445062408707       60.37354325559048
H           44.25009264577327       47.35267952745110       60.63952992033339
H           47.48393629895817       50.16166358590397       60.83686713428411
H           47.06448947182318       49.47549635418446       59.26925096228077
H           47.96348557456688       47.29445385682407       59.94312932417299
H           49.36673137658066       49.01828594506757       58.86246471065564
H           49.89311033671207       49.59810082334533       60.44357142992367
H           50.32427476654884       47.97635846033388       59.90613060515756
H           47.46626464847078       47.52170168464374       62.39689975564841
H           48.78001907213572       48.68847829287431       62.52531374807916
H           50.38000427564470       46.89949766226624       61.82625300857627
H           48.63442644958823       46.26964156127883       64.23985821492003
H           50.28290089929484       45.69527437628623       63.98598992730815
H           49.96854842116668       47.41935697176488       64.20022856555295
H           47.90767751024988       45.48902282710369       61.21331403905015
H           48.80105522812241       44.57407134005696       62.40985531788568
H           50.12935305643281       45.57954287761096       59.87749831695288
H           51.57481928080582       44.87537653961477       61.78946320526514
H           50.77799437870595       43.30381390705193       61.80502931674520
H           51.75874106086406       43.78412141696476       60.42444121276779
H           48.08257460385219       44.16827652303792       59.40590225029499
H           48.80398370076396       42.89446801433732       60.37129973818825
H           50.82470376259140       43.34408541368047       58.55319321287520
H           48.42562573706311       41.48903713257408       58.27491548911671
H           49.95616077452279       41.29711474166581       57.42717441196298
H           49.90491620443314       41.15786666067699       59.18367773370892
H           48.19967321251371       43.68998912437900       57.07186343144450
H           49.75718409633403       43.36992117754448       56.31582708130718
H           49.12796241463433       45.88974587212748       57.90134983202193
H           51.21398059254480       46.73403471442325       56.85877175786634
H           51.54485179750292       45.33390192930110       57.87013489612688
H           51.48904526542364       45.15644437453603       56.11736466149954
H           49.23813094896232       45.35353316475789       54.91378121837135
H           49.22403675300379       46.96642346584594       55.61746140079889
H           46.97441139330726       44.94374389025770       55.95655955669144
H           47.18318365468001       47.88998364371017       56.69663596290452
H           45.71142380976443       46.91972513192405       56.77760436968025
H           47.07481798055949       46.53639719342354       57.82041296110385
H           47.10123522763308       47.43172206546931       54.22462832032034
H           45.69427980861305       46.39918096399346       54.47027984329237
H           48.24199177482893       45.68137445764579       52.97367354680773
H           47.51058688163899       43.67516999762671       54.20033940826760
H           45.84974174508989       43.91901132267303       53.65248422174140
H           47.11473641208860       43.50553040782570       52.49551870278983
H           45.33044995251135       45.98884899953255       52.16193536072637
H           46.55776931684618       45.28641915305484       51.12305015815573
H           46.91343560298002       48.08076028852648       52.22484021489184
H           48.87068632477789       46.84528105733968       51.25216741336278
H           47.99581135369009       46.70933562820202       49.72866205708939
H           48.45526697711388       48.29751743471789       50.34803890555594
H           45.22551895390266       47.15646775962968       49.90657359417688
H           46.20738149783650       48.59703783911656       49.68869806112740
H           43.93684401947818       49.13435378516100       50.23861670223513
H           44.34585695108824       47.85297359498838       52.96484516797356
H           42.90777642436861       48.69179114107596       52.39125942082174
H           43.37880886488738       47.16534872320197       51.64856047461610
H           46.06626033540220       49.90817609897215       52.23729400492340
H           44.42341395842243       50.48874527430382       52.44761697098271
H           45.83988432258150       50.88077714424173       49.80469255078529
H           43.35595912387098       51.27587836747487       50.03391452311147
H           43.69429507246868       52.49639134221531       51.25728084843059
H           44.23478964151492       52.73396544135359       49.59382208899004
H           47.35991758596955       51.71044115888726       51.49286302430256
H           46.04782076483887       52.49946121960951       52.36339174473365
H           45.78608478409159       54.15207983487678       50.60346518637017
H           48.71513287596011       53.83985248070976       51.37487816504871
H           47.85156585854410       55.35192071919442       51.08849422892072
H           47.45274411288995       54.36611955478870       52.48607332737332
H           46.36408950159326       52.86307220145178       48.62944525872076
H           47.99082178167296       52.56895950844199       49.23496556344417
H           48.57861364768353       54.92210699524443       48.93498764935725
H           48.93808906230615       53.32188846022166       47.11641397051956
H           47.31875840425948       53.61261478093378       46.48643292748035
H           48.52886510769255       54.89084463980657       46.43691483267796
H           46.14633978650814       55.77414852729174       49.26277998088084
H           45.88520868905211       55.31254135068723       47.58713926773963
H           47.87563732168444       56.83775272056787       47.00982190215728
H           46.42616313640683       58.88048696541755       47.14363354854507
H           45.56280860424767       57.46713976168491       46.53522836492273
H           45.32807002418528       57.99514362243757       48.20391352294276
H           48.36847907965119       56.94078783775780       49.69613713191465
H           47.30829756310218       58.33259055174037       49.53607683342867
H           48.90523804961929       59.04926407685966       47.59164893849693
H           49.75616684734026       59.01347664948383       50.51950668001783
H           50.47367995320755       60.06474579554661       49.30178627688965
H           48.77334626562146       60.24248557082997       49.72160125119366
H           50.02854927659888       56.69843719217813       47.66690374490047
H           50.79602921886638       57.25858397379024       49.14502884337271
H           51.55191625428850       59.30204128105390       47.62020951848729
H           53.65049181303242       58.10223889132714       47.17792334838845
H           53.01973181834528       57.63649987867845       48.75108372748438
H           52.83298463013441       56.54908415443306       47.37930571140938
H           50.15573775308314       58.51853815679860       45.68686105113832
H           51.13835053597938       57.05930492144130       45.60488259379004
H           53.14385515019515       58.49444767793953       45.12845744735697
H           50.81628582567088       58.70784592068703       43.17722291021607
H           52.52879859811637       58.79378554590291       42.76183113643778
H           51.85004265588018       57.29515600898032       43.39173579895633
H           52.24210513802964       60.59830553634320       46.08376633655642
H           51.01427481699989       60.64848755340620       44.82150893787463
H           52.67266973547757       61.10267539765600       43.12548995586425
H           53.19838690752101       62.80954902905488       45.59676057634326
H           53.33742336702860       63.32773682728890       43.91726347749606
H           51.76002772486920       62.92567721767249       44.58353775920297
H           54.53661313987138       59.76284656344387       43.78582846470033
H           54.64315636949409       60.54553885881877       45.36277475700369
H           55.47479005333382       62.59480093643708       44.32770298846282
H           56.97373235819574       60.74458855496156       45.09366995273557
H           57.02148785960332       60.12766085198694       43.44232256743329
H           57.69968008517811       61.71233025149643       43.81895261304446
H           54.33078482443257       62.31694799249179       42.10334250631738
H           55.42618106467731       60.98949469619642       41.73684303052731
H           57.34457281759375       62.59147221467136       41.82515013414167
H           55.07619090796042       63.26013031767900       39.90218920796445
H           56.77212321278657       63.64864901944981       39.63703269071018
H           56.26282564001311       61.96773504951096       39.70752647744051
H           56.06809447470304       64.27684188381720       43.31779449471740
H           55.20416592247604       64.74693650936837       41.85777984617652
H           57.50500296614011       65.28042931486597       40.84538968745155
H           55.91250554752896       66.99966741670856       41.59532677928326
H           56.49319084477554       66.84766824623978       43.25529409994635
H           57.54756593920323       67.49764410841931       42.00284284307063
H           58.73785424501312       63.95137246358693       42.66177818180689
H           58.33464047923830       65.25963740693334       43.76750807188096
H           59.59480693862778       66.84434789313690       42.31487323921674
H           61.14802570229725       64.41737442007340       43.29783341246224
H           61.83280895471790       66.01307888774980       42.97960218245458
H           60.64964659597418       65.80336864886118       44.26739138645792
H           59.62183201696912       64.54573660117195       40.50347437355948
H           61.26076850558354       65.08105816526763       40.82786677150419
H           59.09257420801168       67.03269764529919       40.00088106018900
H           62.13124893961658       67.16695166022726       39.82758363397984
H           60.99992324335931       68.45437675691119       39.40856629514207
H           61.16386536806278       67.93719151973632       41.08454220609219
H           60.99820949232456       65.40789086970302       38.27837774045521
H           60.27001305998547       66.91283822626666       37.72654989695592
H           58.68606893253145       64.45023054522781       38.55932558242985
H           57.82792710822633       67.03376313175923       37.17557567071445
H           56.80258530678825       65.61953552854315       37.42454804546967
H           57.37012325330801       66.54678157612557       38.80723110872555
H           37.84916682877736       56.79101888111456       60.17882047235280
H           38.97947151932940       57.43666989360230       61.36571900586919
C           71.01320923299330       56.37699334500346       69.85140293775923
C           70.19889161743272       55.16417349751919       69.40721652564280
C           71.09590206331580       53.92730930238739       69.35804868382641
C           69.55509097145944       55.37514926127174       68.03228223007696
C           68.55957999920416       56.53590708104181       67.92131432131738
C           67.36819286338348       56.33453224547802       68.85742520800288
C           68.05724279347164       56.66843726424203       66.47492683378879
C           69.06426755627150       57.25783045661198       65.48069704262127
C           69.29052495211859       58.74570030950547       65.75544083092076
C           68.57722926697261       57.09789477643191       64.03258640501043
C           68.45923773293681       55.66591957397473       63.49468129174841
C           69.77856420417163       54.90456367972087       63.62584061773659
C           68.04712043721146       55.67840904289183       62.01434669913010
C           66.64964334140834       56.22643996895945       61.69292618592676
C           65.56421970999463       55.29459998901754       62.22025189804089
C           66.53342886784709       56.40796456332811       60.17317959339982
C           65.28677305297968       57.14795407597409       59.67068419970040
C           65.21556326096885       57.02368915040542       58.14882978635242
C           65.30680527371641       58.62509195379796       60.08044859658597
C           63.93241792592262       59.30969232395454       60.08778084640868
C           64.13342398584230       60.82324973002868       60.09531343624034
C           63.11917798022201       58.87490496461574       61.31252865966933
C           61.61942759283512       59.21282707843453       61.28058077204165
C           61.06458818626183       59.09194343791141       62.69789897490280
C           60.88161887989245       58.28817444641125       60.30223027024567
C           59.35379678648039       58.43138100791394       60.22334132458449
C           58.80515216470847       57.32301353573924       59.32398563753376
C           58.92736685631710       59.80571097823896       59.69443047083312
C           57.46665371122633       60.18661430344989       59.98544236881487
C           57.04231395973052       61.31226051103422       59.04393524143412
C           57.30552698897053       60.60747537056972       61.45093950704464
C           55.86318896968436       60.83115070843081       61.92120949696918
C           55.87597274757812       61.43191052944908       63.32657088469768
C           55.02935757263969       59.53560307366615       61.88981242367958
C           53.86524242718726       59.57537389973488       60.89197653009456
C           52.79479391733307       60.56936812488468       61.33896370103615
C           53.24688321499557       58.17558576857655       60.70172351262916
C           53.43897498164006       57.60268354863873       59.29297302394036
C           52.65776149081967       58.43069631788775       58.27227711565707
C           52.98002656087068       56.14023074620528       59.22424744851730
C           53.91927512899634       55.11724597146873       59.87287321218570
C           55.08882604275943       54.80078679022780       58.94260706447215
C           53.15308543933379       53.82828264172539       60.21164172255132
C           52.28768403121136       53.91336587934899       61.47610353574413
C           53.17633093147516       54.00744712535237       62.71336104948301
C           51.36219144773624       52.69154369738920       61.58649209220204
C           50.20857938834729       52.87752276824557       62.58805563738153
C           49.82944151006681       51.54522403604526       63.22943204826440
C           48.98352017346441       53.50588806249253       61.91146770234180
C           47.98121276237464       54.14138355306201       62.89596215182850
C           46.65186213982003       53.38461162688103       62.88428422444323
C           47.70745480354545       55.61811508269160       62.57480080305898
C           48.92382477173500       56.54735858944304       62.66353636488893
C           49.33688812175326       56.79012521731403       64.11536542153746
C           48.66494307712143       57.90329569453656       61.98737632307069
C           48.24026424900256       57.87396271102727       60.50950571288089
C           49.16037276291427       56.98833956303886       59.67787176053187
C           48.22374877807284       59.31486921030405       59.97575852742060
C           47.86982181660822       59.47794632042262       58.48980808459032
C           47.98184022112527       60.95151988486277       58.10515839540896
C           46.47560383986797       58.91112899704941       58.19791023443546
C           45.97696305973367       59.04190477720928       56.75168670990985
C           44.54680203136687       58.51041362798765       56.66850401119755
C           46.89939073710039       58.29289483228570       55.78387885219924
C           46.62355526698452       58.47027679043529       54.28165115402192
C           47.64685113782720       57.63003299398105       53.51806743031813
C           46.71155986388816       59.95460307364277       53.90779048585805
C           46.57227607636422       60.33020687620450       52.42257626315041
C           47.56995529412109       61.44311520245073       52.09827075351183
C           45.16169795232634       60.81796851631972       52.07037763575958
C           44.04346723279725       59.77328371065157       52.15620954888057
C           44.21751579127628       58.70019117083784       51.08602019266075
C           42.68720567866107       60.47704439178021       52.00344998050846
C           41.45522348415532       59.68178178266783       52.46117671438367
C           40.19996281238662       60.39206950080712       51.95433231953952
C           41.43523978154243       59.55719922337289       53.99030111793867
C           40.38356912679027       58.60683227330753       54.58613312634964
C           39.90557328620495       59.16022465785579       55.93091282363260
C           40.90403104535584       57.17781991575803       54.80538818710684
C           41.25761217673757       56.37805266853555       53.54767392639156
C           40.02851550101760       56.16686905329613       52.66400413250962
C           41.84694791123263       55.00533001187112       53.90869715755625
C           43.30611887407204       54.98784047027947       54.39076349407857
C           44.25423522238179       55.43082555514296       53.28079626565000
C           43.62938350496893       53.56096247520367       54.86009672998235
C           45.06767401118862       53.28902229293589       55.31891563580535
C           45.23182404991990       51.79781171965568       55.61690045781386
C           45.51859531522176       54.14862162451642       56.50709845688785
C           44.77873178074557       53.89349014248474       57.81778234843716
C           45.28598580699484       54.79979666500272       58.93281386422590
H           71.52872339084063       56.16432936769824       70.78584066184811
H           71.75874678837253       56.62890213136948       69.09948401021713
H           70.37561169994582       57.24289282514177       70.00954324973020
H           46.34867929602810       54.63861476862795       59.10554180072017
H           45.13612783206341       55.84729391544456       58.67768643710869
H           44.75235522713935       54.59802744496232       59.85907009205996
H           46.58405840954706       53.96334980753524       56.66978816616950
H           45.41127106080973       55.20249007811722       56.24024750892416
H           42.94465482706006       53.30242684496781       55.67097271977813
H           43.41517920520447       52.87844595187799       54.03122979213573
H           43.40603619028723       55.67249381577077       55.23850512323694
H           45.27789279987994       55.48175410467750       53.63940865380264
H           44.21271653064957       54.73311229595668       52.44723712465619
H           43.98843976529740       56.41708260608582       52.91371251739795
H           41.21569369835605       54.55235930633920       54.67820134482078
H           41.78419946685781       54.36609430093857       53.02350066621074
H           41.78270721805153       57.23099567033917       55.45192703762704
H           40.13482781040009       56.62160327684410       55.35023856354618
H           45.74063628038291       53.52496017158295       54.48656873326949
H           45.09321660060375       51.21233183095976       54.71022058522087
H           46.22777282294436       51.59409064451220       56.00420387368211