3536
 energy: -3716.251058352730 gnorm: 0.000978256573 xtb: 6.6.1 (8d0f1dd)
C           59.16597725925082       64.71479568984584       36.49447088563453
C           58.88734391164919       65.28686605218151       37.88411771475578
C           57.64747485189092       66.17704212161840       37.82393133656732
C           60.12000751079301       66.05051526390794       38.38348308034274
C           60.05806309588368       66.54781675067689       39.83468157280286
C           61.15429744552211       67.59063548729785       40.05395246786689
C           60.21455187967246       65.39720184521879       40.83748753883492
C           59.79714425272839       65.76940560771078       42.27449107194759
C           60.92667547603948       65.48175919047983       43.26492623957846
C           58.53252843719470       65.02226501784449       42.71927508276209
C           57.27052522746923       65.34125270818646       41.90982631053664
C           56.77829106430021       66.75719098523470       42.20874806631354
C           56.14794645593970       64.34299385769266       42.23119738009823
C           56.32468396947228       62.93806175277678       41.64219830351208
C           56.09680757086142       62.95572469851208       40.13028622759916
C           55.34102008754304       61.93932897329854       42.27302712892924
C           55.52815448449407       61.65881431460776       43.76839981561579
C           56.89064407628337       61.02358837982494       44.04498077302457
C           54.43643192402011       60.71977835929384       44.30259513364724
C           52.98299698643738       61.19437219028711       44.17129939459308
C           52.81408945809961       62.65540080086540       44.59062873887656
C           52.04182519185930       60.34395373255004       45.04175983662712
C           52.12991515233418       58.82201719430858       44.89363079861339
C           51.81245042390121       58.38049007125075       43.46761368171326
C           51.16020421466297       58.12317626148805       45.85912735838239
C           51.49044798290285       58.24384221556065       47.35209533820953
C           52.83212656449111       57.59372478357879       47.68025178971855
C           50.37970006825755       57.58966682457567       48.19017098052822
C           49.19105136758324       58.50721432046007       48.49952770575761
C           49.57265007485086       59.52194865554861       49.57443216015080
C           47.99311669672048       57.68080455578568       48.98746084872502
C           47.20766055890064       56.99123258046837       47.86218982067047
C           46.06059833706363       57.88988509283890       47.40548716605301
C           46.64650608740754       55.63283351288264       48.30404278246861
C           47.70106078880233       54.52605436290182       48.41789782513481
C           48.14715138958817       54.06339688343536       47.02981593318994
C           47.18493524005076       53.30590385764930       49.19577263433345
C           46.70639575523236       53.56253076420273       50.62857747141842
C           47.74705473462733       54.32998474862492       51.43983565698743
C           46.41563682200994       52.24757203907286       51.36445341069109
C           45.40614053568227       51.28979491167291       50.72095884840085
C           44.09609143220097       51.99517735426169       50.37815992657295
C           45.14321055899885       50.13821952406435       51.70340921728031
C           44.60117393156924       48.85243561595900       51.06515670207239
C           43.75897743952985       48.08888005791778       52.08257769248405
C           45.70561292547639       47.98167753315607       50.44030853006360
C           46.77693419724564       47.40062343562585       51.38223295738941
C           48.10625542613178       47.30678604586478       50.63197576161736
C           46.39216012007310       46.01589065697090       51.92209590948386
C           47.17264834793376       45.55842003597046       53.16649565397931
C           46.89660807060697       44.07364170286171       53.39731339341886
C           46.78506899026711       46.39932164527068       54.39090367906390
C           47.34586899371816       45.94979722824218       55.74942754396644
C           46.79682118340653       46.88212417328787       56.82819730642485
C           48.87817129601634       45.93882027138822       55.76056974531847
C           49.53917218901222       45.37558483479126       57.03001905941372
C           51.03911908644920       45.66535554296548       56.96697655461993
C           49.27226813517853       43.87162109816720       57.15862308534587
C           49.74679385141076       43.19540688223287       58.45300468574629
C           49.49397667747895       41.69135696733503       58.32857981171131
C           49.03668844026519       43.73195628275352       59.70795510698537
C           49.81698331376785       44.76333392689127       60.53357201054916
C           51.05756286533104       44.14411239195962       61.17321324588873
C           48.90426009583805       45.33248013178984       61.62906394645096
C           49.40438514747139       46.64985111585255       62.25127026331698
C           49.58448710993807       46.49945159434647       63.76262198863720
C           48.43318495823322       47.80679284969338       61.97996703495006
C           48.24515378420655       48.18720765524227       60.50792626888922
C           49.53786779852814       48.72753055750781       59.89618243197910
C           47.14707555431933       49.25018198317552       60.33617395926472
C           45.74070355563429       48.90935641335672       60.85986446880570
C           45.20622792637855       47.63633967674049       60.21146784558603
C           44.83541819842968       50.12616830964326       60.59831935182775
C           43.49523947805088       50.23357589765453       61.35775470711881
C           43.66255925284199       49.91787681605508       62.84168837065492
C           42.37059972390306       49.40634307353386       60.72308885595368
C           40.95462127344664       49.74405437279696       61.21504827233182
C           39.95929675288744       48.78010013567381       60.56851119714762
C           40.54964755619275       51.20240310699813       60.92974715623946
C           40.37943217058066       52.05292936110092       62.19376109603216
C           39.12347160921480       51.62098513848702       62.95196809700793
C           40.26807430877999       53.54718512324133       61.86363496820330
C           41.52824312499499       54.21275246763738       61.29746217222784
C           42.63993748532548       54.26852323434536       62.34442915515945
C           41.21501006939155       55.64039154764860       60.82544886126846
C           40.34996991947452       55.74468542455361       59.56351510663866
C           41.14273901805498       55.33584087837095       58.32390247410071
C           39.81515319146731       57.17224660925997       59.38982398753064
C           38.65798661420769       57.51348079298887       60.32572164825286
C           38.13159221156761       58.92026041357192       60.07003105486978
H           59.36576715360481       65.51825954260072       35.78850790347135
H           60.02824805587907       64.05260582389036       36.51080095458224
H           58.30922399855741       64.14855487684129       36.13523792688960
H           37.77030360621769       59.01501381973411       59.04818975182262
H           37.31282792910601       59.15416582330430       60.74687214301768
H           38.92283986945102       59.65109127125332       60.21859299316696
H           40.62943696526016       57.88395492154425       59.54439495797153
H           39.46690134382946       57.29239636477282       58.36206608583772
H           40.72038065029939       56.16410698958456       61.64554910898072
H           42.15729839352660       56.15881745239037       60.63010011174326
H           41.89314427119359       53.63626190081253       60.44343321979947
H           42.30753031385137       54.82524269547392       63.21731359024754
H           42.93296257426687       53.27283518826224       62.66515238115432
H           43.52070746806090       54.76266383053736       61.93892348150304
H           39.44854629592881       53.66812003304161       61.15295248644173
H           39.98654629456625       54.08194175329158       62.77494813213035
H           41.29596498294072       51.65963592351111       60.28113672806393
H           39.60480491807083       51.21788568462432       60.38250846423023
H           39.48962009559131       55.07417597150348       59.65335186422298
H           41.50636658788368       54.31625322026672       58.41802848759379
H           40.51796744598212       55.38796783516589       57.43538050322382
H           41.99323840426452       55.99949510609734       58.18283828240664
H           41.24298361430550       51.89732947843616       62.84523237955658
H           39.02359890766014       52.17323305671555       63.88389725741547
H           38.23656257129036       51.80776737857733       62.34925896930132
H           39.15329133015008       50.56108687336431       63.19134156227837
H           40.92677673894813       49.57019499399482       62.29435044258577
H           40.22222026837507       47.74848634453239       60.78955964727346
H           38.95394748413882       48.96174180036964       60.94166879999035
H           39.95293413767041       48.90649224828603       59.48767593113843
H           42.40509454669568       49.54453007696280       59.63924687664252
H           42.53867960371830       48.34754437857661       60.92285614529731
H           43.20411549609118       51.28655651750859       61.27626465741600
H           43.80639095240983       48.85204118160708       62.99806623882075
H           44.52199946184538       50.44931449374999       63.24535714261561
H           42.78247299029540       50.22611319524722       63.40139992059460
H           45.41322044503935       51.01555212562296       60.86487405050330
H           44.63399033614817       50.18624676344230       59.52554464625300
H           45.80344881968022       48.75500183800564       61.93867137999221
H           45.07990787060804       47.78001020886722       59.14088584612296
H           45.88821678018205       46.80540196732762       60.37298430016988
H           44.24946760240034       47.35487446006032       60.63922704154960
H           47.48370284407612       50.16200018270051       60.83780342908334
H           47.06389654267247       49.47704638192130       59.26974599483822
H           47.96261952751110       47.29551855619361       59.94304718752517
H           49.36488890813526       49.01941225945932       58.86254351973385
H           49.89222732410209       49.59883360655618       60.44358878436726
H           50.32351512097313       47.97737434624841       59.90542130505385
H           47.46565263188583       47.52065193862290       62.39599009059483
H           48.77867454443131       48.68854961367035       62.52524370357731
H           50.37944002351190       46.90055247169231       61.82555567019036
H           48.63270709803759       46.26949309996139       64.23760919092274
H           50.28181400923726       45.69527015469160       63.98507779266950
H           49.96710834429491       47.41944949357900       64.20106675742551
H           47.90782414103715       45.48971104770219       61.21306905082533
H           48.80214844509672       44.57493348615421       62.40930740481144
H           50.12986354113348       45.57977975390094       59.87717046158870
H           51.57400376556291       44.87529250075954       61.78934470982138
H           50.77563360283835       43.30407541438517       61.80505238380604
H           51.75796732393403       43.78330953374035       60.42484401524724
H           48.08259090960048       44.16842625474781       59.40534140670238
H           48.80488380913213       42.89507640768097       60.37107511503401
H           50.82438923837326       43.34539142979867       58.55309841244198
H           48.42574143266134       41.49011589045915       58.27496099760703
H           49.95645873822765       41.29857188798404       57.42672061943902
H           49.90580595482052       41.15932875739974       59.18358734457533
H           48.19964247452971       43.69035226600541       57.07203984521050
H           49.75752031139480       43.37072683633327       56.31575373625021
H           49.12789609789325       45.89010808780818       57.90064807568850
H           51.21426479365992       46.73380471184484       56.85754975305723
H           51.54467840278264       45.33441769669154       57.86990089469290
H           51.48882242291285       45.15548469986167       56.11728741557550
H           49.23750969148691       45.35236171250471       54.91390897885695
H           49.22393405463199       46.96583193422870       55.61658099796217
H           46.97422793150533       44.94414093883221       55.95650594785215
H           47.18257365057804       47.89097012560470       56.69426518881949
H           45.71129129532405       46.91984696350107       56.77635456579109
H           47.07513682081591       46.53783978747639       57.81941768192473
H           47.10041731691857       47.43176975739113       54.22514317456406
H           45.69428803320780       46.39757789947308       54.47034560454782
H           48.24198846942560       45.68220007137159       52.97358446304077
H           47.51086924594765       43.67531855006014       54.19975760708193
H           45.84965121388565       43.92062945427202       53.65215397323640
H           47.11492660573977       43.50659032606362       52.49474391430470
H           45.33050959111642       45.98920074651639       52.16270840072028
H           46.55840830004593       45.28723059913234       51.12345729063554
H           46.91403853374382       48.08097160016953       52.22517468364300
H           48.86960065438904       46.84394440847460       51.25215573569987
H           47.99393846244602       46.70933130262198       49.72866017371287
H           48.45507496098633       48.29700907472495       50.34855994447410
H           45.22546107933685       47.15614678930795       49.90838955857850
H           46.20780184225175       48.59646605093830       49.68915529520689
H           43.93768452832775       49.13472886465126       50.23881635448214
H           44.34661185354556       47.85425883035552       52.96511190978328
H           42.90846216125851       48.69307452065228       52.39111035116225
H           43.37965473658790       47.16630935185379       51.64834351814403
H           46.06634195691269       49.90894629941197       52.23734023498974
H           44.42325070066177       50.48932946881966       52.44662166522840
H           45.84038085044740       50.88074466390667       49.80444547669415
H           43.35649365666005       51.27570117989832       50.03423914430702
H           43.69580913600440       52.49647026494014       51.25752429130372
H           44.23538431367538       52.73400788195818       49.59361950821197
H           47.36010434031274       51.71105860873916       51.49245645402999
H           46.04751743793891       52.49951206051033       52.36256450463394
H           45.78610078816696       54.15204237049934       50.60311026382441
H           48.71483007592507       53.83914726946910       51.37383619904581
H           47.85124939515347       55.35161966935652       51.08874864150454
H           47.45288492591717       54.36480275650613       52.48596386397089
H           46.36421491624862       52.86378534553613       48.62904270624889
H           47.99084261006580       52.56922554402741       49.23538316789941
H           48.57882237133585       54.92194830598565       48.93584884990713
H           48.93783498482907       53.32173811826580       47.11659039297233
H           47.31790035677419       53.61346488994857       46.48768632250753
H           48.52933558720352       54.89086403306376       46.43692520925461
H           46.14698364195696       55.77436359941274       49.26306155634207
H           45.88640862420481       55.31215606625798       47.58725857758701
H           47.87633897327189       56.83677834759881       47.01049418898336
H           46.42745388507548       58.88033550522364       47.14548152671168
H           45.56436911182520       57.46714252340985       46.53491632864122
H           45.32891814355333       57.99370446587177       48.20446029649653
H           48.36908201010613       56.94098772848933       49.69610472180094
H           47.30885516829859       58.33274473999887       49.53517423343641
H           48.90546689992932       59.04851528315569       47.59155678210183
H           49.75529022740419       59.01310299309196       50.51896447303316
H           50.47328865585802       60.06435797386899       49.30134115739930
H           48.77226936898389       60.24189793166407       49.72018291892343
H           50.02854509206694       56.69857401510070       47.66622310111475
H           50.79605188856655       57.25856773130006       49.14446453908953
H           51.55141702529133       59.30177406298984       47.62013354755504
H           53.64975225680502       58.10251844088268       47.17758656058695
H           53.01909313783842       57.63646687309078       48.75096481380527
H           52.83206653831100       56.54920077866053       47.37907121927541
H           50.15640950618624       58.51911985686732       45.68665525061520
H           51.13859121545638       57.05930614840056       45.60515864828499
H           53.14419316355075       58.49428632461967       45.12932011874271
H           50.81664002709135       58.70940005216848       43.17901284762990
H           52.52952101338128       58.79408293862163       42.76297158635944
H           51.84940369078036       57.29548166976490       43.39278102320114
H           52.24232527597189       60.59838328167449       46.08399155589048
H           51.01480502883091       60.64735210961360       44.82127602167569
H           52.67242740439696       61.10213173643457       43.12623513523199
H           53.19864828785149       62.80953023151111       45.59693567693084
H           53.33796776450840       63.32690207226245       43.91707682813682
H           51.76018366654448       62.92495320055185       44.58361055742630
H           54.53672437031022       59.76318586684000       43.78497776339591
H           54.64326751654952       60.54532638668545       45.36220893216480
H           55.47428251283207       62.59456735183250       44.32775082232148
H           56.97313801804624       60.74480314998963       45.09335171557576
H           57.02053643173914       60.12806040870317       43.44171334994480
H           57.69887691348022       61.71293757929071       43.81851727245534
H           54.33108620445776       62.31730007475937       42.10352374343609
H           55.42605290016465       60.98909784397458       41.73738714291360
H           57.34466875150297       62.59045600841804       41.82484169878889
H           55.07640578760590       63.25836440269116       39.90207328032560
H           56.77207769467729       63.64885483263134       39.63733835745584
H           56.26550859279017       61.96702068316651       39.70742126062174
H           56.06790416425399       64.27669775655434       43.31714572391441
H           55.20449593032367       64.74600820268157       41.85650243532286
H           57.50523790672107       65.27963908236381       40.84537980604496
H           55.91276816807085       66.99898243084296       41.59480689809678
H           56.49293159695739       66.84683437269096       43.25504697844245
H           57.54799536726593       67.49650266351988       42.00297825253482
H           58.73756460274597       63.95100967162169       42.66259438270308
H           58.33378675550566       65.25959500265451       43.76737801910632
H           59.59434883318286       66.84351497299642       42.31491846749739
H           61.14778933447131       64.41673679989137       43.29782498102318
H           61.83175000330849       66.01269581388590       42.97895417277691
H           60.64963208727256       65.80233158887360       44.26767077554256
H           59.62157842795114       64.54464220863099       40.50423880681247
H           61.26025073709433       65.08090136205719       40.82840739525747
H           59.09190211146979       67.03185715596643       40.00087151887669
H           62.13037989920393       67.16525560664539       39.82779516312786
H           60.99941471587600       68.45287183902394       39.40878212589027
H           61.16364480601056       67.93614557790951       41.08480573938574
H           60.99846486355855       65.40760687116382       38.27935556174685
H           60.26871654671803       66.91188395580080       37.72742110861672
H           58.68627995927180       64.44847104136909       38.56018962112632
H           57.82935630709220       67.03182024256543       37.17583303659525
H           56.80310258731511       65.61844476683386       37.42489654385997
H           57.36962837355343       66.54665442862381       38.80735735158875
H           37.85095716723022       56.79178402383344       60.17790733335757
H           38.98072627532556       57.43731482758520       61.36559194081590
C           71.01244015288079       56.37749424961313       69.85014463217433
C           70.19780041114207       55.16474714961245       69.40731862914269
C           71.09465106015688       53.92799482678714       69.35782433112381
C           69.55470756704911       55.37544776350359       68.03193230480100
C           68.55941896920380       56.53643274394278       67.92121693241631
C           67.36804280420526       56.33531387112678       68.85737237484420
C           68.05674829970357       56.66863480361918       66.47475480101350
C           69.06413667124382       57.25819019915311       65.48069555835660
C           69.28970440194369       58.74586427155180       65.75573038718632
C           68.57670753647723       57.09854637428408       64.03256917366087
C           68.45878807174017       55.66603426427912       63.49536895548187
C           69.77838576567612       54.90505190514207       63.62604457557724
C           68.04753836171226       55.67855970856008       62.01459116412778
C           66.65012774459247       56.22730284468307       61.69349995473628
C           65.56468067631126       55.29442701578517       62.22005684192311
C           66.53424674730660       56.40872875088508       60.17349436746230
C           65.28699377980061       57.14836352353668       59.67114187384292
C           65.21614270639164       57.02450287796319       58.14881814338026
C           65.30754355768414       58.62572995982062       60.08085150742259
C           63.93286119991637       59.31018002682183       60.08760495364714
C           64.13406931832182       60.82386969384416       60.09608321813415
C           63.11993902766081       58.87490072048109       61.31287896530831
C           61.62009516038029       59.21340624369280       61.28113954560477
C           61.06519976345916       59.09187900120290       62.69860658302578
C           60.88235360197483       58.28814978411052       60.30278245839204
C           59.35421972630800       58.43126040752559       60.22472456964940
C           58.80539034507792       57.32276970802948       59.32495737951534
C           58.92789401876932       59.80565272594465       59.69515232074339
C           57.46659291407937       60.18597023987636       59.98557226499116
C           57.04311900625022       61.31248497644885       59.04428978659443
C           57.30557077211096       60.60747637118747       61.45115978559014
C           55.86280986700930       60.83123337706348       61.92069906203160
C           55.87549428755005       61.43154790119786       63.32639810720075
C           55.02980526823061       59.53478149921903       61.88936013200062
C           53.86472645904318       59.57557068876373       60.89230076050565
C           52.79413623830386       60.56883534549002       61.34132065925181
C           53.24606993497741       58.17548754596713       60.70279550318821
C           53.43910111154965       57.60269350338768       59.29387351903466
C           52.65748925453917       58.43041131047001       58.27270339522283
C           52.97971144625879       56.14006320180621       59.22498813858562
C           53.91935740754969       55.11729523803387       59.87417826711409
C           55.08895522119751       54.80097955048045       58.94351854098679
C           53.15274253559257       53.82803986681810       60.21195449847652
C           52.28724470046186       53.91377374388131       61.47665906267096
C           53.17665923373679       54.00707547642325       62.71371856574736
C           51.36178220344591       52.69155483194547       61.58670425230161
C           50.20846080993044       52.87772944551573       62.58907068957453
C           49.82902358763386       51.54501197337432       63.22979149908814
C           48.98324787379298       53.50601466007660       61.91192570729261
C           47.98111642041371       54.14171782629530       62.89698777784348
C           46.65176955638255       53.38458522855706       62.88459320497179
C           47.70728621563086       55.61846816448918       62.57484714626229
C           48.92435366996425       56.54748940349364       62.66333667670750
C           49.33710722316009       56.79133906321189       64.11531414932064
C           48.66448795777443       57.90382541200852       61.98768787049616
C           48.23882166672639       57.87399604218306       60.50994845074789
C           49.15962563108243       56.98871443781735       59.67797144861924
C           48.22284013166073       59.31515484827543       59.97639340278257
C           47.86946236841970       59.47738368679843       58.48996182840366
C           47.98075531914269       60.95143515690216       58.10584612183966
C           46.47488896837199       58.91050268745192       58.19860069140460
C           45.97569865704438       59.04282663990451       56.75243613628091
C           44.54573310893639       58.51065076836261       56.66966867526842
C           46.89864578073534       58.29329023911758       55.78473970139854
C           46.62258002395280       58.47022012967924       54.28219587177249
C           47.64650947387725       57.62974248968001       53.51903997465086
C           46.71086011967900       59.95467948605573       53.90807593970361
C           46.57161935085743       60.32955786547795       52.42228373251569
C           47.56948376077593       61.44284470529510       52.09836455380037
C           45.16097666199365       60.81801050682262       52.07072200649980
C           44.04282210911249       59.77302529358410       52.15700142455957
C           44.21750977731173       58.70044925013798       51.08587852846433
C           42.68660532133536       60.47720270999925       52.00391006249404
C           41.45446727831791       59.68156828355045       52.46135842658100
C           40.19967998960573       60.39307176803410       51.95512431338484
C           41.43504267537745       59.55740257183283       53.99082423536692
C           40.38312802423073       58.60694420002910       54.58642782956609
C           39.90566019003320       59.16039634893121       55.93137887189835
C           40.90380210205029       57.17781553196765       54.80548290406787
C           41.25784539175153       56.37882438045433       53.54697781100388
C           40.02873123881986       56.16691567706373       52.66340236640382
C           41.84650548528042       55.00537182178193       53.90808322314597
C           43.30560646829689       54.98769501584940       54.39110228281829
C           44.25410834550036       55.43022993734139       53.28065913866332
C           43.62896050743159       53.56042096554891       54.86029440067466
C           45.06762093079108       53.28811299875128       55.31912472613219
C           45.23124303875717       51.79658699870501       55.61813926370450
C           45.51824811990841       54.14817156694549       56.50757072965797
C           44.77782935279181       53.89269484379511       57.81823275230700
C           45.28554492865040       54.79938308672119       58.93318263263976
H           71.52839773390386       56.16461336432729       70.78414550706968
H           71.75745909518986       56.62884318074243       69.09764628788268
H           70.37525441567087       57.24358304283195       70.00869554056271
H           46.34821845758268       54.63750079877838       59.10561819031003
H           45.13581658300142       55.84664729008103       58.67773560047165
H           44.75164454667494       54.59733688078307       59.85893329427830
H           46.58367223288239       53.96306283091297       56.66965585367383
H           45.41026858899357       55.20153618915494       56.24006633181240
H           42.94544435513657       53.30231997055720       55.67151345818342
H           43.41575302011614       52.87826548817564       54.03143851175030
H           43.40647355602699       55.67215234719873       55.23804911713802
H           45.27813697430113       55.48080178259178       53.63868509805273
H           44.21180258848707       54.73277616195320       52.44689278120504
H           43.98839107728084       56.41653276141825       52.91382508574060
H           41.21610069199800       54.55277723437361       54.67756879038251
H           41.78536350521139       54.36668914809150       53.02267778366058
H           41.78238326632756       57.23032250772672       55.45217195670924
H           40.13439584893314       56.62134535190008       55.34816722275099
H           45.74122002542309       53.52395063725327       54.48763200000180
H           45.09371845417517       51.21121731401160       54.71128049525184
H           46.22687350333122       51.59245886124179       56.00654687759220