3258
 energy: -3427.495198417575 gnorm: 0.000839032488 xtb: 6.6.1 (8d0f1dd)
C          103.38913076513465      123.51308201244601       97.45712090106433
C          104.87887474883870      123.21596422608719       97.33295119920673
C          105.49756726407925      122.84390211564775       98.67805961491563
C          106.97312502213322      122.47056238152086       98.56161516704758
C          107.58284013766242      122.12887290642550       99.91931438540671
C          108.98568253845824      121.54467771688556       99.78253051325468
C          109.67252023374182      121.28258103524711      101.12243580388854
C          108.90972036676938      120.31360871228827      102.02256516750576
C          109.78964296028357      119.77355445363420      103.14657611703502
C          109.04617617009031      118.77119465350012      104.02368321131446
C          109.96658667498041      118.07357816873655      105.02201575484703
C          109.26845472056060      116.90329393311222      105.70758498264435
C          110.21906089178503      116.06420015714009      106.55512379666111
C          109.53676030249309      114.81223898668929      107.09463236846621
C          110.50320856873533      113.85820221847435      107.78949936289544
C          109.78229666344528      112.61754673078363      108.30864811103072
C          110.74147997216853      111.56842202873659      108.86052550257453
C          110.00097293492730      110.37574796786750      109.45986773517517
C          110.94285573146230      109.22426718452645      109.80272325588740
C          110.24732458359654      108.05773655844087      110.50436947258451
C          109.22155512700303      107.33930448061923      109.62966500273320
C          108.57838544004917      106.16539956562281      110.36299902187157
C          107.40008037280487      105.56304814786068      109.60114014470778
C          106.63111854024045      104.57333519080345      110.47263916698876
C          105.48541526420696      103.85316301285950      109.75878436801779
C          104.44182957710555      104.76662561235246      109.11481053792397
C          103.73455215585382      105.70544937029020      110.09091910599992
C          102.76008915872748      106.62547749422596      109.35843386047411
C          102.05477402611653      107.61455581872751      110.28293581069903
C          101.37365174386622      108.75692166593410      109.52691846410751
C          100.16430287162972      108.32923404711219      108.69685689363355
C           99.53183978897401      109.52336810477968      107.98202335102600
C           98.21107725622524      109.22872954037614      107.27012020328370
C           98.35820827596092      108.29215968775401      106.07600870011250
C           97.05812725063502      108.17122403965287      105.28535117252375
C           97.17244668682005      107.22424516042709      104.09066377353993
C           97.28045672458482      105.75692087071752      104.49596158938576
C           97.37204742035874      104.82987702474266      103.28772448652312
C           97.54475472336128      103.37257910815188      103.70749452919840
C           97.63196128226018      102.43562539007914      102.50554671706549
C           98.03328866464494      101.00434869701863      102.87009447135064
C           97.10240495651389      100.31284438533265      103.86630304782888
C           95.69776363195004      100.07181028792243      103.31960679214163
C           94.73469433535742       99.52656729746461      104.37673584042365
C           94.36588188311372      100.52466751742604      105.47736249180322
C           93.57378596747284      101.72670187125763      104.96729688085667
C           93.21082407820933      102.68665303854694      106.09807202956206
C           92.35195563099327      103.86788229200998      105.64440546738359
C           93.10558048327475      104.84808989430783      104.74909500612688
C           92.22791265822383      106.01878566951997      104.31325815174756
C           92.96071430915973      107.00457406543235      103.40162971056765
C           93.20245158728216      106.44750591303765      102.00176094232975
C           93.97090958112962      107.41715112255231      101.10636516269027
C           94.20712148418829      106.84843567077782       99.70584336965176
C           95.27158004027662      105.75189475842969       99.67833096442915
C           95.24623770763804      104.95862315318087       98.37555315447896
C           96.26908954789924      103.82489124470499       98.37023921288709
C           96.09076006679318      102.91502562885756       97.15735738541203
C           97.19903518557763      101.87458709856321       97.00268339753413
C           97.28761234668124      100.88435153909991       98.16094674568241
C           98.33386638176587       99.80586172111276       97.89067568182388
C           98.47019747271756       98.82708649823469       99.05373589450815
C           99.52248540044705       97.75656348187921       98.77614826005788
C           99.54018867062925       96.63492679714285       99.81366621148541
C           99.96855126370870       97.08534264529374      101.20892688058399
C          100.08470539755811       95.89242820936970      102.15383911092032
C          100.68348672935080       96.23149150048627      103.51785919352106
C           99.78879575155791       97.10594890581353      104.39436164034896
C          100.25068541375533       97.08234288495412      105.85131295097285
C           99.33926094829097       97.87229250136375      106.79057061828662
C           99.54654795889770       99.38209186532849      106.71206729989693
C           98.52315308695552      100.13022635622690      107.56050907057264
C           98.75022427590559      101.63837788984218      107.54794665685343
C           97.68604946989747      102.38115459326593      108.35045181443438
C           97.99020953156194      103.87050942950830      108.47725351214589
C           96.93097153357958      104.60719741240950      109.29276252413243
C           97.34086331171169      106.04689222806293      109.58728669433458
C           96.25261374505197      106.82675350828220      110.31944286472832
C           96.72305320735977      108.19423163964274      110.81264869685887
C           95.59051666116648      108.96834396916634      111.48179896297019
C           96.05318593090907      110.21502838401184      112.23225869346886
C           96.51402683903201      111.37522684043333      111.35245474705384
C           96.87771693218978      112.57096953101237      112.22953984854691
C           97.26703123377503      113.83392026408686      111.46626696250196
C           97.53062250457228      114.97445714763876      112.44755924366594
C           97.94114369311968      116.29592890558902      111.80098351465746
C           96.84045350740598      116.93190583569579      110.95336686292184
C           97.13729270866760      118.40170462939462      110.66208696344265
C           96.10260363154146      119.06339672950723      109.74976961500415
C           96.27514722650662      118.67738943297169      108.28296544411316
C           95.26360912268774      119.37600423618083      107.37487996007513
C           95.67094774873601      119.33716481609463      105.90195627062579
C           95.59362790039843      117.95125552422307      105.26300069599033
C           96.35649493048417      117.92246028396298      103.94056167466023
C           96.13379901880678      116.64515576117890      103.13568650427527
C           97.03938604390336      116.60448223604604      101.90605158232260
C           96.65694389170329      115.50195748584865      100.92308875115364
C           97.59743913164120      115.46523169779630       99.72010016730265
C           97.10683334690914      114.50005780676480       98.64433889962270
C           98.02957642712840      114.41811976834998       97.42741465359565
C           99.32383141827661      113.66169593571885       97.71312712651007
C          100.19795835812560      113.52102293756728       96.46864435711774
C          101.45187352177932      112.68228101515169       96.72393234500106
C          101.15553522179279      111.18533409518302       96.79066876732531
C          102.35555896978805      110.34024628025577       97.21963675138932
C          102.74203126961805      110.56609057656213       98.68010130832174
C          103.74011110348138      109.53172027551884       99.19386163666890
C          104.10650365739362      109.79660837046291      100.65279097661923
C          105.23743150010023      108.91201939609360      101.17396107443625
C          104.82662335062516      107.47231981238880      101.47041841100209
C          106.03492896385816      106.64098792974329      101.89470571434330
C          105.67260656353771      105.19604470765101      102.22663965992662
C          106.89316277927368      104.29532169721860      102.41967301982635
C          107.76449187692286      104.68320300236925      103.61220267294389
C          108.89703500001779      103.68147871387001      103.82544597126989
C          109.77177710008037      104.00327667367176      105.03775008218634
C          110.80850729834080      105.09141082781893      104.77236129974943
C          111.61344661597168      105.42267826828201      106.02601913809903
C          112.71445824355825      106.44695243615215      105.76561124277012
C          113.50044653162011      106.76154990608897      107.03131708010579
H          113.39304721562857      106.05664859649752      105.00323940015427
H          112.27268587147418      107.36786506497734      105.37568597237561
H          110.93893993873975      105.80790037236652      106.79564279824096
H          112.06435825069107      104.50652536223139      106.41628518654905
H          111.48922171145814      104.75851807522365      103.98419153507423
H          110.31130043604740      105.99521826927888      104.41488607478043
H          109.13125144585530      104.31010644211615      105.86792174402025
H          110.29422431208515      103.09518882308357      105.34809550539433
H          108.45955967991394      102.68878015776235      103.96222667421374
H          109.52111843115772      103.64579028639182      102.92797196403330
H          108.18551322271199      105.67628671168954      103.45143167548491
H          107.14544260775510      104.72146359170638      104.51226345139935
H          106.54713897909602      103.26658252647229      102.55970892757520
H          107.50303940695655      104.31354643515374      101.51250693170682
H          105.06287355358495      105.17159857905497      103.13340043849080
H          105.06303163556466      104.78980852112727      101.41345069033218
H          106.76998495758532      106.64967010358343      101.08676181591510
H          106.49818597515916      107.11307749758363      102.76277630351443
H          104.07763791126739      107.46520809425711      102.26418846136433
H          104.37222037196798      107.02202690358381      100.58537539989226
H          106.04819788541097      108.90794196877528      100.44105982100885
H          105.62986041107283      109.35007492977861      102.09648893564540
H          104.41171316064890      110.84265728602762      100.74036351320181
H          103.22256097265121      109.66520801879877      101.28167962012148
H          103.30954144729544      108.53299723095465       99.09075541454186
H          104.64492936362892      109.56669131772892       98.58041562558300
H          103.17758596882094      111.56033505080772       98.79539308059447
H          101.84072601392437      110.52641063002920       99.29541156880734
H          102.09884017878409      109.28569075886450       97.08233565654884
H          103.20876427328197      110.55705278696928       96.57203250532453
H          100.33959735472581      111.00773536194401       97.49408050419706
H          100.81573418351006      110.85120107995128       95.80641396708562
H          102.17323718443339      112.86075043640717       95.92239969509524
H          101.90549941257268      113.01287881592546       97.65972893639601
H           99.61680937584418      113.06642268429988       95.66190008410055
H          100.49570162468603      114.51911541826180       96.13683753230545
H           99.89185200810159      114.18142841778416       98.48545753182222
H           99.07053200359806      112.67233874854571       98.09809722285627
H           97.49894872802021      113.90682939940893       96.61949713429944
H           98.26300264999871      115.42752243352206       97.07874463178521
H           96.99964036966415      113.50410063426717       99.07743739043410
H           96.11536621696249      114.82348660310745       98.31425224676825
H           97.67280811267909      116.46889022502629       99.29235959136021
H           98.59269685576479      115.17214511741209      100.05739221263688
H           96.67452296045845      114.53364094088370      101.42948543700776
H           95.63330762689760      115.67132262951590      100.57703470845189
H           96.98341242704925      117.56828341750702      101.39244046019371
H           98.07410379866079      116.46122235200451      102.22644662871629
H           96.32975687158891      115.77226845747398      103.76307507403530
H           95.08770440916173      116.59437750751871      102.82212449721330
H           96.05586314960206      118.77937330317498      103.33159668175070
H           97.42332542411879      118.02860255703322      104.15115051307238
H           96.02432089932431      117.20979635719928      105.93540030654188
H           94.54794810821809      117.68062387786537      105.09600073446003
H           95.03459116213654      120.02281781493249      105.33535138729701
H           96.69610691123457      119.70197511560818      105.82089206964589
H           94.27679505428895      118.92414201175285      107.50093563391817
H           95.18511853059795      120.42341609457280      107.68017567081324
H           97.28408324620051      118.95287693674257      107.96712402582860
H           96.17722264667491      117.59742221052764      108.17528493722159
H           95.09664913818753      118.79813059071151      110.08523171343967
H           96.20082172844984      120.14903182905692      109.83537443498990
H           97.17062032722410      118.94255909591874      111.61195653473435
H           98.12428847893455      118.48579956652017      110.20140427314858
H           96.73992224652895      116.38338146702398      110.01626891680688
H           95.88739671340674      116.86214171916320      111.48500148647486
H           98.21036268390846      116.99364261509524      112.59906936523385
H           98.83087540794426      116.14499828122558      111.18520646242445
H           96.63154712071616      115.14084047070172      113.04774950195808
H           98.32184149733700      114.66366095516690      113.13402993048130
H           98.16083836880946      113.64806403631781      110.86620979539070
H           96.45872813373649      114.10974446472018      110.78851394493438
H           96.02061345871354      112.80471935824227      112.86681743436931
H           97.70477591730017      112.28620973990417      112.88645390072924
H           97.37699636425118      111.07857613135430      110.75310852814569
H           95.71140238351090      111.65384773643301      110.66468829790746
H           95.22779201855040      110.56872777478237      112.85676498571881
H           96.86899822048829      109.93715300476252      112.90043449263025
H           94.84296847111881      109.24825191760631      110.73380076487207
H           95.10436838843852      108.30523909183945      112.20166125211641
H           97.53264601825568      108.05320345673128      111.53168213038562
H           97.11710388797916      108.77476320438257      109.97857658898342
H           95.39577168259322      106.95473081865546      109.65351191853173
H           95.91696097268797      106.24270822429617      111.18118452357602
H           98.24599668943128      106.03408516066982      110.19839107984231
H           97.57662210841013      106.54713544068925      108.64642652563418
H           95.98159895036655      104.59781944341755      108.75192013081238
H           96.77334395700150      104.07795331276552      110.23617595351280
H           98.96242143126571      103.99303603455714      108.96025351717851
H           98.05645559074151      104.31552473337292      107.48101230598560
H           96.70975042456656      102.24531680035678      107.87707685217502
H           97.62281867483803      101.94305570115625      109.35002450678586
H           99.73448888701708      101.85385598575564      107.96995742170327
H           98.74738225870102      101.99829601558996      106.51590680074888
H           97.51854096193073       99.90908952491129      107.18957659326304
H           98.57424176563752       99.76765918899088      108.59070631942264
H          100.55378790541231       99.62330386947714      107.05926982824596
H           99.46442837289771       99.71597403985213      105.67673448236548
H           98.29693783452591       97.63474358695898      106.56021402386672
H           99.52388980282292       97.55129716430073      107.81947856582138
H          100.27429265306083       96.04037457398432      106.18173155131524
H          101.26859004953025       97.47322772015519      105.92037929372827
H           99.78772691962764       98.12948545925684      104.01749391775105
H           98.76306466207561       96.72982680549480      104.34426766130262
H          100.86449624910789       95.29231095896569      104.04423507284311
H          101.64916997286259       96.72358830527675      103.37791223882918
H           99.09637569566587       95.44663570287256      102.29546521259215
H          100.71559681082780       95.13447807487211      101.68043519473800
H          100.93607657999240       97.58823699129466      101.14495291981149
H           99.24691417553774       97.79889190381320      101.60745792181190
H           98.54612872830459       96.18306119528692       99.87080197923838
H          100.23119853945352       95.85933064300710       99.47103311296088
H           99.32546035564137       97.31715692923144       97.79441394201201
H          100.51012403007385       98.22187056705094       98.73114199686867
H           98.74020865255336       99.38188869690860       99.95398885928563
H           97.50525713610811       98.34578995105409       99.23406871367176
H           98.06090809991808       99.25615205873271       96.98595044962981
H           99.29914137979148      100.28203792944377       97.70407846312929
H           97.55318639346191      101.41340584131657       99.07744914885326
H           96.31283701623462      100.41454322183660       98.31599084448624
H           97.02567074940147      101.31802905418049       96.07742864742984
H           98.15634784927194      102.38680142730611       96.90078529194484
H           95.12481877220726      102.40781391896182       97.22828086047213
H           96.06983726008963      103.53356109846642       96.25599242361304
H           97.27723280554220      104.24378794943584       98.36683135493432
H           96.15486074111358      103.23973210970091       99.28467004972958
H           94.24694684458713      104.53571067068560       98.23915621607574
H           95.43720487430122      105.62853139974575       97.53442136038326
H           96.25936119090180      106.19728914077473       99.81816817070754
H           95.10534015640435      105.05778655651424      100.50414662374251
H           93.26395818305646      106.44464039019313       99.32814034408801
H           94.50978657542478      107.65266716449314       99.03177321937093
H           93.40452484441204      108.34833180706417      101.02552089481127
H           94.93392178147121      107.65433871185046      101.56585552291769
H           93.75954299102104      105.51373075579512      102.08009607849205
H           92.24019742963435      106.21830779520177      101.53598912178650
H           92.37290710712909      107.92205574147334      103.32047839642767
H           93.91784876554101      107.26721692708469      103.85717944106997
H           91.34458599514994      105.63668980576124      103.79466994084642
H           91.88234448044344      106.54677123432762      105.20488746157882
H           93.97372606628699      105.23452124043222      105.28892565583810
H           93.46973982859058      104.32165727595584      103.86699657959960
H           91.47533880920605      103.49102986655758      105.11079658812990
H           91.99192735429835      104.40235140283369      106.52772516844745
H           92.66741173328222      102.13270823085561      106.86738847203648
H           94.13001589932738      103.06791587160949      106.55119934383589
H           94.16485215046612      102.25883878981968      104.22209036862505
H           92.65931034731945      101.37675116414491      104.48087710284273
H           93.76691371452316      100.00211442286535      106.22846624184925
H           95.27162834946523      100.87756662338437      105.97488167325614
H           93.81531277188726       99.20230705008554      103.88130306684680
H           95.18462295056707       98.64419286774552      104.84032778307581
H           95.29195811504727      100.99595771897157      102.90938801764304
H           95.75795552944375       99.35375968737291      102.49682837751391
H           97.53634368596430       99.34795184095273      104.14086445317866
H           97.04967389945040      100.91375519792612      104.77293209260948
H           98.07796948903105      100.40967345427664      101.95275641771322
H           99.04074915141105      101.02661711710681      103.29694423463188
H           96.67658411818324      102.43145967270372      101.97544908413818
H           98.37885176288611      102.83127480338484      101.81211630964059
H           98.45794265079566      103.27932807798528      104.30147761633640
H           96.70407369750963      103.08746672959231      104.34306681163817
H           96.46905984595574      104.93178255589339      102.67973593784798
H           98.21937705095178      105.13037528527781      102.66628886574036
H           98.16662831136948      105.60998490320493      105.11534705068706
H           96.40794719510897      105.48284025367028      105.09537244303111
H           96.29157697231430      107.34519809616175      103.45356320862118
H           98.04520334290872      107.50119862635374      103.49444230845781
H           96.26151727916981      107.82315455805950      105.94883340465879
H           96.77357528085450      109.16388874748658      104.92575688657246
H           99.14319504013559      108.66597905850563      105.41381561331454
H           98.65823429412144      107.30606869232584      106.43153401857697
H           97.49932379640971      108.79514639168494      107.97477575201849
H           97.78758761323643      110.17573988493118      106.92745948028285
H           99.35364350341794      110.31250545177890      108.71957217174960
H          100.24061886885558      109.91424902648248      107.24653049136582
H          100.46842970256425      107.58093713739653      107.96410956944796
H           99.42686919963796      107.87392375530038      109.35828072682342
H          101.04580107205662      109.50644635517796      110.25124847737116
H          102.10950890325694      109.23277949516221      108.87257991244574
H          101.32269942186677      107.09097977973045      110.90137258987458
H          102.79743060503542      108.04838208642110      110.95832695180927
H          103.31954005175479      107.19355397466244      108.61291805276976
H          102.02106558498618      106.01939481398122      108.82978549878946
H          103.20042206364214      105.11924414732309      110.84175082583837
H          104.47229278855195      106.32037133429800      110.61040354100209
H          104.91887428451182      105.35953807900805      108.33073454352530
H          103.69154263576851      104.13415782061578      108.63081835062371
H          105.90462821365669      103.21142034239155      108.97926302030878
H          104.98626467989786      103.20283532686828      110.48183343099834
H          107.33234003717102      103.81816568922601      110.83964402071152
H          106.24430474210652      105.10170592489656      111.34736827737341
H          106.73462571903336      106.37181953234615      109.29276599936894
H          107.75850775281089      105.05961022638567      108.69981098125254
H          109.32884332605967      105.39596005010470      110.55209442199283
H          108.21801862765655      106.51176501417602      111.33425188439676
H          108.43670714841242      108.03924101652950      109.33561562335808
H          109.70547593747366      106.98383725457634      108.71608543434860
H          111.00421092483319      107.33657241861187      110.82503139418834
H          109.75214561944202      108.43164156532029      111.40479565965731
H          111.41715781787963      108.86364417866713      108.88536400532665
H          111.73430685529556      109.60187728597246      110.45653807399256
H          109.47440873406129      110.69382797328466      110.36280116745897
H          109.25066925076904      110.03275072870781      108.74402206919447
H          111.38791019899253      111.22200874558678      108.05149722666232
H          111.37812364410567      112.02255473081418      109.62267296687881
H          109.07906317495043      112.91450592190425      109.08958705050112
H          109.20309347918167      112.17413318174145      107.49323008880447
H          111.27913530559015      113.55617736165186      107.08230846546810
H          110.99284066502656      114.37009636184702      108.62167045699712
H          108.74955531505209      115.10410646285196      107.79216632552263
H          109.06241109986550      114.28500828684216      106.26189686854468
H          111.06861723919508      115.76446140479516      105.93779404226629
H          110.60889744192349      116.66162852046428      107.38244988587307
H          108.45319414639302      117.27806449419799      106.32938624137179
H          108.82935938713513      116.26100798129633      104.93882975779071
H          110.84917012189126      117.70125733879154      104.49358709835573
H          110.31461460938493      118.78949000229682      105.76853602418515
H          108.23770889050570      119.27572143529093      104.55760034426146
H          108.58827022884681      118.01680148710452      103.37847412788557
H          110.66239159841577      119.28317068170489      102.70665226194247
H          110.15403584212973      120.60141332526817      103.75934673970087
H          108.03815739735408      120.81096248217844      102.45151128872250
H          108.54834117238170      119.47512849713490      101.42157880585881
H          110.66533044186873      120.87061104785556      100.92271601152862
H          109.81318884064308      122.22697535288930      101.65273797224765
H          108.92491749701601      120.60580822497353       99.22518563116574
H          109.60271007458158      122.23242511762554       99.19720323959473
H          107.61998917470343      123.02775745695591      100.53916658122503
H          106.93968218352403      121.40538815126152      100.42134079187367
H          107.07162141781730      121.60886531110073       97.89749732347900
H          107.52559221284226      123.29847549590802       98.10934911067788
H          105.38738345073834      123.68287892538952       99.36978864785333
H          104.94946946405041      121.99741995817276       99.10000416264512
H          105.02410801693517      122.39379603943401       96.62741959101184
H          105.39274617042919      124.09061976856157       96.92653668871314
H          102.85784379936763      122.64188765318640       97.83465769458347
H          103.22057785224624      124.33945545877687       98.14463411317517
H          102.96777956902406      123.77907218629107       96.49034450183341
H          112.85273209476694      107.20950868869355      107.78157758687850
H          113.92996307678793      105.85398606034950      107.44900609493709
H          114.30884277025787      107.45884833107803      106.82354315561479
C          106.19543105284090       99.06409115874274      116.09568767144320
C          107.32654029056319       98.14334845936064      115.65938651444246
C          108.66821276536970       98.62168810994754      116.20320692487792
C          109.81429741600951       97.67632044528108      115.85452883508110
C          111.15499936859972       98.15409082467261      116.41371728373946
C          111.26398220485048       97.96061050534591      117.92403153562765
C          112.51659807740215       98.59225465443204      118.52862867426758
C          112.47709567717322      100.11705055736387      118.49361189474673
C          113.65513816425869      100.74391559153895      119.22863150584796
C          113.64134976264462      102.27131625954382      119.18468185758272
C          113.76460788916147      102.87526754758649      117.78512532989444
C          115.02971567441422      102.43466512656535      117.05172314200884
C          115.34059208019239      103.28606829731329      115.82069445797784
C          115.59433172173574      104.75045436253944      116.17953726653104
C          116.47636705324238      105.47725157815830      115.16753076813288
C          116.63291816482524      106.96140344165389      115.49942016284125
C          117.44092914594346      107.20893683192620      116.77193037939493
C          117.24033826905593      108.62039183107571      117.31187143105983
C          118.06303731454453      108.92396528248022      118.56583916003147
C          117.90977816458766      107.90933536090168      119.70232196485917
C          116.45915036549445      107.65070652273162      120.10068838997564