3258
 energy: -3427.530054119055 gnorm: 0.000999862796 xtb: 6.6.1 (8d0f1dd)
C          110.31794807470689      108.32989350416157      111.31102975117088
C          110.28165120064274      109.85201841420253      111.26370817998767
C          111.48237213214968      110.47582401096274      111.97043096380044
C          111.40319184833480      111.99910974770434      112.00250835509070
C          112.61236788143377      112.63268561191481      112.68421553669945
C          112.51130954399369      114.15510779353399      112.73262395453385
C          113.80198482974099      114.78442451696485      113.24985820132314
C          113.70079920445765      116.28728547335609      113.51533527927450
C          113.23387533546347      117.12045148899196      112.32136854171263
C          114.13854579306908      116.98851473596341      111.09904239425632
C          113.72128740855666      117.89705436864095      109.94210884587066
C          112.37061191921134      117.51120271433169      109.33997854874372
C          112.08291792100174      118.27011298373445      108.04700550755251
C          110.73840929624703      117.90674072357415      107.41369457170525
C          109.50094719500271      118.26411277122750      108.24087127550996
C          109.38984632092300      119.75604773681931      108.55138983060395
C          108.06140867962903      120.13830490962259      109.20892332510282
C          106.89325656288780      120.17843480634899      108.22732825164104
C          105.57873832177197      120.57981455021222      108.89371251137523
C          104.42495056619819      120.57813948216560      107.89368450804879
C          103.06078615236272      120.76943138337923      108.55233979546500
C          101.92696806474761      120.60499182067277      107.54303182323093
C          100.54364188761276      120.61063141945675      108.19000219195507
C           99.45651437676457      120.23724742696471      107.18600295335168
C           98.07277660010131      120.09781579055254      107.81792367005981
C           97.07702810674063      119.48734816401027      106.83392627663733
C           95.68870429683885      119.28787865162991      107.43735445981424
C           94.72412505466126      118.59284286081990      106.47133326674258
C           94.92126207649730      117.07795921571683      106.44492993228481
C           94.08638542966388      116.36011339967466      105.38268704144177
C           94.57743441439258      116.63768323666872      103.96355461278789
C           94.00757473952685      115.66347839962384      102.93437272021684
C           94.48644612220194      115.96416061766048      101.51156860815608
C           96.00050806026611      115.84189273446448      101.36895449362548
C           96.51187746242174      116.01067587155980       99.93992285696285
C           98.03719326336227      116.08675065688776       99.94425338223841
C           98.67196758986717      116.18860587526515       98.56050267659565
C          100.17788240804074      116.41189544026356       98.68484906007859
C          100.91685915260804      116.38117963423758       97.34994250216187
C          102.40083400063472      116.68425015005961       97.54193561452108
C          103.19865337535133      116.62386931199458       96.24181792970901
C          104.63898636931836      117.08006598109914       96.45708631205507
C          105.47198664775438      117.05787925671191       95.17817452655029
C          106.86409651011910      117.63629643705522       95.41935521014327
C          107.67405304533739      117.79083603197438       94.13407113312782
C          109.05250456171285      118.41506893757342       94.36853300641471
C          109.00486991326535      119.87058345863359       94.84082701570688
C          108.68465329678828      120.86427825144084       93.72150743788170
C          108.15221577128310      122.20675283610913       94.25252931918209
C          106.68722617546861      122.46208996857381       93.88886109106592
C          105.72094740048800      121.44265655862935       94.48833278442733
C          104.27823386998159      121.69215513044807       94.04898845573065
C          103.36744319879124      120.51687408211605       94.39542759428200
C          101.91780439625079      120.74782402053627       93.97525846143107
C          101.06223490750463      119.50604944085806       94.21277691681232
C           99.60316408311571      119.70296221637702       93.81061725947788
C           98.79397050244791      118.41995554941053       93.98744588295092
C           97.33955077086144      118.58639065359314       93.55284696267525
C           96.56201558735103      117.26891469994017       93.54571322374855
C           96.25688949928738      116.73615842049412       94.94352010408493
C           95.54209940102913      115.38789521265348       94.89745891975809
C           95.17215227848297      114.88848524667601       96.29194069699901
C           94.57073232031669      113.48584861077246       96.25093571925041
C           94.18133233641656      112.94741242270787       97.62804553885709
C           92.95956203322125      113.63935736723539       98.22806452070297
C           92.51141027564748      112.97511615724244       99.52799825026587
C           91.24899396640568      113.61851014709706      100.09660379577304
C           90.81869192322998      112.97104521974362      101.41057123438105
C           89.47193919609118      113.50016548196037      101.89778698775461
C           88.96081637042796      112.78969478733673      103.15313646901238
C           89.75786433136221      113.06968874070063      104.42865798237027
C           89.67662170010904      114.52629343963444      104.87890018949612
C           90.34577392696350      114.75321766696899      106.23215613623638
C           90.28877309453917      116.21854797535609      106.65545070808474
C           91.08073827277150      116.48840518639962      107.93281578363069
C           91.13308488938333      117.97894736286918      108.26217842884274
C           92.10768777757740      118.29376640206341      109.39427117861783
C           92.22731323154841      119.79375924609630      109.65377926474113
C           93.35657935235156      120.12493021489827      110.62687971139617
C           93.42162343009264      121.62040427424162      110.92944018296680
C           94.62314153444881      122.01645631254171      111.79034179269377
C           95.93784389440475      122.05544842953012      111.01244005947328
C           97.08309553527148      122.60804752991061      111.85814461393753
C           98.38894641847989      122.70877765576073      111.07288655754022
C           99.51539743728631      123.31576483151534      111.90739648538279
C          100.85861189502832      123.27666123602484      111.18275845980824
C          101.97158763344902      123.96822812398123      111.96885623012960
C          103.31416277055384      123.86489188546645      111.24855111336267
C          104.44192477316427      124.60527954984354      111.96603335674573
C          105.70693297445750      124.63008867419019      111.11059106033608
C          106.84811177191483      125.45909841482663      111.70112983089903
C          107.60177531013831      124.76515668627755      112.83452113756714
C          108.89029956011194      125.51154411813434      113.17571833831131
C          109.78102201183047      124.76118682758194      114.16417420692061
C          111.15178897914681      125.42475564498517      114.28038525100672
C          112.11027817803436      124.69245327285279      115.21868965079115
C          113.50492636920339      125.31568593229677      115.16530853839802
C          114.57606226744190      124.53775099119358      115.93105022221495
C          114.46140449493178      124.64849287945366      117.45042529787567
C          115.64901615257298      123.97562399416263      118.13633195313469
C          115.70768377077479      124.18294096672695      119.64987648423239
C          114.49077121204319      123.66995461435675      120.41866076637650
C          114.26796469168274      122.16343229514078      120.30424523361799
C          113.02967499658641      121.74343526436645      121.09131450417419
C          112.69787994860535      120.25396543461646      121.00101073565359
C          113.69811525731262      119.38017963637570      121.75297455152193
C          113.27428591574824      117.91610026832042      121.87289441764652
C          111.99788971646382      117.72749499151250      122.69341840086237
C          111.78015298864649      116.28603717799896      123.15214837513631
C          111.69747062190957      115.28637373688363      122.00028767474616
C          111.11951414085478      113.94822549280488      122.45471990368317
C          111.13379845220634      112.90857071741928      121.33813592383764
C          110.34614165586281      111.65549661079324      121.70645214812596
C          110.25941999871269      110.67083770895991      120.54444058996404
C          109.28529631223006      109.53365032472517      120.82942117947894
C          109.10752678659341      108.60287301776623      119.63438838394643
C          108.06195650872159      107.53187642504450      119.92034887408963
C          107.82251974968105      106.59512469788822      118.74187271236245
C          106.73983892878650      105.57402371533612      119.07259290798042
C          106.48652167033782      104.59389355181189      117.93807811840152
H          107.03639910655923      105.01867572202652      119.96367217390086
H          105.81260815945937      106.10317295984979      119.30444166879995
H          107.51977245847434      107.17557294136496      117.86683805411688
H          108.75090972695710      106.07758711004878      118.49081223005055
H          108.37613210498043      106.94398278806435      120.78487456406752
H          107.11909350198420      108.02178928232742      120.17709354253545
H          108.79323283499508      109.18854170539265      118.76699842695791
H          110.06183728270145      108.13082851552956      119.39157410028803
H          109.63160425446689      108.95769361387177      121.68956394472953
H          108.31258377884073      109.96056621655708      121.08710519035994
H          109.92403926350099      111.20364097648017      119.65303992121508
H          111.25071155395850      110.26459727112857      120.33574487398246
H          110.80321272176117      111.16820705765312      122.57004019914005
H          109.33470140089568      111.95006687409287      121.99694894489005
H          110.69687140344625      113.34599263283818      120.43818688015574
H          112.16523514415800      112.63942654005328      121.10393870334894
H          111.68579289088771      113.57400244215756      123.31102240853579
H          110.08885897596016      114.10363940486720      122.78500514646473
H          111.06125286720709      115.69663137282764      121.21182973063367
H          112.68984591878032      115.12682248236860      121.57490215459813
H          112.58581498425443      115.99041829917743      123.82871659969790
H          110.84612312370673      116.24606018707611      123.71920034438560
H          112.04323050420233      118.36934782349262      123.57759754594053
H          111.13231437641387      118.03871668533360      122.10476486274692
H          113.13563626425479      117.49715704667969      120.87479815915707
H          114.08702413391205      117.36380061886382      122.35138513636831
H          114.66395110655797      119.42175846714380      121.24685033321252
H          113.83170570117942      119.79033126384321      122.75735812836467
H          111.70426240814176      120.10480982534372      121.42797423864529
H          112.66098131694022      119.94732578845493      119.95382766099149
H          113.15975359030401      122.01452935977314      122.14181830107405
H          112.17961804780366      122.31467734677506      120.71159030175957
H          114.13067118889106      121.88631707290206      119.25788670695334
H          115.14856106375083      121.63926313212701      120.67877283640259
H          114.62463894343426      123.92269266109210      121.47443315896393
H          113.59852132653897      124.19291571939461      120.07209805123799
H          116.60395055789569      123.68403444053671      120.02889570855025
H          115.81676968401706      125.25165796617024      119.85287592958335
H          115.62799061157712      122.90679442899712      117.91625364459502
H          116.57081852495550      124.37911396968435      117.70888051446472
H          114.43103966350633      125.70324642185449      117.73478728209373
H          113.53259332165423      124.18111788860449      117.77876190837505
H          114.53621673985106      123.48482846872557      115.64030026774391
H          115.55489099997877      124.92370329951068      115.63250258341971
H          113.81086552562776      125.37288237695380      114.11692415052022
H          113.45877564291318      126.33828051175934      115.54779526098173
H          111.72038536801780      124.72517503758809      116.23741824705311
H          112.17552839999455      123.64193139476008      114.92378667922624
H          111.60138144645045      125.46707181061500      113.28426527288461
H          111.02735010853415      126.45512058496760      114.62255016898371
H          109.30090158107221      124.72183732789753      115.14425799051139
H          109.90919809288172      123.73383279061022      113.81712253660164
H          109.45586037165366      125.66672792784112      112.25244134503725
H          108.64732450229647      126.49758499940727      113.57793196797999
H          106.96863713239696      124.69344314885674      113.72024696932573
H          107.85398672608487      123.74970295992476      112.52115717177224
H          107.56358167881029      125.67199223254244      110.90188161688594
H          106.45899800914835      126.41775804302763      112.05109596752072
H          106.05425767613437      123.60725866277512      110.94327942857254
H          105.44707489692613      125.04629972339357      110.13368214960914
H          104.12728026947592      125.63226484982313      112.16683541160451
H          104.64452329127376      124.12583481195740      112.92476978204114
H          103.58757928427165      122.81174457636459      111.14227015492392
H          103.20497018530725      124.27793733177568      110.24185961567910
H          101.71498560332222      125.02151261403664      112.10523596342905
H          102.05300312693808      123.52040857080216      112.96103170174229
H          101.13644129822897      122.23516687237733      111.00319343363910
H          100.75634077290614      123.76269004976827      110.20902220849617
H           99.26489188036417      124.34988775496100      112.15595840682178
H           99.60193143712893      122.76526184758207      112.84696432895336
H           98.68354617361236      121.71292834583646      110.73694125901157
H           98.22844653235296      123.32293570824488      110.18330100956328
H           96.80963334198748      123.59862196549356      112.23041728593864
H           97.23411424974788      121.96122183383663      112.72597484113018
H           96.19846963083765      121.05382556808061      110.66616874919798
H           95.80955595115265      122.69024372903324      110.13199870691251
H           94.44151285889676      123.01005217094466      112.20764058450368
H           94.71415837688910      121.32098760261556      112.62811048126471
H           93.45705216457392      122.17894939069096      109.99059967776846
H           92.50317533529415      121.90995817140451      111.44581465469415
H           93.20650512371132      119.57389119029625      111.55789325891375
H           94.30339888694544      119.79586940895776      110.19626586477035
H           92.41439460825055      120.30830955396601      108.70789016544789
H           91.28115449514414      120.17134273706239      110.04822387913380
H           91.77979398857559      117.79387448092974      110.30773118511293
H           93.09290715350147      117.89948497676218      109.13359664781090
H           91.44530911602038      118.52327658230578      107.36669689440131
H           90.13431841661505      118.33304617862836      108.52711438257003
H           90.63318965888666      115.94130516282398      108.76567784547704
H           92.09945528019220      116.11566867084710      107.80253607728709
H           90.69777500048497      116.83385661869862      105.84898953981040
H           89.24823104612476      116.51900434822311      106.79786150199544
H           89.85966261913515      114.13728479311457      106.99135861304512
H           91.39116890454881      114.44074791927980      106.16944911378486
H           90.16459567861584      115.16292918660558      104.13828870498952
H           88.62785810990680      114.82725884517220      104.93868891029540
H           89.35929269882092      112.43367374864680      105.22383559409062
H           90.80393510005078      112.79325544450128      104.28349715671209
H           87.92364938995179      113.08904277486518      103.32389453535613
H           88.96464917982344      111.71224701890945      102.96772396566166
H           89.54229305461000      114.57372568749183      102.07858499045452
H           88.73572312433113      113.35474779376952      101.10284133632165
H           90.74361577926850      111.89035675307845      101.26648895034687
H           91.58735643191453      113.15558634050056      102.16313409916599
H           91.42397319909399      114.68533046128856      100.25712347610943
H           90.44167515081926      113.52537773923655       99.36604393076030
H           92.31732868542578      111.91566174806540       99.34190297934515
H           93.31604333196981      113.03653365480420      100.26536681101169
H           93.18487009147975      114.68989061280057       98.42207723540760
H           92.13860607875141      113.60408403081162       97.50784776471428
H           93.96081694555014      111.88110385620931       97.53581819668858
H           95.02704022209890      113.05076486788788       98.31202993319488
H           93.68941806805242      113.48854170028028       95.60507688495473
H           95.30357782624030      112.80994030874490       95.80257546087030
H           96.06780365601266      114.87709662922187       96.91664394338721
H           94.46240748908886      115.58421385721449       96.74272191244336
H           94.63622116493288      115.47703474277785       94.29312296856669
H           96.19023695316142      114.65425074670921       94.41163181632959
H           97.18455424311311      116.62334967053961       95.50759626548535
H           95.62947397292676      117.45896843799116       95.47023838025737
H           95.61730679181190      117.41860442440962       93.01718652550851
H           97.13283551139281      116.52051180000477       92.99035611323775
H           96.84099531155518      119.29963625918326       94.21306299555677
H           97.32515329133993      119.00479449691841       92.54335270371752
H           99.25437882267774      117.62501353164393       93.39515396555853
H           98.83338988347280      118.11638872833470       95.03497608904030
H           99.16217853769811      120.49798034196678       94.41582759089083
H           99.55600590858405      120.01798011066322       92.76538536460400
H          101.47873289006434      118.67309268929569       93.63974610199558
H          101.10835373228620      119.23774884235071       95.27014631941340
H          101.50413722044085      121.58898432061645       94.53610786832742
H          101.88505471408153      121.01097981083714       92.91517615289501
H          103.74198222090591      119.62210919343840       93.89171909436941
H          103.40514941680196      120.33084401568856       95.46999853022724
H          103.90110049339876      122.60254333123021       94.52080977308879
H          104.25469634858433      121.85104385198559       92.96772117375691
H          106.01096027714324      120.44005393963434       94.17324664034879
H          105.78150675427221      121.47778274906689       95.57816503025623
H          106.40771785294426      123.46189097117279       94.23120351955377
H          106.58731755751045      122.45050626579773       92.80028024998724
H          108.26010009157267      122.24082741733218       95.33888880599564
H          108.74786341248942      123.02649027796107       93.84593873003872
H          109.58875867182117      121.02860828092433       93.13183467536147
H          107.94664786416907      120.42976712249178       93.04697870083841
H          108.26215827405221      119.96555940847659       95.63271500539470
H          109.97266610483700      120.13243709408761       95.27426776834159
H          109.57827928201232      117.81652409744308       95.11643538841901
H          109.63054321870938      118.36260649721463       93.44256108454498
H          107.80853769881486      116.80575937410151       93.67915289224919
H          107.11005416420474      118.39802145925319       93.42301320115904
H          106.74615522962894      118.61004472714546       95.89714588942350
H          107.40961175329205      116.99339745280935       96.11400800245099
H          105.55186557049100      116.03409297425789       94.80438999180429
H          104.96443406374033      117.64807804629251       94.41155562443767
H          104.62929563612278      118.09931172714106       96.85223186868544
H          105.11269994612242      116.44461529430278       97.20921420646718
H          103.18851595177513      115.60317218063305       95.85101208946014
H          102.72623738269303      117.26685660260708       95.49613572379425
H          102.50581297887800      117.68065606651309       97.97873952559539
H          102.82349009841865      115.97376592325850       98.25705712825179
H          100.79966693343734      115.39891168953540       96.88633721214248
H          100.48112204462350      117.11737405426973       96.66987122269140
H          100.35421842634052      117.37723993203900       99.16570900198454
H          100.59776477753464      115.64260406094040       99.33852918317992
H           98.48152966669016      115.27055724455640       98.00030512447307
H           98.22079488678089      117.01601367463086       98.00840936918823
H           98.34117413836255      116.95634406599324      100.53333007493924
H           98.43431890099289      115.20133766696068      100.44678166434082
H           96.17917157614228      115.17211018008004       99.32494727970072
H           96.10064046003474      116.92321985292452       99.50281139087174
H           96.48122566264375      116.60073917958229      101.98764523755023
H           96.31047768199782      114.86161917515049      101.73900633982861
H           94.00390824406880      115.26983903448055      100.82116437263463
H           94.17690593459986      116.97321124393254      101.23414078506154
H           94.29979390763857      114.64512048079045      103.20436485835302
H           92.91619580992413      115.71146375518586      102.96068074238835
H           94.31286772696097      117.65549366894972      103.67128152627532
H           95.66563171835132      116.55917674692465      103.95999469184352
H           94.14718820390355      115.28322284004605      105.56591355703090
H           93.03958188320688      116.65150188227209      105.47694881255880
H           95.97583973844368      116.85217153800426      106.26803296528330
H           94.66351939217657      116.67857460821283      107.42947901960221
H           93.69626216453128      118.80484503026915      106.76943046060751
H           94.86838653843409      119.00527342500473      105.47170373277318
H           95.77278391266429      118.69457270580322      108.35187378998185
H           95.28527063656963      120.26360780804272      107.71395848996951
H           96.99757756515183      120.13408919720409      105.95783549591961
H           97.46667317495172      118.52507808924835      106.49276265193777
H           98.14219809146350      119.45727258827057      108.70057940999580
H           97.71610694657645      121.07573568667109      108.14731644496612
H           99.42114664391423      120.98688847972858      106.39311093351935
H           99.72692664353447      119.28638297046000      106.71974553436510
H          100.53200545989998      119.88716229654344      109.00915011400440
H          100.33454794013132      121.59399658065361      108.61477161436463
H          101.98472250038968      121.40128979299027      106.79817370026439
H          102.06402384978617      119.65768064322734      107.01616702970219
H          102.94288148132148      120.02779137793026      109.34640303840008
H          103.00546354741120      121.75768803472926      109.01284011046218
H          104.58583669618399      121.36304923276755      107.15196813183897
H          104.42538807099815      119.62581300803389      107.35817149060861
H          105.35566789137643      119.87780289777513      109.70106709821673
H          105.67793941034711      121.57256402383044      109.34029959359650
H          107.12132591955191      120.88311598417623      107.42469211065692
H          106.76517280210456      119.19551468150753      107.76936103569629
H          107.84048901392126      119.43116513237135      110.01227952698163
H          108.16355091375601      121.12601764533014      109.66649457134736
H          110.19961678169273      120.03376339497773      109.22776484924341
H          109.51393652046275      120.32872654624589      107.62958574207781
H          108.62227345502029      117.94734830246823      107.67427841887822
H          109.50173367948757      117.69939386179975      109.17529937299204
H          110.66668080922854      118.41818120943074      106.45034951758223
H          110.72425544393005      116.83185537350386      107.21323970318518
H          112.12342520359255      119.34378293372487      108.23711995840969
H          112.87098757222178      118.04382468400276      107.32302103710148
H          112.36018303303722      116.43752898268608      109.13232196967644
H          111.58343810131359      117.71815428716322      110.06460943295389
H          113.68156074338965      118.93239151103825      110.28696733784865
H          114.48569374446545      117.84089694405901      109.16257811879156
H          115.16298001254724      117.23493845601686      111.39205580212732
H          114.13439426664620      115.95573742533229      110.74816251758767
H          112.21533511685435      116.83204911904174      112.06217019475672
H          113.20961221811859      118.16972329148392      112.62642775135696
H          113.00594084267817      116.45625425833096      114.34222615091048
H          114.68368492903529      116.64455659589811      113.83458000298748
H          114.08229542714732      114.29086693479618      114.18416215274415
H          114.60434177217194      114.59330733313739      112.53535837028041
H          112.29489629668112      114.52781164142786      111.73002365578692
H          111.67819128668451      114.44270142722290      113.37876301564221
H          112.70642485974533      112.24404324562956      113.69963748172026
H          113.52021182307135      112.35267112744823      112.14478332835833
H          111.33096137479195      112.37623285348454      110.98025530414982
H          110.49466892511595      112.30031431223176      112.52948119170209
H          111.53423206332381      110.10022249627261      112.99482665401428
H          112.39861362717072      110.16953226252265      111.46108454804985
H          110.26601247151257      110.18267596909423      110.22275300696137
H          109.36295966516828      110.20605816097411      111.73680611014463
H          110.29766510598331      107.98035042591192      112.34185537647649
H          109.46283119590032      107.90645130415449      110.78879808783208
H          111.22632879824987      107.95445777345388      110.84466164741808
H          105.70312318449770      103.89329786621578      118.21852367173179
H          106.17836271294890      105.11543040400609      117.03437435804567
H          107.39222365377313      104.03177109467808      117.71825793194938
C           96.52878586400284       98.48047553975249      103.63113845191897
C           97.95481505690887       98.36401106363085      103.10834080678093
C           98.94743967547271       98.12390034778345      104.24237687124790
C          100.37316264461654       97.84660830532884      103.76710555565765
C          101.01999843217010       99.02833806131243      103.04867981555661
C          102.50003821893071       98.78258878875570      102.77040372927573
C          103.16498291911030       99.98616068681969      102.10711457051625
C          104.65137652235030       99.76692063908420      101.82558682927682
C          105.51683357814956       99.80894659616651      103.08102775403769
C          106.97709534887339       99.47462300781473      102.78657573421904
C          107.80976345290350       99.43949187064321      104.06421686625769
C          109.25031154501880       98.99395312211961      103.82949602872222
C          110.02917967716265       98.90260929194538      105.14040848377753
C          111.47070188675752       98.44559202127658      104.92941344662049
C          112.16644732767126       98.03989425907766      106.22993002381109
C          112.33047837936357       99.16177280526300      107.25598094545094
C          113.24526369223869      100.29005454661504      106.78388032491723
C          113.59783060639218      101.24560749226333      107.92157997607931
C          114.50403628905877      102.38419423314511      107.46039896035521
C          114.86731910066878      103.33143157111314      108.60198527377034
C          115.77268761948025      104.47025999062457      108.13815185750920