3864
 energy: -5104.208901033181 gnorm: 0.000842282037 xtb: 6.6.1 (8d0f1dd)
C           36.38901553214543       40.30513144660802       45.71964508018264
C           35.03331669439761       40.17090531267060       45.44946969330888
C           34.45830059505320       38.91163634045836       45.56869478330183
C           35.22731986982638       37.81350422510184       45.91003092699678
C           36.57848724797940       37.96017584358043       46.17239934860603
C           37.15622655481892       39.21491262022204       46.09081771963643
C           34.22684557034037       41.38202209962082       45.04271494644547
C           33.45098691914588       41.09716196866564       43.75538463402695
C           33.32073536767992       41.82359426836435       46.20866012936603
C           32.98919009928934       43.32352552049446       46.18822282315724
C           32.08204115839053       43.67788931652532       45.03533453867269
C           32.54376849809516       44.48722514927859       44.00395245047386
C           31.72837933241549       44.82788695214332       42.93977039496794
C           30.42605780613589       44.36203514262634       42.89196113663731
C           29.95148956945494       43.55580763076431       43.91318740041257
C           30.77173564741476       43.21815479778051       44.97467423451302
C           32.33706037647929       43.80132059109160       47.49989748741541
C           33.24361720630637       43.86646891484772       48.74536634099746
C           32.43060296912356       44.46268009315744       49.87117916455663
C           32.00441585098662       43.66387672742036       50.92325645323406
C           31.23241211151383       44.18334138469637       51.94787754314337
C           30.88892034745243       45.52380627460916       51.94477955691409
C           31.31058842644089       46.33249086601823       50.90316112530714
C           32.06599423921433       45.80487450062865       49.87172664350658
C           34.53108575353709       44.66633448117591       48.51678010897276
C           35.38160463745380       44.80984854701878       49.78498630694494
C           35.80421002189073       43.49580024046020       50.39100940313974
C           35.99220042127607       43.41239732322600       51.76675728944907
C           36.52764420912150       42.27635936872869       52.34733107416704
C           36.84551345772871       41.17870190249324       51.56359500534176
C           36.59332322370084       41.22346626916036       50.20276527262123
C           36.10050705916840       42.37824270740718       49.61981884466891
C           36.65565909154326       45.62277645762053       49.46591026679322
C           37.31284812052528       46.23384139891022       50.70393236545345
C           36.42072071518995       47.19838104122880       51.45305013665715
C           35.37484236498351       47.89199662926307       50.85842579524066
C           34.59581643788792       48.77069781538545       51.59143755537047
C           34.86750264746265       48.99921367448044       52.92839331141820
C           35.92570953587192       48.33695500833816       53.52770424260505
C           36.68540574243605       47.44239727545604       52.79777905272152
C           38.60538369564721       46.99847183117371       50.36009918779890
C           39.72927152286186       46.18123107818250       49.70784076545070
C           40.89333963386349       47.09253933106437       49.39673718612772
C           41.56597006804173       47.77330380355174       50.40467282417669
C           42.63780317454294       48.59690494825905       50.11400087368600
C           43.07136671792507       48.73776658213760       48.80763175854439
C           42.41455991496623       48.06346675439220       47.79438707528843
C           41.32791627275358       47.25966286246710       48.08835595985336
C           40.17810236900703       45.00177848356984       50.57931275762923
C           41.22019500331437       44.12893411842349       49.86729894895665
C           40.64710406697273       43.55722527327858       48.59800431932703
C           41.22572106484753       43.84639540552230       47.36857180557155
C           40.68593971641614       43.34729773114427       46.19665668559276
C           39.56335827970853       42.53936583332557       46.23969148429421
C           38.99378563188095       42.22535869972181       47.46080059091310
C           39.52997709873231       42.73204810077880       48.62941973050853
C           41.71555910313803       42.99610374271911       50.77956960675643
C           42.73329760438777       43.49034035783936       51.81615396835799
C           44.00785867674911       43.86558987515208       51.09878961537323
C           44.91967967254662       42.90249938966359       50.68366027553417
C           46.07503296939903       43.25857421936900       50.01259798815389
C           46.33345229491925       44.58740252908869       49.72461224949284
C           45.42391205246996       45.55519619402537       50.11246115927963
C           44.27477580871729       45.19593321094999       50.79465602784510
C           42.99998629585383       42.46524279432339       52.92599883181276
C           41.78900696925842       42.12931404394764       53.81225378966378
C           41.00891842584161       43.34935296683549       54.22454896568308
C           39.68616224962356       43.50315202276048       53.83143682426888
C           38.93460365276903       44.57882767981555       54.26963504212772
C           39.49215396405909       45.51106784021587       55.12731944814600
C           40.81355640683631       45.37345262403133       55.52001673697189
C           41.56846469227706       44.31167459511506       55.05795124169489
C           42.29212446219238       41.38370400201832       55.05797111586210
C           41.17486561893276       41.04892312861436       56.05192410372703
C           40.18810336600917       40.08016963018734       55.45029051514044
C           40.58763216951147       38.83146810748173       54.98664517327661
C           39.67312458248461       37.95933368230046       54.42307467027386
C           38.34003306519406       38.31778586333702       54.31542051437728
C           37.92988796776962       39.55570878698229       54.77909600141489
C           38.84665200124870       40.42604972455708       55.34095851166474
C           41.73993282080514       40.49882990770011       57.37157674902864
C           42.52014151918318       41.55615674707194       58.19332127104193
C           42.01278348922062       41.57897941119496       59.61398563310159
C           42.23974560505771       40.52335686197180       60.49043589099286
C           41.71594405255112       40.53784166267820       61.77093352946716
C           40.94662644370586       41.60818674872867       62.19319212890462
C           40.71510936574337       42.66833106796695       61.33384303390853
C           41.24959942139813       42.65284013233464       60.05787859848226
C           44.02741209155608       41.28625429737189       58.11449800354168
C           44.89811226247159       42.27087172953824       58.90361223942503
C           44.54724080241605       43.71822002254746       58.65329218856979
C           44.56318120778598       44.25768888489218       57.37156284477535
C           44.29925975396184       45.59941094857990       57.16295489129684
C           44.02721028093497       46.42938322933968       58.23663280965577
C           44.01620382413765       45.90766298347345       59.51775773952748
C           44.27000627864745       44.56251254002107       59.72110487520202
C           46.39208509478899       42.10575389315942       58.56250299938218
C           46.97106395607866       40.68106177793476       58.62832378688247
C           48.35423301332875       40.70935709442860       58.02742937320292
C           49.34192900831473       41.53146643998850       58.55815403333440
C           50.57686524807146       41.63614227387994       57.94843893617173
C           50.85446248164288       40.91144115509199       56.80298217392355
C           49.89008497398999       40.06743474788609       56.28263122913693
C           48.65062525529803       39.96864677162375       56.89067501696638
C           46.95791870828898       40.11929905245144       60.05472343289122
C           46.85171872830283       38.57915048979147       60.10981415642510
C           45.85137195930283       38.22569613365281       61.18290347700466
C           46.01683996032337       38.69416382123033       62.48335303374242
C           45.04900751142348       38.47685335493401       63.44564627805739
C           43.89662025058151       37.77760386299998       63.12915482028644
C           43.72361789967270       37.29716985173432       61.84299114592489
C           44.69229654895980       37.52285717152441       60.87931776145795
C           48.21962500699985       37.91434722019234       60.32584980879091
C           48.23799689443388       36.43374484110405       59.90907950137409
C           48.13872077631876       36.28880603902874       58.41038612900363
C           47.04124033341301       35.65833520973148       57.83709657379195
C           46.97901969616757       35.43557489839046       56.47249481170685
C           48.00876943867519       35.86026145751033       55.65343839696575
C           49.09371994956126       36.51583589115889       56.20788456063520
C           49.15966396140411       36.72721847891380       57.57318425074603
C           49.51607665776032       35.75016029067449       60.42792235979881
C           49.68532186315478       34.31225437672960       59.91202223225170
C           48.52532102150232       33.44314199319972       60.33568409141456
C           47.66816647474573       32.89838746516867       59.38749486610546
C           46.60613807831944       32.09534251134053       59.76398199195770
C           46.38616533791209       31.81506334516524       61.10136603837024
C           47.23807000360176       32.34278946731364       62.05581862581273
C           48.29430262846334       33.14861468270306       61.67371536323269
C           50.99906973131274       33.67429768269255       60.39889319892134
C           52.28584420421787       34.23412241366903       59.76505076342452
C           53.45976783735081       33.71755351484190       60.56384917319578
C           53.98463445801317       32.44418634626196       60.37483156268510
C           55.07341726187912       32.01146092831856       61.11108423149836
C           55.64186590853738       32.83478601010539       62.06890559081062
C           55.10611016957764       34.09123830771178       62.29455474631546
C           54.02910174902892       34.52374884179385       61.54189731710164
C           52.40653943657784       33.89243454329156       58.27513261390280
C           53.73883884695697       34.38307387446207       57.68758186906950
C           53.77821816236199       35.88936151603554       57.65916765668327
C           52.92121139899771       36.61050604870769       56.83616968203739
C           52.96434461343025       37.99206837501337       56.80586287147888
C           53.86584819215298       38.67734267151611       57.60180432493591
C           54.72849734804331       37.96705650095738       58.41660847555133
C           54.68697665367348       36.58474950991947       58.44484651587652
C           53.98604740406484       33.83838278175627       56.27335368810528
C           54.45991218092332       32.37583853475740       56.21941465630379
H           34.93381253642825       42.19482120803395       44.83711117058061
H           32.40165519719811       41.23659998994473       46.19555485442468
H           33.83877672731121       41.59948963406782       47.14330547945620
H           33.92657635520975       43.86906604178352       46.04487410240542
H           31.92499263526125       44.79820879738376       47.32605624027016
H           31.49565951821689       43.14711131829159       47.73957680372321
H           33.51934802738772       42.84720052292160       49.03314616045417
H           35.12835093065261       44.18355982392166       47.74303616504950
H           34.27059130628491       45.66635428786579       48.16537552303073
H           34.79429843584057       45.35406653935701       50.53226564096481
H           36.41940978647733       46.42100553469273       48.76080901124590
H           37.56849560353543       45.42407838198581       51.39446096968793
H           38.35552582050179       47.82372874407982       49.68813583815508
H           38.98266822578638       47.43146094588307       51.28881537899239
H           39.36177148721440       45.77870197272110       48.75978348457921
H           40.58878203249294       45.37713808095531       51.51785628895117
H           39.31445614551797       44.38314049857802       50.82616573625808
H           42.07677805669245       44.75586088337766       49.59771168912005
H           40.86238961255800       42.54184704628375       51.28343154073914
H           42.19249665603063       42.22902931080515       50.16253141225022
H           42.32957429749314       44.38997425493450       52.29201257207468
H           41.11524071224493       41.46122156345061       53.26384642835841
H           42.79984569979590       40.46833212413324       54.74737336640781
H           43.02403463645268       42.01437352209010       55.55984685073580
H           40.63451337001617       41.97327584911650       56.28644878037159
H           40.90017890238419       40.13047408943321       57.96663118489784
H           42.38408323990933       39.64370177667097       57.15853783823195
H           42.32386054182529       42.54389788555753       57.76254826448629
H           44.21775178889724       40.28273625545173       58.49758138234994
H           44.32239382560962       41.30405151720110       57.06636951110418
H           44.74283156478031       42.07563704395829       59.96926432286413
H           46.55338927363429       42.47865932673576       57.54751587708286
H           46.95806820622941       42.75144642937196       59.23737932764742
H           46.35347848068621       40.03373518582906       58.00261582524642
H           47.85014118496497       40.44532834775877       60.59160425491446
H           46.09304528777854       40.53259210197154       60.57504267715752
H           46.46463282660501       38.21852471910306       59.15009226650928
H           48.96448821627331       38.45046016644992       59.73345897344863
H           48.49533543207435       37.99203426948475       61.38049933939660
H           47.37581728500677       35.93108164507466       60.36433103971903
H           50.38051062072828       36.33975453098175       60.11836014019406
H           49.48418117228486       35.73969091075218       61.51954196248872
H           49.69754302052772       34.34215435528592       58.81877356406464
H           51.07180014647727       33.79884220666802       61.48222551433701
H           50.95568090638054       32.59926458443903       60.20208816359515
H           52.27944666774921       35.32528149197118       59.85755719543312
H           52.31326331884279       32.81447294753935       58.13344834092097
H           51.58367331484976       34.36492932627093       57.73587793416199
H           36.84689884496630       41.27951629405634       45.62991769061277
H           38.20541546743694       39.34396194551479       46.31940628113252
H           37.17713104718710       37.09963944573649       46.43534049024151
H           34.76570506807196       36.83885108241357       45.97528733759669
H           33.40202782316580       38.77580871795115       45.39011154005604
H           33.56297777844514       44.84518569393904       44.02959406774779
H           32.10772108937353       45.45473380794829       42.14529127564791
H           29.78383219730013       44.62379555259039       42.06334780404380
H           28.93527847470533       43.18820166017444       43.88114272270933
H           30.38353156220075       42.58717389143754       45.76068432488267
H           32.28375080117510       42.62121595529757       50.93710928078207
H           30.89056498621384       43.54763467035448       52.75477364883007
H           30.29567215398269       45.93122722382180       52.75075660561468
H           31.04364084663946       47.38001761903363       50.89064260833773
H           32.36824652310439       46.45347684635207       49.06243166387868
H           35.71801006749144       44.24990888430889       52.39295561207219
H           36.69807934550754       42.24902470770422       53.41400633463599
H           37.28574923870596       40.29949916747228       52.01439636192131
H           36.78895361223481       40.35777155894094       49.58360337487450
H           35.95818430737014       42.39696086775888       48.55014797611365
H           37.36748973838741       44.95465164063336       48.97704080044925
H           35.14247550684482       47.75075242072560       49.81489674123232
H           33.76710644569120       49.27130698527934       51.11001817006928
H           34.26157761709322       49.68421981871366       53.50581802657030
H           36.14954398728504       48.51628432509818       54.57069522787763
H           37.49971030046954       46.92035746012375       53.27958403701508
H           41.26090918946710       47.66023646410294       51.43513036555704
H           43.14037537990806       49.11915639456135       50.91704268083943
H           43.91955403824167       49.36733936367413       48.58003915052764
H           42.75051325766139       48.16123843967194       46.77118948909462
H           40.81250637811074       46.74923314385939       47.28779083032339
H           42.10306754571884       44.47778271137649       47.33079008394019
H           41.14213521284641       43.58787325306420       45.24768150060907
H           39.13852832894601       42.15289302135700       45.32473544092707
H           38.12748771719282       41.58410639626786       47.50988013383679
H           39.06608384850236       42.48468796865560       49.57338499376101
H           44.73477382396963       41.85764591395964       50.88530854036574
H           46.77754541064253       42.48757320748474       49.72719667154286
H           47.23373934188588       44.87011782786524       49.19856058237370
H           45.61243107862866       46.59524554346743       49.89192644276326
H           43.57438469390052       45.96517549072325       51.09094534641194
H           43.36457301880837       41.52868141233649       52.50005843896558
H           43.79248063891280       42.86932042114060       53.56024726724484
H           39.22784001396240       42.76268451630645       53.18985319403377
H           37.90328891826303       44.66888348186412       53.95980191328323
H           38.89955962426476       46.33487313764865       55.50123656643034
H           41.25587456442221       46.08138394988382       56.20688884828878
H           42.59745870591825       44.22582144389904       55.37042470842015
H           41.62429119239075       38.53321186161848       55.05924115687057
H           40.00193688733972       36.99435586971528       54.06212218630152
H           37.62358331238857       37.63920222133667       53.87212092349787
H           36.89149989394311       39.84267434487032       54.69403611877977
H           38.51796037254238       41.39511817694323       55.69154215677914
H           42.82584778111517       39.67112504360855       60.17771483303459
H           41.90827251697011       39.70688635202601       62.43537344938164
H           40.52252472355564       41.61311680174502       63.18744229969123
H           40.12050065339662       43.51024063923084       61.66037449711852
H           41.06826301942422       43.48569063856758       59.39211650157942
H           44.80039117774862       43.62967048055459       56.52388672120392
H           44.31823320603073       46.00232320084494       56.16056467383385
H           43.83743247237651       47.48116043807524       58.07696519418147
H           43.83092714947771       46.55153815803499       60.36506796851698
H           44.26623878506835       44.16590228845246       60.72765769732219
H           49.14749703054554       42.11419475257633       59.44655928530751
H           51.31900248001808       42.30202762047284       58.35971129548669
H           51.81638225398436       41.00932664043972       56.32214557890460
H           50.09359810062874       39.49225593250338       55.39052036926218
H           47.90596685655528       39.30566206762060       56.47198606056363
H           46.90700348305867       39.24424669618902       62.74900882235816
H           45.19442469569974       38.86098353705160       64.44541881456225
H           43.13732535965392       37.59833134538851       63.87726768475339
H           42.82324606437471       36.75527808191750       61.58899871572663
H           44.54109466271617       37.15138315161194       59.87370655395622
H           46.23592235950260       35.31442998077318       58.47336563451858
H           46.13239455800601       34.91506033027481       56.04777401382043
H           47.96878419106741       35.67471743432218       54.58978354531278
H           49.89785695396973       36.85263479914678       55.57005798436465
H           50.02428977791621       37.22702507035412       57.98556365943423
H           47.82570280815665       33.11322366314523       58.34015871945288
H           45.94788709921797       31.68583013797030       59.01017563413353
H           45.55762638245458       31.18797574320678       61.39858684198898
H           47.07573908938840       32.13156670538349       63.10271714408441
H           48.94324505377350       33.55017025019740       62.43616898018349
H           53.55285329003160       31.78124399800771       59.64027767672516
H           55.48035029747353       31.02424816587408       60.93917767557336
H           56.49522372514128       32.49467273482460       62.63747532530872
H           55.53246248334489       34.73064369634577       63.05558439068037
H           53.62133210769456       35.51047219534905       61.70372302100373
H           55.37006107061305       36.03856966720111       59.08224458645089
H           55.43861974926318       38.48938329954827       59.03692500985665
H           53.89764681871836       39.75707181550636       57.58942218555357
H           52.28922389865010       38.53298798446950       56.16070404454916
H           52.21522394802015       36.08827941705189       56.20707801139131
H           32.67827745736563       40.35015636996756       43.92011756621087
H           32.97078538510464       41.99741540495835       43.38336845220548
H           34.12456626703278       40.72418547099925       42.98458053834727
H           54.55010109911683       34.03974822647012       58.33574631942068
H           53.06823528725624       33.92625898389512       55.68811602772609
H           54.74408363175250       34.45744124524957       55.78639032132028
C           55.90754988581553       32.24867145050153       56.70305945852484
C           54.28442154909710       31.88927749464986       54.80189273293377
C           55.14800918660184       32.28668413269385       53.78674711927616
C           54.95167291518083       31.86370573483249       52.48479046734955
C           53.87714945204181       31.04834947870253       52.16848113595385
C           53.00373247431757       30.65792852869999       53.16851455530097
C           53.20889643752539       31.07403423375962       54.47185626126100
H           55.98501611955321       32.93427246041765       54.00560577846006
H           55.64017137697475       32.18103599184516       51.71511621122869
H           53.71482374535079       30.72067515614748       51.15027991643412
H           52.15884362121847       30.02721527454949       52.93320897510285
H           52.51739180169925       30.76233797417938       55.24265691117116
C           56.46284565578097       30.82588712944031       56.56639630717428
H           56.54083396873229       32.92995000798953       56.13297376999858
H           55.97085319818324       32.54789145370508       57.75095409403206
C           57.93623056434346       30.82619999363983       56.85413866470100
C           58.82774938662786       31.29628081483106       55.89493502904062
C           60.18355691937235       31.35981433597427       56.16007265647008
C           60.66892585630684       30.94548938012872       57.38920058861600
C           59.79320321944084       30.47312128510073       58.35041154157631
C           58.43552866757636       30.42011759350780       58.08448647037677
H           58.45075634602485       31.61544731138496       54.93298924244031
H           60.86517385235980       31.73683214543383       55.41041019559957
H           61.72647291196545       30.98949213155150       57.60053201820200
H           60.17050472512970       30.15491789694273       59.31126728523823
H           57.75565222795871       30.05653189078647       58.84235810287566
H           53.82070967457610       31.76597438341126       56.86670486889071
H           55.94119189135758       30.15803593597480       57.25501889792245
H           56.28845877128988       30.46914138484380       55.54838286064632
C           38.38947254377439       36.42418113007781       68.59502260514969
C           37.93651018021971       37.64026346127071       68.09928519067452
C           37.59359203867202       38.63756725042319       69.00481325301753
C           37.69819879246531       38.42326879592247       70.36663516901955
C           38.15181020196643       37.20724552234701       70.84920029491012
C           38.49861792957516       36.20696555569332       69.95759194004012
C           37.82468785119983       37.86608184189083       66.61331653770334
C           36.38247766769018       38.19042256941481       66.21824417552381
C           38.77709801442234       38.97919352103242       66.15899925823774
C           40.24598486925427       38.60840894461564       66.39250017538826
C           40.62354173538549       37.34973629256574       65.64935143458280
C           40.38494203622069       37.20559731896719       64.28663021765411
C           40.74570294430919       36.04485837963742       63.62572924593288
C           41.37022031049255       35.01545538928651       64.30914100296896
C           41.63371252603984       35.15614094925805       65.66061539285367
C           41.25764139685520       36.31172209627006       66.32173449434697
C           41.19578828901492       39.75422461757267       65.99002072653795
C           41.63100124178323       40.63456232062828       67.17202873547770
C           40.47983504604432       41.39066077012131       67.78110576957808
C           40.08875334614991       41.13365859964600       69.08865180257121
C           39.05339119634457       41.84131867022612       69.67430749537621
C           38.39219283810281       42.82556026528913       68.96010959456444
C           38.76812859773396       43.08747796586720       67.65294787046396
C           39.79821798741002       42.37314982913930       67.06985298910379
C           42.73862737144417       41.59100091707322       66.70598033887413
C           43.22820075419667       42.55364806028732       67.79285979095373
C           43.56738705599742       41.83802774608043       69.07672506146984
C           43.03147017173671       42.27537257639833       70.28110692605496
C           43.35964885352026       41.65414293372316       71.47314953884297
C           44.24094753843558       40.58679859819563       71.47971387143352
C           44.78962736552324       40.14770062417602       70.28671509490636
C           44.45306310716234       40.76632571456066       69.09683068853374
C           44.48190807475163       43.32626760385304       67.34711511646297
C           44.27341602571950       44.35129103814111       66.20576572200908
C           45.00737109997620       43.88729211599384       64.96657120323503
C           46.34230292693577       44.21093028679201       64.74997947577413
C           47.01981858022569       43.73486137886340       63.64200897239446
C           46.38548805864819       42.90033339975513       62.73851962470276
C           45.05715717832161       42.56976414484648       62.93946796416543
C           44.37599169193106       43.07416906519388       64.03193499402181
C           44.74335918205087       45.74728684840105       66.63679739254863
C           43.81457200103832       46.42596408866379       67.66019002907774
C           44.62354582666694       47.38965562344077       68.48998251176647
C           45.23633699349783       48.49573829799412       67.91361870894954
C           46.01783641482876       49.35031238050285       68.66919380618427
C           46.19962973587019       49.11235679859205       70.02112057433952
C           45.59807770069312       48.01203220958482       70.60718417766762
C           44.82055650790121       47.15711478550441       69.84530977764376
C           42.63754739458155       47.11258232467791       66.95555685467751
C           41.73025436626924       47.92147612954796       67.89651418981309
C           41.45298878192697       47.19112802297028       69.18617066330454
C           41.71193271840195       47.79958447417120       70.40730691970226
C           41.44110566736600       47.14996138579839       71.59910613388412
C           40.89914211863312       45.87656468015711       71.58730320804744
C           40.63036155828920       45.26074239466629       70.37639948113464
C           40.90616091949038       45.91222275878123       69.18821002367265
C           40.38062848615758       48.23842625840697       67.22864041367254
C           40.48659832836324       49.07684477932494       65.95439972315815
C           40.97253958043772       50.49218913004844       66.15622742375706
C           41.65399929917388       51.11309997810487       65.11369274833022
C           42.01643306680914       52.44425065623728       65.17960980825421