3258
 energy: -3427.509845664280 gnorm: 0.000858532467 xtb: 6.6.1 (8d0f1dd)
C          113.72859298525341      115.35292430401412       99.15307211242434
C          114.43966167217097      114.02196047267337       99.36156176143940
C          115.89120876035599      114.21202404554440       99.79230578892425
C          116.59792553216002      112.88398724434232      100.04339415584251
C          118.05124886886716      113.06531095012629      100.47500144989078
C          118.70062547100164      111.72683590923909      100.81357273069382
C          120.19432892004458      111.81054846330457      101.12743792631593
C          120.55808247373386      112.70324500497537      102.31423811597159
C          119.88740443927819      112.31243352729120      103.63077659468554
C          120.40213131773184      113.18866946366821      104.77091116487685
C          119.61376463542065      113.07206376440078      106.07502941083519
C          119.82922883603018      111.75489983153362      106.81601655817590
C          119.15890514625026      111.76993339176657      108.18833610758308
C          119.45545112573484      110.51196904873956      108.99906984293840
C          118.88477262730841      110.56104172881405      110.41706574086406
C          117.36510667204313      110.43657589872457      110.46643580913370
C          116.84551201807901      110.24946037978751      111.89058670044922
C          115.32627321560967      110.10800239690690      111.91669672089424
C          114.74357231334020      109.94321663220998      113.31832243254017
C          113.21794134302689      109.87016081539311      113.27790695017285
C          112.59204842173249      109.70760072089672      114.66196389829014
C          111.09457037864443      109.39562196276887      114.60292793227553
C          110.21849431582352      110.61606601411100      114.32663352339947
C          108.75527456218359      110.22571700139446      114.12396807255908
C          107.82980028813202      111.43782778459008      114.03300584278523
C          106.40491654062538      111.05034210669905      113.64104137581337
C          105.41651795322639      112.20831508319360      113.77112854723927
C          104.04270684219586      111.85106910027663      113.20814259881344
C          103.04571727744749      113.00304899474664      113.30890263843349
C          101.68004574115021      112.63312735782883      112.73298867167188
C          100.69283309835184      113.79825505461874      112.77844131005541
C           99.30955886753179      113.42552896550897      112.23726116483004
C           99.18935231873454      113.46340325850602      110.71148139745620
C           99.02813186058162      114.87760643591160      110.15872723344005
C           98.75937005768489      114.89678714419824      108.65395442516736
C           98.59175913102145      116.32601298385042      108.14425377042519
C           98.33851773777516      116.43164501164590      106.64021294027440
C           98.29621188758678      117.89735716475285      106.21138189568882
C           98.12111748204579      118.10525247787622      104.70944812403026
C           98.24675360178823      119.57691796822449      104.30040526501487
C           99.66707476544050      120.11715251306698      104.45641741787698
C           99.82858588580734      121.57026558205136      104.01186042289201
C          101.28753075788673      122.00242081635955      104.14592032149882
C          101.56014284206680      123.45157259336369      103.74815173775291
C          103.06180723695068      123.73806751238845      103.76990292508361
C          103.42160610619896      125.13777782855330      103.27752304946891
C          104.93219681195745      125.39243113979225      103.22905066142100
C          105.66112122603981      124.44262718504736      102.27872480747745
C          107.11344407779873      124.83189416005079      102.00449821551410
C          107.77445727231495      123.80488829875142      101.08560922758973
C          109.18158674604811      124.17451593671608      100.61710021653793
C          110.20580507599188      124.27209922355284      101.74850067493833
C          111.63497208104066      124.14642789878314      101.22230133733090
C          112.68578700723525      124.34286082034609      102.31312176469426
C          114.09746024687452      124.03832999967341      101.81527126075581
C          115.15842968679736      124.35626332589317      102.86802712702328
C          116.56746803766663      123.93222957018219      102.44176934804770
C          116.84166021716668      122.44006169138729      102.64449670751604
C          117.13816340394298      122.09027137085171      104.10254311945121
C          117.18367016381420      120.58145505022617      104.32715930628147
C          117.38870942792325      120.20371045137659      105.79292605883593
C          117.06790769134911      118.73489448897368      106.05689745961224
C          117.16281284023835      118.36691096346914      107.53468648290935
C          116.90337832190637      116.87990611358245      107.76021735130625
C          116.92859761022018      116.49581556817640      109.23769732241050
C          116.93885996465396      114.97953183250590      109.42160993477280
C          116.85258050125130      114.53325302238657      110.88855820888836
C          115.49322442627391      113.94713013218653      111.26808834995549
C          114.35390393808281      114.96119020592162      111.26407688468578
C          113.00509515474707      114.29395029765730      111.52198453035091
C          111.86129265236906      115.30219596182208      111.58086644691234
C          110.49526151793012      114.62361929600276      111.61445713079239
C          109.35586343101812      115.63860023265624      111.59708301134152
C          107.96954173019857      114.99462680981446      111.59218912924018
C          107.62873598651848      114.29658535216558      110.27748941953733
C          106.22438511596428      113.69691312653728      110.29075104322588
C          105.82874551187821      113.14245909190566      108.92566436037890
C          104.49799922120874      112.39179445560944      108.92429599477508
C          103.28410549653314      113.22362769553837      109.33914913132244
C          103.00239045158189      114.45639312033120      108.48281742477113
C          102.60160623446437      114.13323750793606      107.04690789400209
C          102.25536714072722      115.39726520010944      106.26539011103957
C          101.85263697116096      115.09630130420508      104.82470820236311
C          101.73301009121239      116.36567998407882      103.98700319920067
C          101.26050125810858      116.07911568272831      102.56485483685040
C          101.29434725898304      117.32655563780496      101.68320110850097
C          100.95266663769581      117.02641446462559      100.22318347803716
C           99.45700379965474      116.82024401193574       99.99468979096474
C           99.13030364586881      116.20380357801338       98.63318414929714
C           99.63888331727708      114.77273043062469       98.44083779488656
C           99.02632569883826      113.77730225995603       99.42336676785798
C           99.50198036718849      112.34345608883150       99.19376616145574
C          100.93677647253159      112.07311444066210       99.64813449103981
C          101.11390392884881      112.06602011268915      101.16599072498892
C          102.50233078361163      111.56464754969402      101.55472935590272
C          102.67695852305135      111.37247839531277      103.05870154223577
C          104.00143134241181      110.68370593514848      103.38037610729387
C          104.17002896422743      110.39277111779154      104.87009453649385
C          105.36126672693796      109.47904136031322      105.16698814289413
C          106.72781200809628      110.10639892099229      104.88560322243488
C          107.13570379382901      111.13753111300757      105.93317935181102
C          108.43869668207607      111.84167371028791      105.56864632723725
C          108.87191537790558      112.84562852777809      106.63229684782517
C          110.07520833614873      113.66677020094633      106.18664411340828
C          110.52284232435412      114.67722563010172      107.23951676848043
C          111.51454943394089      115.68321110870116      106.66231806510299
C          112.01031944924820      116.68277234924214      107.70389988989118
C          112.68037146058593      117.89264952528798      107.05869739503844
C          113.12496950495563      118.92597366902717      108.08895757143590
C          113.58899745800365      120.23119723089592      107.44694661035967
C          113.96085645451345      121.28070610322234      108.49220916188645
C          114.63683515308205      122.52344609508083      107.90976539659526
C          113.83501135978617      123.26131652747434      106.83792188716625
C          112.54583094757956      123.89323928569047      107.35693448597770
C          111.83969304105052      124.68217254419145      106.25749894814197
C          110.59991856100797      125.42088718567274      106.75399133230120
C          109.91650022508459      126.18360763390143      105.62125592630763
C          108.71579610339906      126.99912939088168      106.09277431024242
C          108.04767021798195      127.74380448298149      104.93949354002243
C          106.82304829238987      128.52549569609786      105.39703870540332
H          108.76901403087021      128.42836415444094      104.48580611045612
H          107.74762410755912      127.02521417259791      104.17363219364157
H          107.98448595013051      126.33761627444841      106.56195461686258
H          109.03924646453467      127.71766438234125      106.85024759288063
H          110.64258394953174      126.85431168767452      105.15367620072274
H          109.59009440112614      125.47372633712634      104.85661689462219
H          109.89839266923855      124.70418530798122      107.18780883203928
H          110.88514745965938      126.12122543902780      107.54333100171412
H          112.53809410351731      125.40711161807324      105.83033528497531
H          111.55151020549681      123.99868242529256      105.45502838089087
H          111.87392157051610      123.11923112378834      107.73213317943619
H          112.78169103955931      124.56219248165780      108.18881505070767
H          114.46701068366971      124.05574357348537      106.42858058215572
H          113.60029445677286      122.58072520468276      106.01700436407009
H          114.85193902046521      123.21894737942053      108.72533832196814
H          115.59724212876803      122.22991257238517      107.47689332200443
H          113.06532732414844      121.57314935883495      109.04292452690704
H          114.64867353616032      120.82972935007500      109.21373119445454
H          114.44889535327415      120.03452163966936      106.80367107402120
H          112.78307536794483      120.61682088943454      106.81918792915492
H          112.28368542777092      119.13994746901371      108.75271188403282
H          113.93054988219335      118.51041454554246      108.69996298478405
H          113.53942102999470      117.56803611243410      106.46619638270366
H          111.96569481094775      118.36003351363358      106.37740247694956
H          111.16002970740428      117.02788200941846      108.29931414041306
H          112.70818944629670      116.18807397779584      108.38360647436618
H          112.36778024798048      115.15310308686757      106.23126811150718
H          111.02438166615617      116.22851595475998      105.84949520490996
H          109.64878784838261      115.21472814321426      107.61482805050352
H          110.97523401477311      114.15967330486829      108.08900584464925
H          110.90388844606862      112.99514131080797      105.94557739490727
H          109.81177968374028      114.20108861590397      105.26995389158934
H          108.04528977026496      113.52433419576853      106.84847635562195
H          109.11207199613125      112.31525356074066      107.55632048321816
H          109.22862654972459      111.10011502337601      105.42653430423270
H          108.30468601068989      112.36429343987604      104.61805230775462
H          106.34799159397565      111.88584009713405      106.03614888164405
H          107.24725943965231      110.63875159862593      106.89931564266521
H          107.48314102478598      109.31609449611133      104.86562702857660
H          106.72412836763378      110.57042253794383      103.89761709101018
H          105.32486216318756      109.17717020127517      106.21720176481109
H          105.25657096553279      108.57382741137755      104.56296495275525
H          104.27031428078774      111.33236276747166      105.41745191033056
H          103.26389039947153      109.90107869170646      105.23449027502683
H          104.05110662115996      109.74111904692221      102.83003492181786
H          104.82236572700489      111.31213367618678      103.02734438618080
H          102.62787706943378      112.33925579368203      103.56506598686654
H          101.85269801638123      110.76333596511174      103.43765773695198
H          102.67784575818118      110.60458014599617      101.06197964514779
H          103.25804736349274      112.26278692081283      101.18301575030027
H          100.96285047023214      113.06794193194069      101.57064884525126
H          100.35939008627696      111.41261880586995      101.61095342500379
H          101.23273845753232      111.09232965730205       99.26379669241791
H          101.61062605692274      112.81022028345917       99.20555646655117
H           98.83734558499684      111.66022111374116       99.73011776924621
H           99.41853811596211      112.11360573536463       98.12726256334845
H           99.26874311758495      114.06457151017698      100.44487388090458
H           97.93899137885583      113.80920750144837       99.31774690150401
H           99.39374375289881      114.45817422130720       97.42213982724280
H          100.72578394772763      114.75784186397669       98.52648355029373
H           98.04441362208082      116.20735079869645       98.50150579922355
H           99.55674910391410      116.83476965402355       97.84807438018650
H           99.05135844093957      116.18587478747601      100.78184095913366
H           98.95078893847661      117.78672980398187      100.07091108719688
H          101.29529134161575      117.84914279997386       99.58882177996225
H          101.49732346211523      116.13060613352980       99.92200478669460
H          100.60013904882879      118.07570319429796      102.07189388899094
H          102.30036564075881      117.75257495646041      101.73171986609302
H          101.90959826149147      115.31800270928322      102.12209691468148
H          100.24737898072894      115.67142433905919      102.59913862880835
H          101.04263590297481      117.05800968737995      104.47342794118933
H          102.70776275360505      116.85615312263734      103.94403779573479
H          102.60346650714609      114.44332090317563      104.37075249202630
H          100.90090650561153      114.55860473824526      104.81657317133863
H          101.44388972675752      115.92799615784675      106.76777162551893
H          103.12156583689330      116.06419815663396      106.26232663785433
H          103.41958424102745      113.61635606045249      106.54055871714361
H          101.73867790098103      113.46298989313458      107.05163133549047
H          102.18477437479356      115.00982971677932      108.95199922031100
H          103.87660659105286      115.11072661084467      108.47598627734483
H          102.40509337548743      112.57446577687315      109.30815831536633
H          103.41854528528665      113.54713994593713      110.37178237716861
H          104.33181565528751      111.97900097947880      107.92594017140226
H          104.57601045338109      111.54453049504006      109.61249865259775
H          105.78634029892656      113.95818881659685      108.20107121928100
H          106.60668685531469      112.45134037150258      108.59264463712289
H          106.18673376748036      112.89065033128141      111.02494499510911
H          105.51220969263412      114.46486313044835      110.59834500787099
H          107.70467186851245      115.02238074480555      109.46304059613095
H          108.35181462884663      113.50429193021353      110.07636602974122
H          107.90479785833163      114.27785655076676      112.41493036200154
H          107.22320813524121      115.77132683157390      111.77596522283660
H          109.44549478042961      116.27999519287314      112.47893881722533
H          109.45911664279129      116.27735358374566      110.71546814154600
H          110.40984793588702      113.96458529362503      110.74791829200851
H          110.41664220891614      114.00558170311118      112.51303896404607
H          111.97776714458806      115.93187255622702      112.46667548937856
H          111.91183502023343      115.95442342325057      110.70540205279788
H          112.80457840706922      113.57581781256971      110.72105724941542
H          113.04724414870684      113.73617149315918      112.46080205787291
H          114.53910000819124      115.71834109793562      112.02947136854029
H          114.31490766632278      115.46863836372111      110.29777896864317
H          115.25691852185045      113.14117689180303      110.56797437610352
H          115.56476808044823      113.50476644464798      112.26419121110317
H          117.60784448670174      113.76584475423107      111.07419475631605
H          117.08013296634789      115.37646340138738      111.54539374862583
H          116.10726345740208      114.54666574682183      108.86190598184288
H          117.85675520119072      114.59143540671251      108.97276998383242
H          117.82195504557990      116.91926804747079      109.70473915159917
H          116.06250971148981      116.93020378371673      109.74202707761081
H          115.93222717898814      116.61154520678156      107.33519078716763
H          117.66312221912889      116.30149898258691      107.22638786557867
H          118.15646649480742      118.61940305837034      107.91041348140701
H          116.43725470933576      118.95436096171838      108.10250721625349
H          116.05272531336951      118.52775156866841      105.70652783478438
H          117.74690196779636      118.10392979995682      105.48091518285624
H          118.41870925576822      120.41749371572266      106.09081414468776
H          116.73750224366113      120.82366091534328      106.41385720358298
H          116.23966424148516      120.15490253058354      103.98110287326034
H          117.97964814748232      120.14319941639562      103.71980234257137
H          118.09027503884096      122.53926239184311      104.39771341341138
H          116.36263898146150      122.51613898650702      104.74315324833280
H          115.97852062035682      121.86377747506185      102.30481727987096
H          117.69427842882639      122.14388061884381      102.02847269626420
H          116.70384461715803      124.18741960223483      101.38800594473160
H          117.30538551564936      124.50127356754798      103.01278917555024
H          115.14922830224394      125.43309727420953      103.05551134399865
H          114.89364655872301      123.86139790235542      103.80402020903264
H          114.15707029522788      122.98364383719338      101.53795398918028
H          114.29792588322847      124.62339036952616      100.91394913502289
H          112.64105255934537      125.37210172525420      102.67791027875630
H          112.45915178370133      123.68904187286161      103.15864135279703
H          111.76012310936875      123.15575019458795      100.77764703900222
H          111.79726777707562      124.88218773744912      100.43049212461285
H          110.09284413257089      125.22312840376090      102.27305412709627
H          110.02217663202359      123.47067377147421      102.46596157115005
H          109.51242678742891      123.40377530329994       99.91551062994512
H          109.14871818398649      125.12025258434973      100.07085444955597
H          107.81570612611223      122.84270135135399      101.60178207363057
H          107.14350755966255      123.67198568535274      100.20223175800142
H          107.14906604602751      125.81907386882332      101.53693235740066
H          107.66008879857672      124.88723632935864      102.94790073465310
H          105.65591257105024      123.43556444180946      102.69951217510879
H          105.12101241050055      124.40983896669512      101.32823213998469
H          105.09931132613757      126.42190192498872      102.90183200129225
H          105.34996927811000      125.29619606124950      104.23375833577414
H          103.00578059485319      125.28176159620546      102.27637864037064
H          102.95930619893296      125.87929287522134      103.93426342865283
H          103.44340144019108      123.60594965483945      104.78549463120486
H          103.55067696040140      123.00075189276350      103.13145906058574
H          101.17372053691936      123.63166790510152      102.74131449787936
H          101.03911112890721      124.12974667310718      104.42778938779284
H          101.60524793482398      121.85465031637857      105.18073257275115
H          101.90054291364071      121.34920450964690      103.52019248490441
H           99.50820343122533      121.67752879192953      102.97210499810603
H           99.19138263551167      122.21464121701966      104.62206122466448
H           99.97437449109289      120.04795996273181      105.50150684531826
H          100.34843050779004      119.49302423388737      103.87206803252195
H           97.94714662127987      119.67901411260182      103.25335652660735
H           97.55863322022478      120.17864706689571      104.89974157222287
H           98.86250136681760      117.51662563296279      104.16494211507371
H           97.13484377019599      117.73821857861816      104.41442773358860
H           97.47513303467571      118.39963722394879      106.72824088732219
H           99.22652192312020      118.36850358703353      106.53526570474368
H           99.13420927735015      115.91701537682482      106.09727211988978
H           97.39534840387044      115.94370173654158      106.38455024671133
H           97.76252015846150      116.79778626336714      108.67879248851777
H           99.49865605889900      116.88813676654138      108.38566781861923
H           99.58767011993969      114.41581418064852      108.12809225557443
H           97.85294514775890      114.32367741678365      108.44143395220389
H           98.19665830180334      115.36901545514775      110.67235229856932
H           99.92950092742241      115.45903096754229      110.36575669951699
H          100.06464837445958      112.99309872850411      110.25865795182652
H           98.31259994492738      112.88205702193552      110.41957122541703
H           99.06529804416908      112.41980800031720      112.58670848352330
H           98.56110370258423      114.10276866880605      112.65755998474012
H          100.58912086223692      114.12479618491881      113.81686863972349
H          101.09616405915881      114.64127904049387      112.21342508912905
H          101.80425688884868      112.29637580744271      111.70233326044043
H          101.26905984830236      111.79726241035716      113.30438538222944
H          102.92781218330407      113.29060666280074      114.35674128711926
H          103.44428098564445      113.87139418639485      112.77675539197016
H          104.14789080314944      111.56246053189251      112.15923913451992
H          103.64959785094160      110.98543374775409      113.74610885100465
H          105.31789090336078      112.48148575654109      114.82397188722693
H          105.80510957211604      113.08247143462349      113.24228524525270
H          106.40410390604985      110.69259797227365      112.60707375706069
H          106.07099132835069      110.22314784753188      114.27125741734935
H          107.81308753167390      111.94776962260921      114.99895766112873
H          108.22749804834366      112.14065730562193      113.29506507925986
H          108.66973339360325      109.63238231885714      113.20936094005100
H          108.43305836664624      109.59361915486780      114.95479901936081
H          110.29476481920808      111.30984547358588      115.16754660603345
H          110.57604573375177      111.13523489117433      113.43468851520385
H          110.92037042160851      108.64435398292396      113.82821821958557
H          110.78557324147283      108.95780557858033      115.55470984618456
H          113.10077465020292      108.89038985919734      115.18007795794124
H          112.75432650140263      110.61603328165447      115.24710099698032
H          112.83070031816534      110.77331977080473      112.80105903944062
H          112.92393206129383      109.02232601651893      112.65258131600513
H          115.14098777978050      109.03374029580405      113.77779604680325
H          115.05020800778665      110.78376751219798      113.94473901272649
H          114.88453444594816      110.99346857858511      111.45611843971527
H          115.03863494088222      109.24590211928491      111.30861900411141
H          117.30458534047499      109.36037540393062      112.33175940634608
H          117.14315134734673      111.10888748944350      112.49573502813998
H          116.90575397087079      111.32720513196490      110.03355642932054
H          117.06411734143538      109.57858885069321      109.86374753337969
H          119.31405353113414      109.73880194686258      110.99404819359708
H          119.18975074565940      111.49408176728902      110.89500699964374
H          119.05741433052802      109.63720316177762      108.47799620640731
H          120.54148964572848      110.38810753528749      109.06074697038510
H          119.51702168343134      112.63861789151360      108.74746879183112
H          118.08042198527055      111.88124833892681      108.05918628277581
H          119.43450205898007      110.92469661853829      106.22631223880354
H          120.90301078583072      111.59128239362394      106.94358369398235
H          119.92363655288341      113.88998644128634      106.73276332723694
H          118.54883061358677      113.20633670383012      105.86890935588538
H          121.45065613866137      112.94924287805907      104.96315510088330
H          120.35723402556903      114.22892999120191      104.44082475048205
H          118.80744036243109      112.44148680924698      103.54320502470848
H          120.08481938924464      111.25972753437075      103.84487344685554
H          121.64352002051416      112.66468727722076      102.44776121988457
H          120.29770903858577      113.73774770626305      102.07889450316871
H          120.56136737103455      110.79836032862481      101.31868909088317
H          120.72214993846349      112.18409730809807      100.24456550497885
H          118.17598110930689      111.27991757569063      101.65935562622668
H          118.57620161026949      111.05605499003823       99.96039266276023
H          118.60986432064149      113.55239583272393       99.67179903853537
H          118.08366679680003      113.72024296821738      101.34708880799442
H          116.06059521856257      112.33383086061660      100.82012508167986
H          116.56335648900389      112.28061241904196       99.13217781418098
H          116.42929196241374      114.76966495111414       99.02114481597496
H          115.91520207148633      114.80891585482846      100.70671352402378
H          113.90981442079045      113.44368371202597      100.12282343054470
H          114.41008570515265      113.44285676557270       98.43555394511230
H          114.21970677847445      115.93357956227288       98.37517801926177
H          112.69327672584936      115.19461393543139       98.85944738406651
H          113.74125623455053      115.93779816916673      100.07093898942512
H          106.08125982959123      127.85132282093460      105.81841234083529
H          107.09582293979621      129.25532413954511      106.15692195617096
H          106.37091330679911      129.05485506963214      104.56127752686706
C          125.20049039363967      113.55362470936383      102.29036888409264
C          125.06423035136966      112.88096135992137      103.65006142334816
C          124.50155198196612      113.82318231524617      104.71212125448533
C          124.36918727542680      113.12420471463325      106.06254867905035
C          123.67937400187665      113.98022558337877      107.12161804633266
C          123.52361591837384      113.21444107644082      108.43387184259814
C          122.63652565799492      113.93736333565083      109.44208817738294
C          122.42354210159867      113.11332184697879      110.70890146011480
C          121.35574159521512      113.71328381404044      111.61823822663412
C          121.06157780977716      112.82510087905894      112.82385185174886
C          119.86423400917283      113.32869812443266      113.62604181693939
C          119.43714917770932      112.32691362922053      114.69363880623976
C          118.36175735699224      112.85961267005017      115.63783363615246
C          117.03584119232765      113.16904054093990      114.95020074271214
C          115.90996085341536      113.36974496217729      115.96075626279743
C          114.58595780111929      113.71793156857625      115.28819641594434
C          113.42428792714824      113.73571633133898      116.27617236765873
C          112.11100520029146      114.12710017017517      115.60722623254739
C          110.93682015586772      114.09151118970729      116.57946672518693
C          109.64343967023788      114.57938560829115      115.93579450225310
C          108.45243813008331      114.47538023285330      116.88333957148117