3795
 energy: -5103.681001912755 gnorm: 0.000856173133 xtb: 6.6.1 (8d0f1dd)
C          107.03833419671280      102.17730370158314      113.81103549199949
C          106.41551757136502      102.99016428666025      114.92600705508922
C          105.98555331599330      101.44204680805306      112.97430517360696
C          104.95761383386396      102.40052119376604      112.37964621002328
H          106.49346210190998      100.90306231719342      112.17306038042193
H          105.48192094253595      100.69978645328489      113.59640926219284
C          103.98025143419591      101.68849610251840      111.44028850059071
H          104.41395065863031      102.88870261270094      113.18913452602898
H          105.47098411354213      103.18584503595584      111.82159623275447
C          103.18461790954404      100.58908895468608      112.12825524966341
H          103.28416016448196      102.41805485564035      111.02289661291142
H          104.53372212548622      101.22359900135248      110.62275618270098
N          102.31157227873032      101.03008498974378      113.04903261378752
O          106.51318978584162      104.28274628959639      114.70699221313845
O          105.89276199880979      102.51805493433896      115.91487493234924
H          106.12680884269510      104.84248664681384      115.43557597656520
H          107.71445765229664      101.44472574748784      114.25503167890403
H          107.60533293370916      102.85924606993244      113.17821969796753
C          101.48210558795404      100.16734571723900      113.86211701094409
H          102.28567066155078      102.01453200611428      113.26652444476164
C          101.86017118011048      100.23139606110843      115.34347817365946
H          100.43641061255515      100.46170823989276      113.73184062763012
H          101.61631763841118       99.15295232949870      113.48124424401954
C          103.26192956061104       99.68486073728475      115.59373279142380
H          101.81400105869521      101.26769171446728      115.68577034569472
H          101.13053654724555       99.65489538744072      115.91236694206397
C          103.71210180307642       99.85449682386611      117.04133637187246
H          103.29746064444588       98.62954068718975      115.31587585963285
H          103.96774409838284      100.21470991104330      114.95170617514152
C          105.14336859173464       99.35443832725332      117.22622441402716
H          103.66645852446840      100.91263501262524      117.30446673779507
H          103.04224309817104       99.30790065105701      117.70740775836455
C          105.68743476856793       99.62443240360459      118.62189171566955
H          105.18598649185751       98.28154320124963      117.03486706515714
H          105.79185717326445       99.85004152585962      116.50028266029855
N          105.82814690597542      101.05157439875605      118.84165765297838
H          105.01898743107826       99.22312867689287      119.38973145276374
H          106.66386946330030       99.13848192963896      118.74197701801596
C          106.04575969785618      101.58557763682761      120.04859982810095
H          105.82849973754810      101.63008283182351      118.01217066740375
O          103.30881833700859       99.40685043162918      111.83505141406326
C          106.15941531555701      103.09584420508301      120.05798830083477
C          107.01829620451537      103.63411698689522      121.20279176621806
H          106.56826759411129      103.41990854457654      119.10013197675364
H          105.15202850772936      103.50351066664103      120.15039954746491
C          106.27681649661558      103.72791987518566      122.53543449561501
H          107.90167349084886      103.00178261375538      121.31756546887635
H          107.35545380071883      104.63497239698208      120.93015501235763
C          107.24682814377203      104.14823139805932      123.64159067865978
H          105.48403508667687      104.47300614474338      122.44327451482688
H          105.83285008059985      102.76467667597358      122.78615917252304
C          106.54813676791552      104.50395314378301      124.93345669436943
H          107.95931847808976      103.34359793882641      123.82811873323467
H          107.80146878813497      105.02652033823884      123.30869897269574
N          106.21636329387523      103.48061661289604      125.72110980815779
C          105.66216712517188      103.69812738821489      127.04491013041066
H          106.38828829271927      102.53323587864917      125.41401979867506
O          106.11579589162417      100.89607211940552      121.06543800249483
C          105.19313573665647      102.39792008419646      127.68280663896252
H          106.44175910505011      104.14967901497346      127.67238123889149
H          104.84422413014676      104.41971202017749      126.96047947931426
C          104.98886244019434      102.53578467635430      129.19365940455120
H          104.27581236918810      102.05393478365207      127.20551692725434
H          105.95224287740105      101.63211379128317      127.50474041347928
C          103.84982258569515      103.47074964575879      129.60735815326643
H          104.78875688345993      101.54399942285913      129.60303809040124
H          105.91803796137302      102.89484660988161      129.64042305772372
C          102.49152664285820      102.96701764944250      129.12590425173863
H          103.83802692460266      103.52451423652970      130.69743882624340
H          104.03023477314427      104.47504316357865      129.22489993069729
C          101.31790278322842      103.66377928161576      129.80381235009926
N          100.08629435592417      103.08088214761425      129.30759651966369
H          101.36512553784554      103.53882684600367      130.89174960892862
H          101.31746470112931      104.73888333746132      129.58902112181252
C           98.85824745370091      103.42618711992436      129.69473773194176
H          100.19634969598106      102.32651984763288      128.63387376055314
O          106.32007907507663      105.66907448538298      125.26169613379894
C           97.76508368014295      102.67719306185469      128.95358508894770
C           97.67343365625541      103.17405503901676      127.50134932663057
H           98.01501967732307      101.61728674708033      128.97059328585581
H           96.81519456034167      102.81968420915098      129.46905445077300
C           97.18321933569446      102.11521569597683      126.51381755003675
H           97.00067922813045      104.03250850387403      127.45869550737120
H           98.65773716175843      103.51450966801505      127.17209793147090
C           98.12587325231651      100.90839838280627      126.39469622552433
H           96.19423265744287      101.76087793524555      126.80839434870059
H           97.09724283577378      102.58421496756519      125.53295769925482
C           99.58166006948203      101.32745616715242      126.29712676649012
H           98.02707092028395      100.25164741257043      127.26041505013582
H           97.85841698065137      100.34000533562102      125.50356460632607
N           99.92316816528120      101.92396174783642      125.15528024409221
C          101.24176144776889      102.45696269913374      124.89093744735609
H           99.19198509396112      102.17733941490265      124.49728470758579
H          102.39936681880170      103.10537867864170      128.04837268315288
H          102.41164086837648      101.89658438501954      129.32505210002333
O           98.62718149839742      104.28835027069691      130.54146792067442
O          100.37903400997307      101.11652150482311      127.21414242856979
C          101.26805426470168      103.98457000715158      124.98093754388540
H          101.92622163508497      102.01526579755055      125.61940505100081
H          101.54743502491753      102.14194746447450      123.88895846339132
C          102.61420526851197      104.54747990707983      124.52423144583406
H          100.46052755034162      104.37258261863110      124.35788282025163
H          101.06941539458322      104.28445921520063      126.01268404821747
C          102.78161212285086      106.04001989153973      124.81990981327756
H          103.41165519023855      104.00155162743947      125.03187424231183
H          102.73541240412335      104.36536572349861      123.45521966084537
C          101.89322727779641      106.94460314055497      123.96262906131936
H          102.54779194666671      106.21349886841531      125.87199978894991
H          103.82866810122761      106.30664923140330      124.66007655959643
C          102.43695908102109      107.15684563823707      122.54990712141741
H          100.89868299349881      106.50769241075795      123.88293705614656
H          101.77736846004535      107.91487375903405      124.44801584788138
N          103.59053914723442      108.03012938729988      122.51845986440399
H          102.74425879716404      106.20468019865169      122.11391579528095
H          101.64970622254970      107.59129063090627      121.92113948419770
C          104.73637662174090      107.72561560635866      121.90149517795325
H          103.46912065128126      108.97306818751667      122.87239075250176
C          105.75383233253423      108.84959307309913      121.85135113821937
C          107.14795424628939      108.39996019505311      122.30090114095771
H          105.79677105257360      109.17335999903516      120.80781692552920
H          105.40492644513328      109.68626722914523      122.45286613499377
C          107.28433994244210      108.43031912386732      123.82158949367400
H          107.32064183141209      107.38467762445161      121.93734317751006
H          107.90099874657648      109.05096256069022      121.85202700583746
C          108.67426119677417      107.97310241138230      124.27882732615144
H          107.10826968575762      109.44865137351745      124.17646304487165
H          106.52974775330584      107.77742120765269      124.25924549533225
C          108.85893595354291      108.21886693146241      125.76166775657019
H          108.79962355346416      106.90742364745378      124.08084605158874
H          109.44557868196260      108.52864885833917      123.74285838098730
N          108.06539964688218      107.50738596757181      126.55910355454357
C          108.01490282421639      107.72374669403307      127.98744324998680
H          107.44220121754668      106.81417063009526      126.15615692328015
O          104.94196616535486      106.63380060550665      121.37324918162562
C          106.65291336609835      107.37794665992519      128.58127559751267
H          108.78408215826647      107.12008607666890      128.48824100395129
H          108.25321712917933      108.77600998709589      128.16485080505180
C          105.47035931720325      107.98532998249895      127.82538387695269
H          106.53493415129900      106.29315190674713      128.58931448431852
H          106.65551991086504      107.72868733920832      129.61484620171501
C          105.53755488003847      109.50897950349430      127.73148200921948
H          105.43272347497046      107.54735387011340      126.82884635195651
H          104.55348933613313      107.70112646397079      128.34540024287500
C          104.22879554470077      110.12666390232194      127.23850247401721
H          105.75991644012697      109.91424021363635      128.72063134675156
H          106.34437532836934      109.79964175435806      127.05892163288998
C          103.89488262567849      109.72851710665152      125.80193114641177
H          103.40688236486510      109.80753326504420      127.88278470201126
H          104.30004905399733      111.21419514996633      127.29510138916227
N          102.63492307106812      110.32534437164979      125.40689757311017
H          104.66727348145423      110.07827236360399      125.11444015665658
H          103.82429392426863      108.64086485980692      125.71994700290517
O          109.66424602474356      109.04489401692200      126.19408132720828
C          102.38560944346328      110.82563729507467      124.20262975454888
H          101.84088136875360      110.12919272626529      126.01396913322753
C          101.01488290501302      111.44040886202971      124.03649125533245
C          100.94310773822987      112.78303824876004      124.77288471256172
H          100.81881610468382      111.58489602859153      122.97335542841523
H          100.26238507071565      110.76625692138576      124.44858114548740
C           99.59690051710089      113.47742655046849      124.55401402094714
H          101.08480122967346      112.60037919471087      125.83721058143790
H          101.74684338948012      113.43703127267568      124.42728920266649
C           99.59988104117890      114.32573801846277      123.27831608120027
H           98.80890830389141      112.72292665155879      124.49732291328864
H           99.37004822426704      114.12338221010341      125.40045453796286
C           98.18272540283981      114.71370150525077      122.90891599663989
H          100.20934729825291      115.21743056045761      123.42723322574655
H          100.00964653429250      113.74554754878481      122.45297348888799
N           97.62832261271545      115.63022915545572      123.70793276384452
O          103.22345118489801      110.83154402672113      123.29289673134788
C           96.21231937915152      115.91501769055873      123.72434812121540
H           98.18960557529796      116.12088967354566      124.39529172043318
C           95.66695719572783      115.90222120856450      125.15582848425775
H           96.01475170967696      116.89089015282350      123.26639552451026
H           95.72795654858757      115.14586395906851      123.11615966536958
C           96.12305737178586      114.67406861212655      125.94554694373582
H           96.00373547908983      116.80213680480195      125.67320720586335
H           94.57778798306018      115.92911697245671      125.10591387942283
C           95.31692321445018      114.46466345428610      127.22654726501379
H           96.03427636466061      113.78180486747867      125.32287866948931
H           97.17539618581226      114.79411475442049      126.20505407226040
C           95.96616832669933      113.41454648689353      128.12984949313500
H           95.23669783464065      115.40918955356918      127.76879082859860
H           94.30474750165465      114.14744409274540      126.96917304552733
C           95.04569355779101      113.01860856187591      129.28112639060791
H           96.20920588538921      112.52794429731732      127.53935747783449
H           96.89292239122217      113.81709695778298      128.54156430592144
N           95.75691111248398      112.25083739452992      130.28480334022925
H           94.65176029189607      113.90349282206739      129.78837708714812
H           94.19344118659474      112.44317449386719      128.90000764293791
C           95.47811116747239      112.33045313635515      131.59672405113758
H           96.40932940036967      111.55476786794897      129.95703795527595
O           97.59417771808229      114.18243008677211      121.97115957924663
C           96.35908410053229      111.48774104127884      132.50088314268433
C           97.13523855975838      112.41932697467485      133.43779280470602
H           95.71203354067728      110.84302399922532      133.09950756587767
H           97.03208789798470      110.86089640103506      131.91809209172851
C           98.02987274634158      111.68341919695608      134.43374872252352
H           97.74416400975117      113.10066059727953      132.84221701055239
H           96.40783259774001      113.02290186363781      133.98479139339943
C           99.28377960529427      111.09037445069696      133.78451909142720
H           98.34103381848358      112.38593216167008      135.21092411224012
H           97.46546246059449      110.88284832498940      134.91704319612262
C          100.07311165240301      110.31894585089786      134.82766811566452
H           98.98985881392868      110.40429931875846      132.98910472708528
H           99.89655714129859      111.89102987165617      133.37261286080883
N          101.21179564824713      110.90553296700031      135.21752612988598
C          102.06604235962945      110.35077735499659      136.25031196451314
H          101.38567565344587      111.87501093424815      134.96821378647846
O           94.60330983842921      113.06719654454761      132.03929867101232
C          103.41737024328553      111.05618730799662      136.23548321825641
H          101.59114568294304      110.46600858553593      137.23371812818300
H          102.16576768189672      109.27896615455117      136.05840889893955
C          104.39096277068616      110.50556370139685      137.28066083728811
H          103.84807909567836      110.96944961339362      135.23920604117191
H          103.24076348354681      112.11654806871663      136.42626483430524
C          105.10544151818156      109.21958813911380      136.85516588603713
H          105.14566900354431      111.26463863241823      137.49558224680831
H          103.84241854445347      110.32065321347228      138.20613846323408
C          106.12601749066171      109.46847418302276      135.74668198657253
H          105.62116321879171      108.80455466337214      137.72338734552892
H          104.37112233727413      108.48358151589048      136.52499295023685
C          106.92847408160128      108.21646570519906      135.38642328261923
H          105.61261601224183      109.80830869579839      134.84583325921918
H          106.81018743174938      110.25800856120280      136.06317718273064
N          107.64195892272133      108.43161329679549      134.14499617226841
H          107.65717330901458      107.96884278718157      136.16149580917821
H          106.24922899837799      107.36410475678379      135.26893394858041
C          108.95303819296846      108.26423259497696      133.95724688532141
H          107.09095114017910      108.86589440633470      133.40638488483964
O           99.70094164442003      109.23089296265886      135.26173160945405
C          109.43474994489810      108.71414439840879      132.59058102362164
C          110.45682923008351      107.76483764718439      131.96629931281984
H          108.58268424909258      108.84433137920905      131.92418284579495
H          109.90485174950970      109.69166020774600      132.72891302994077
C          111.03198632911530      108.37217726602769      130.68924635018416
H          111.26371428028176      107.58132384039212      132.67711390280377
H          109.98443660581128      106.80365070970664      131.75176779776208
C          112.16789733779244      107.52688573884760      130.11611784193883
H          110.23924448096160      108.46458874742491      129.94526096488926
H          111.39420139966018      109.37314225029105      130.92348583766449
C          112.62882303326303      107.97907359108575      128.74087743680758
H          113.02641277275924      107.54969662733953      130.79388894799266
H          111.85470252691105      106.48332602791503      130.03123740799154
N          112.67509386859035      109.29364090083374      128.53619694443753
O          109.71145791962284      107.81045150852636      134.81533967687227
C          113.00050017309640      109.87014172233935      127.24714767782325
H          112.41445654044972      109.93992000591494      129.27103865014914
C          113.53407009264934      111.28657008849788      127.41143532244003
H          113.74157690958040      109.22117204439822      126.77734902953182
H          112.09647248174467      109.87529337525964      126.62703716088613
C          113.81056375761936      111.97440627813872      126.07572984463278
H          112.79305524392751      111.86972974314774      127.96005648992447
H          114.44465516729151      111.26119460311031      128.01345201196222
C          114.98330427122157      111.37082491826521      125.30501555073255
H          112.91186027521759      111.92979738125062      125.46166836808146
H          114.02913406293989      113.02446107590264      126.27328382606476
C          115.37193129468216      112.25427939187806      124.12120027020293
H          115.84281006321405      111.27458244027517      125.97239086108952
H          114.72093371520869      110.37832214190860      124.94274313356898
C          116.58634242323043      111.70310594284530      123.38086785193251
H          114.53013075650891      112.34085891153308      123.43339250891000
H          115.61172436029473      113.25576024090871      124.48618946325676
N          117.11879918661293      112.69635157652509      122.47353506243067
H          117.36345730004126      111.42714399793329      124.10623065016144
H          116.32828436767387      110.81374333831893      122.80150708601535
C          117.83018855781116      112.42686957038292      121.37830858683887
H          117.07718593466859      113.66408328804600      122.78420046372999
O          112.96071997057308      107.16629113153648      127.87557846836374
C          118.36513109282897      113.66817995318158      120.69625798503684
C          117.38403120257037      114.19344431330723      119.64306904282998
H          118.51332871910442      114.44204618276275      121.44760306378222
H          119.32366381863548      113.44163346209154      120.22688040097847
C          117.71556711052381      115.64396219820932      119.29260340588407
H          117.42996262198970      113.56890116527961      118.75010712847251
H          116.36360642582811      114.13484931603564      120.02581093034715
C          117.07713846045839      116.08016910548980      117.97317735451540
H          117.36155956183218      116.29346164278915      120.09465731058282
H          118.79650718046479      115.77167114804246      119.22615641269037
C          117.72892332616085      115.39271397786091      116.78932073531719
H          116.01287852533481      115.84356548933236      117.97438444104851
H          117.19143530025393      117.15825455560253      117.85520069143941
N          119.00657055031206      115.71987978063270      116.59880758003153
C          119.84298639975388      115.19333822925570      115.54136317719511
H          119.44234162277539      116.37787694599255      117.23870891559650
O          118.02339920219855      111.28835213960927      120.95457645927247
C          121.28100751517248      115.00536477134467      116.01829987996874
H          119.41471541677043      114.24225600230885      115.21789125354219
H          119.82614249603729      115.88903859423627      114.69690696900652
C          122.25794200250945      114.68234473923874      114.88427270565630
H          121.59795649677679      115.91049650784637      116.53695235785695
H          121.31515486286268      114.18856538696727      116.74177574827803
C          122.39951561536246      115.76002899158364      113.80593093845586
H          123.23753423972099      114.49275256492542      115.32479705298708
H          121.93737238267312      113.75911647584344      114.39849842062780
C          122.83079294656947      117.13787021338007      114.30766642742161
H          123.12631190948122      115.42011752028537      113.06678266851419
H          121.45065160913465      115.88177148497151      113.28175882397181
C          124.23690577377531      117.18227649633253      114.89364568238221
H          122.80877777196396      117.82256010252870      113.45796449154490
H          122.12184586815279      117.50170368601840      115.05205405716279
N          124.56504964418259      118.55201128140712      115.25025279568607
H          124.32849630035804      116.55075879636473      115.78400245843213
H          124.96109396137184      116.81456461244412      114.16179341179316
C          125.71346816866804      118.93524409502425      115.81274111869722
H          123.86853614172085      119.25553208094399      115.03555649249563
O          117.11833149714438      114.60620448135863      116.06309885353673
C          125.78644826975165      120.42283130038962      116.11995181785080
C          126.93440100137515      121.10381850640647      115.37315063258906
H          124.83561357096761      120.88005311916785      115.85526796432869
H          125.95565117471311      120.54139898574803      117.19257563622693
C          127.06279975942199      122.58555962143703      115.73619326403252
H          127.86758029611690      120.59327115960049      115.62172130099731
H          126.77444853199658      121.00832070511470      114.29676140120510
C          125.85047494462088      123.38352101358987      115.25295384638623
H          127.16735554237370      122.68684571552555      116.81866635454918
H          127.96636496446878      122.98744458801337      115.27167815166878
C          125.95446934600105      124.87332725562186      115.50433665308591
H          125.72449561337973      123.23658297863683      114.17848529702870
H          124.95761031763787      123.01639990264242      115.75988246758452
N          125.98796027501201      125.25201408776277      116.78401126842014
O          126.63028686119988      118.15930941753669      116.07613069589449
C          125.96375490358756      126.64044480447171      117.19482871860271
H          125.98004958583289      124.56937014355555      117.53590659685987
C          124.81437766892910      126.87850004948058      118.17177792436776
H          126.91769241448078      126.90437874762546      117.66305600912310
H          125.84019870522306      127.23804601194277      116.28966585382265
C          124.61697788585515      128.34885570125007      118.53688313176310
H          123.89681321132878      126.48163557409777      117.73703986048891
H          125.02058588761081      126.31064547885993      119.08076015149956
C          124.13803433656246      129.23515285021682      117.38315135443243
H          123.87967789916061      128.39604415625479      119.34166970137572
H          125.55533488249412      128.74978733198611      118.92573181713610
C          122.87345803943870      128.70735965168168      116.70308393631714
H          123.94318573751427      130.22984809524635      117.79278127268365
H          124.92931379935884      129.34520155945032      116.64062950185453
C          122.11250363293438      129.78941026703322      115.92089398617736
H          123.13383999833934      127.90561501717394      116.01150898455313
H          122.20126984056215      128.29239746071286      117.45900477640213
N          121.38124881360342      130.74094749460065      116.74564849809705
H          122.81002745266254      130.35358458689001      115.29722748814170
H          121.38936457161806      129.30598121587906      115.25891342088731
H          122.03043117165828      131.28783486764189      117.30054109170618
H          120.79068910241030      130.23127331768060      117.39568990004368
O          125.96940059434921      125.67943173901917      114.57280234029594
C          129.59526110768587      102.13759723915811      117.74189634906135
C          129.11218506771638      103.15076094067864      116.73122118693414
C          128.76161419607368      102.18186031832543      119.03182973700039
C          128.80369683070779      103.55435503275106      119.70281177459503
H          127.72640821085304      101.91811350600437      118.80895103626781
H          129.16411741020892      101.42868710866037      119.71135255885044
C          128.32534099966443      103.50174331092786      121.15596294627021
H          129.82586364879722      103.93582230966454      119.68707931170917
H          128.17987704470326      104.25122325847266      119.14194730050434
C          126.87282509725429      103.07647392174833      121.28673682552902
H          128.96430424802782      102.82933957820505      121.72813701260540
H          128.40649105238342      104.50200561423445      121.58885771026881
N          126.61292263388540      102.28693051940647      122.33482075307695
O          129.84574056617845      104.23457469190045      116.70973799592052
O          128.14245286508182      102.97389846422061      116.01563372818416
H          129.55326668938832      104.92941685057360      116.04405807656411
H          130.63762641954202      102.35663970752971      117.97102764143135
H          129.51543504721622      101.14287428817477      117.30212566361637
C          125.31818894030842      101.71293162278151      122.64621214725551
H          127.36625589636681      102.02243501225227      122.95109217605743
C          125.45892589116754      100.21915937688756      122.92949014032362
H          124.89023379525000      102.22036127803435      123.51572749275405
H          124.66295991501080      101.87652919081454      121.78833105429997
C          124.11273960464848       99.51752840222538      123.09978790267644
H          125.99118589944445       99.75658633506548      122.09477240487240
H          126.05843109503823      100.07703520020286      123.83198312468272
C          123.34806699665960       99.93368105316644      124.35778178050387
H          123.49139432640270       99.72866223091489      122.22902553426124
H          124.29553190294358       98.44114522731302      123.13932843285008
C          122.26511496775541       98.91938621514986      124.72978234292361
H          124.03772492021123      100.02238306404335      125.20095624424316
H          122.88609693715702      100.90948612041213      124.20102093927716
C          121.18110795694149       98.75767808494645      123.65644946928076
H          122.72817852977344       97.94511772497059      124.89643935257010
H          121.79071688572188       99.22970248397746      125.66296204729123
N          120.35681192400419       99.93478086566468      123.52235531060397
H          121.64232232821588       98.55143336087376      122.68871704991288
H          120.53304497142248       97.91921348839058      123.92319833661348