3258
 energy: -3427.643434095488 gnorm: 0.000902535375 xtb: 6.6.1 (8d0f1dd)
C          110.45123066224814      112.80555950745767       94.12614220881272
C          111.75042261993063      112.77579618261164       94.92191331472696
C          111.72278528239494      113.67332535359590       96.15798321734387
C          110.77159695726802      113.19840633338526       97.25319296445569
C          110.85980838252189      114.09538381038186       98.48483537129864
C          109.94062328924710      113.64465292441498       99.61652764254002
C          110.00461151742763      114.59894300778622      100.80546403797915
C          109.07690574923731      114.19161786516973      101.94633656018594
C          109.10433416494348      115.20488410066399      103.08807283001227
C          108.21484144491713      114.79371388368054      104.25768429744539
C          108.18862274406762      115.85375349443875      105.35640767401715
C          107.31530464966463      115.42617397061757      106.53391930927525
C          107.22962763835687      116.46909192940642      107.65465690176362
C          108.19248655502170      116.24960576753598      108.82282393430036
C          109.66949715474244      116.33318165865300      108.45335640402820
C          110.58034552156346      116.28860582318511      109.68103753345349
C          112.02403185910137      116.60945679483392      109.30450037005433
C          112.97789666168389      116.69713201847944      110.49504927741984
C          114.35262471686109      117.18619024857675      110.03936745450773
C          115.34732986413019      117.46090662540549      111.16664022605916
C          115.91937274068503      116.20707256320465      111.82511548399417
C          117.07704980380983      116.56594808103596      112.75584428983740
C          117.79381693807652      115.35707552178961      113.35756457310104
C          116.95553582774372      114.53472680206234      114.33574407992320
C          116.51333384696663      115.31348162665941      115.57149795460538
C          115.82796310006754      114.40932880581728      116.59344240212751
C          115.23058581291144      115.20541291399429      117.74985849002131
C          114.53266578707446      114.31448902352733      118.77393847864803
C          113.73564724089148      115.13416690353075      119.78510830449486
C          112.99402304703386      114.25534985506295      120.78812804836564
C          112.01451082376373      115.05730618152718      121.63946443651882
C          111.17631714166319      114.16802805700910      122.55357476510432
C          110.12617007064453      114.97115412268747      123.31553512197021
C          109.23896876859502      114.09520932096946      124.19537205675141
C          108.16808634765147      114.91693360971021      124.90811583303048
C          107.22613092121813      114.05437213095811      125.74326376355889
C          106.16448381088803      114.89621399169873      126.44881506075063
C          105.17820993520415      114.06553809137819      127.26998650116818
C          105.79027839415241      113.48803666903102      128.54330251917921
C          104.81452547208720      112.56348060093967      129.26702754810728
C          105.36747889268239      112.00185894739815      130.57837243134605
C          106.70479252477294      111.27071440876334      130.44294968943967
C          106.66688407044438      110.13551643304400      129.42296365904360
C          107.95941732801170      109.32285640830150      129.37741442228347
C          109.16647602800487      110.13828058466339      128.91882056839674
C          110.38903009062972      109.24961520012660      128.69966767782068
C          111.68939813647917      110.03722238195824      128.54699150287027
C          111.75930576215295      110.86069366000565      127.26377524780919
C          113.07587869317230      111.62739519659341      127.16386655712542
C          113.14427545549998      112.51760786002519      125.92543758501891
C          114.41982717507953      113.35652125430373      125.89869240512481
C          114.46879676817785      114.29556300656606      124.69648735929532
C          115.73573772138141      115.14656548446244      124.67996290125585
C          115.76496762595576      116.11016335663486      123.49634291247462
C          117.03776591191237      116.95312328696481      123.47454506211767
C          117.07418549237256      117.90830423189009      122.28461114770546
C          118.37386013098875      118.70731207419340      122.22313318760331
C          118.47044879619344      119.56113754559847      120.96085785226491
C          119.75689223976532      120.38143552654087      120.92112892107230
C          119.92002826045477      121.15345444684566      119.61301097787791
C          121.18564722893385      122.00822625486971      119.62859871252306
C          121.40044804183690      122.82386111853026      118.35275002174588
C          121.76102215319624      121.96557456794686      117.13989024756907
C          122.36709845251862      122.77683976503755      115.99165916374832
C          121.41860467854444      123.79813758507275      115.35958286911399
C          120.30477402589105      123.13431466658120      114.55581406175835
C          119.33519983567261      124.12197841119469      113.90511806306479
C          118.45025602867750      124.89329068315116      114.88673288244125
C          117.53987553023657      123.99048239672666      115.71658608783262
C          116.53347127837640      124.78663135628240      116.54440194100796
C          115.72348916081091      123.88116855581305      117.46902141171833
C          114.70213202919300      124.65223726143614      118.30261561242649
C          114.01462362120745      123.74611492793643      119.32066777482045
C          112.97330303904826      124.47423826910732      120.16884688474242
C          112.42419100608046      123.55668261706828      121.25840665405627
C          111.32426414943110      124.19092822672839      122.10823221768801
C          110.92840000531488      123.24626815344071      123.24181116323446
C          109.75135230873450      123.71649377326372      124.09621143127984
C          108.40646068354080      123.67160501128430      123.37127637488507
C          107.24453000628799      123.86503707458631      124.34531318263676
C          105.90184971672329      124.12115640880862      123.66018074992829
C          105.39096459127796      122.95099229242639      122.82137172187473
C          104.00852228685069      123.25427764017667      122.24495279339352
C          103.49160712956980      122.15854598539305      121.31543441026039
C          102.12907738089538      122.51653280205181      120.72364644583726
C          101.65650518988731      121.49764528477479      119.68967504559876
C          100.33544387302246      121.90496158031505      119.03833688513873
C           99.91550384358851      120.92299031252425      117.94740988555368
C           98.64767451359795      121.35390202825856      117.21381359441833
C           98.35741441352370      120.50078822303726      115.97703088760521
C           97.99430590802594      119.05245478174461      116.30147853831993
C           97.56578650292965      118.25907801505616      115.06492857291084
C           98.71036248654386      117.89821181956590      114.11450434894046
C           99.58293035698428      116.76006898900461      114.63809520128144
C          100.71119413862712      116.39560126296985      113.67288118966781
C          101.39346929727610      115.09398943123479      114.09071560994472
C          102.63129101306373      114.73577927346700      113.26906812270677
C          102.34845685640376      114.54678057601926      111.77868220408040
C          103.49800678116360      113.83286888821858      111.06888926846422
C          103.29600172687368      113.76832525752158      109.55655724879180
C          104.38484739654194      112.95134109265680      108.86546973978746
C          104.22523130457400      112.93367236981619      107.34706393181396
C          105.29467192146636      112.08088967624245      106.67091220299967
C          105.20208753456819      112.11271377263267      105.14715714997129
C          106.32760735791197      111.30859160326969      104.50263680644514
C          106.29704429338167      111.34934792396361      102.97684229318473
C          107.48062791428161      110.59349174405411      102.37811157230713
C          107.48974247690489      110.60795848656474      100.85166658228485
C          108.74343998254690      109.94009229663718      100.29144386706167
C          108.76181627441713      109.90454445774323       98.76509404495812
C          110.08566968553258      109.36739740977472       98.22537571725319
C          110.08726670490515      109.23590459206409       96.70379809570456
C          111.46440535524771      108.85208600486619       96.16653476536834
C          111.45127745632666      108.57860658479331       94.66380283342106
C          112.85972522294516      108.34827468927170       94.11925789935385
C          112.86239547358558      107.87853228196241       92.66635080324737
C          114.28358005524198      107.73652539133080       92.12559386156414
C          114.32646550265160      107.14835455758218       90.71802625368656
C          115.75731413596408      107.05363502250438       90.19302625669242
C          115.82237106191182      106.44369100253247       88.79890738510606
H          116.19471202277987      108.05531429755820       90.17117673675651
H          116.35251057109333      106.44706605362400       90.87987801397483
H          113.87687194049336      106.15229835614610       90.72641652529312
H          113.73391688498909      107.77209590029503       90.04456751971634
H          114.76013083212359      108.71996761652771       92.11476418206368
H          114.86275641015973      107.09649950304127       92.79650719792345
H          112.34894879922787      106.91616744410825       92.59717513593843
H          112.30946577322119      108.59195782548908       92.05104983528170
H          113.42704076735197      109.27945206456383       94.19529689292091
H          113.36711901963253      107.60100585420847       94.73479271105786
H          110.83423481960989      107.69891079063677       94.46379533017677
H          110.99559571017249      109.42358318039329       94.14259899197687
H          112.16820740122165      109.66159224570984       96.37864015108941
H          111.82441180960686      107.96326501819971       96.68968807520844
H          109.35614973260749      108.48021481781022       96.40542608848682
H          109.77876455142253      110.18337047581241       96.25633541370345
H          110.89159574890937      110.04116683582863       98.52846800886014
H          110.29310557714160      108.39273930957664       98.67162363082416
H          107.94062547712512      109.27878494420064       98.40642181453768
H          108.59974191872057      110.91283973169826       98.37738131681166
H          109.62135358765852      110.48618410024210      100.64594235516066
H          108.81642696200474      108.92159332864753      100.67734552421398
H          106.60162841820335      110.09372346086333      100.47592813732217
H          107.44604937125710      111.64088154814405      100.49925230661212
H          108.40600240607701      111.04776578741431      102.74122332448802
H          107.46363520243081      109.55976316184010      102.72843624025789
H          105.36222928614723      110.91273838989892      102.61673266086420
H          106.32668626139811      112.38873108795968      102.64173800217594
H          107.28520786530802      111.70908040724575      104.84531407228708
H          106.26485413265202      110.27065344460304      104.83542405976061
H          104.23715910011060      111.70977505516596      104.83076268552483
H          105.25626244882308      113.14793045879452      104.80353235524366
H          106.28010909382894      112.44510798309470      106.97218511735319
H          105.20278893607062      111.04835568471482      107.01512031242889
H          103.23647614003276      112.54860162564313      107.08979021110876
H          104.28935600341083      113.95614855606472      106.96867839500365
H          105.36327411249327      113.36778302136479      109.11869898894768
H          104.35338661840095      111.92526907596451      109.24123801976870
H          102.32280307953624      113.32163676723931      109.34095540440927
H          103.29375839873018      114.78364372272767      109.15142536981530
H          104.43715494277500      114.34807965919329      111.28471357521873
H          103.58324744070021      112.81675037629429      111.46332527517623
H          101.43572650903273      113.95943353077784      111.65647302896872
H          102.18375675084221      115.51852294848085      111.30839280060437
H          103.38932982669657      115.51209361742684      113.39943579730148
H          103.04680329107326      113.80643674092015      113.66865937628359
H          101.68904286881305      115.16891136298287      115.14117455630115
H          100.66888396395071      114.28143577884964      114.01191048974094
H          100.29983222975781      116.28422305928790      112.66728650584955
H          101.44507044506375      117.20505529878636      113.64261666772720
H          100.01291872838046      117.03560947890448      115.60235491946951
H           98.95531288567705      115.88059217514611      114.79828394012326
H           98.28267050398105      117.59371309777717      113.15573687251879
H           99.32855376949695      118.77675272892050      113.92901907199051
H           97.07991344755084      117.33518442779905      115.38982664349530
H           96.82170517010921      118.84378344653398      114.51785470822873
H           98.83846452600332      118.55290941750728      116.77646671749888
H           97.16891644873039      119.05254119304666      117.01657372288173
H           97.52625478416101      120.95352936303975      115.42943070042533
H           99.23252465568288      120.52344947174399      115.32439447465387
H           97.79495699311330      121.31363865299164      117.89600739721273
H           98.76272839729926      122.39407522707963      116.89699797859328
H          100.72650874525573      120.83802281725399      117.21981280635180
H           99.76389038419302      119.94085826774270      118.39777640253489
H           99.55376632392088      121.96212671718494      119.79960112629587
H          100.44504981272789      122.90153331200155      118.60306933083091
H          102.42052479277272      121.39943594517561      118.91480507706451
H          101.54377008871955      120.51965608045521      120.16374339141534
H          101.39191537495591      122.59086380687098      121.52638411112278
H          102.19678455687689      123.49804207771064      120.24773863109479
H          104.20617429329977      122.01054306029130      120.50162740294037
H          103.41504356294467      121.21743051085720      121.86559884116740
H          103.29913728409497      123.39541134114913      123.06405291200809
H          104.05670640859496      124.19428251200452      121.68918346618690
H          106.08560458742106      122.75558859186408      122.00312305880723
H          105.34082737739718      122.05102322325642      123.43913714058222
H          105.15903913642614      124.34929139962071      124.42915656304257
H          105.99147708825178      125.00316022053119      123.02092737341796
H          107.16307965173789      122.98424726654169      124.98714970112815
H          107.46729641769467      124.72019441398706      124.98860676906919
H          108.37106349557413      124.44990627082306      122.60684742278100
H          108.30303871555508      122.70601125421619      122.87367873295496
H          109.68818069913189      123.06632888617808      124.97296183891537
H          109.93906666493943      124.73187976171634      124.45247915579994
H          110.68586549270992      122.27267696172919      122.81435494701616
H          111.79615853003078      123.10844130512230      123.89235015831912
H          111.67663297989606      125.13756250579353      122.52400628189056
H          110.45849138005048      124.40441750114653      121.47959528173334
H          112.03240513187538      122.64952666176326      120.79339290232144
H          113.24763195208313      123.25755623336643      121.91200060882315
H          113.42742027407054      125.35517651735194      120.62837284723243
H          112.15735990765289      124.82055149635710      119.52991954452999
H          113.53544781986221      122.91498011059366      118.79836712101354
H          114.77328885232241      123.32016828557033      119.98205583594842
H          115.20587887631933      125.46710264027361      118.82815745341880
H          113.95458309370593      125.09847051682578      117.64271960422953
H          115.20670392897375      123.12446919238158      116.87428585182043
H          116.40769644725022      123.35683618827036      118.14107505107738
H          117.06594804887803      125.52885552831184      117.14444792201941
H          115.85646071839463      125.32676981098815      115.87843949879648
H          117.00161597118051      123.31196021218362      115.05147201777939
H          118.14278804085401      123.38331497351608      116.39424605491618
H          119.07056818851110      125.49519799459497      115.55331350065605
H          117.82900245504098      125.58533412557345      114.31179582299288
H          119.90728826930989      124.83875570734973      113.31030167757797
H          118.68675845877080      123.56988556415003      113.22013639294954
H          120.76170390419485      122.52881788258992      113.76748562405999
H          119.74694105556723      122.45960529755114      115.20414236548525
H          120.99285621594727      124.42758021726398      116.14040022524657
H          121.99516056655830      124.44570999198667      114.69380617904157
H          123.24741355273105      123.30296227939773      116.36959007695641
H          122.70635818947478      122.08560837638322      115.21533681550439
H          122.49628875019253      121.21711448902572      117.44671556640053
H          120.87920681019439      121.42839760055463      116.78934578674415
H          120.49856046796518      123.40334715671960      118.14649011410206
H          122.21474806261290      123.53085641073299      118.53142440023740
H          121.12766379716612      122.69589350611814      120.47647176744985
H          122.05246031598023      121.36254396064390      119.79082927063777
H          119.95873928096383      120.44559260037481      118.78301539484062
H          119.04991385744505      121.79704334940836      119.46081209885109
H          119.76292710407166      121.08368083688966      121.75832675211804
H          120.61273490416015      119.71351059791833      121.04936090010963
H          118.43760790194902      118.90989117372675      120.08496539157350
H          117.60925055404071      120.23084196826723      120.90662057706058
H          118.44439121006461      119.35027659042746      123.10354152132123
H          119.22053349388791      118.01721011991675      122.25092562219503
H          116.96492520147963      117.32724127570852      121.36534831358682
H          116.22779473601773      118.59671746144507      122.34392054933178
H          117.11095147617186      117.52543987227064      124.40222273881413
H          117.90473350417871      116.28971172666891      123.42747179697014
H          115.69402400374368      115.53997995801612      122.56699310804305
H          114.89476451523541      116.76967044511656      123.54626576502856
H          115.80021561132610      115.71617291492572      125.61022734234440
H          116.61052124012738      114.49330347065870      124.63348229059959
H          114.41775023455007      113.70828470524167      123.77689692381146
H          113.59571315358531      114.95181961431371      124.71799214791083
H          114.47829344375128      113.94651384952415      126.81661085848805
H          115.28845858158702      112.69411262057895      125.88042798310474
H          113.09490459454292      111.89960725424943      125.02497876032358
H          112.27844607715713      113.18470319178418      125.91452806780305
H          113.19058722814678      112.25063813615751      128.05436634417467
H          113.90858703238113      110.92037560498684      127.14996664978304
H          111.65459178095992      110.19578445972810      126.40326484739968
H          110.93176817108413      111.57206869642718      127.23790116427327
H          111.80742533544874      110.70147617647920      129.40686421012373
H          112.52825382173593      109.33719371757039      128.55844430979570
H          110.49068364366876      108.58082954577458      129.55895788925861
H          110.23153528963749      108.63139445065552      127.81366784147291
H          108.91498807484646      110.65501346740101      127.99043259904606
H          109.40730423473633      110.89173524134509      129.67071379988630
H          108.16139480025933      108.90339983037047      130.36621003106563
H          107.82077752336255      108.48784661740582      128.68700122140115
H          105.84059594512826      109.46805702417304      129.67701575500885
H          106.47880037154489      110.54056685889152      128.42756140519666
H          107.47882762708329      111.98817784087888      130.16992804801328
H          106.97230963707671      110.85935600672315      131.41986086606636
H          105.49407427347539      112.82247174477031      131.28919748358757
H          104.62821685782252      111.31529483931996      130.99699817130676
H          103.89701649952374      113.11512777239460      129.48921016768159
H          104.54306753885224      111.74051340993275      128.60273846055921
H          106.69004598978755      112.93081640046506      128.28507819138073
H          106.08176419127813      114.30369922499617      129.20925870130549
H          104.32450148032110      114.69046347561374      127.54286617201490
H          104.80051691579442      113.24901297209119      126.65009333047038
H          106.65441906599257      115.62160885705822      127.10251929163961
H          105.60918278111434      115.45685047137718      125.69295510804108
H          106.73351450010810      113.32556621208386      125.09472177531283
H          107.81318861510007      113.50088649065815      126.47863820987904
H          108.65051561283769      115.65419448638511      125.55352889239721
H          107.58714401131043      115.46743994774663      124.16418137348245
H          108.75693045712524      113.33382238993829      123.57790145867153
H          109.85472451770585      113.57399758713750      124.93227591277233
H          110.62211297118067      115.72190600310471      123.93442072830986
H          109.49607814104722      115.50470153214702      122.59953208232857
H          110.67631377540025      113.41006600543146      121.94717029316521
H          111.82628184075234      113.64909999897490      123.26029235086060
H          112.56376298242253      115.78685036511880      122.23732553398408
H          111.34469001977764      115.61314013097120      120.97835910116500
H          112.44611651387906      113.48239789227873      120.24551233860167
H          113.71361591451013      113.75346927740016      121.43836845763589
H          114.40175537826856      115.81861523792956      120.31450451099147
H          113.00712575474306      115.74236381270576      119.24276167584856
H          113.84819470419974      113.63822314389753      118.25409925838977
H          115.27312740683874      113.70158944171838      119.29312314341155
H          116.01599433448838      115.78087304140149      118.24432053392083
H          114.50407631693366      115.91687232315017      117.34790665295337
H          115.02921128662442      113.85192620717693      116.09701136833795
H          116.54350977891345      113.67982006659923      116.97996407808574
H          117.38017294052530      115.79336865144380      116.03158301243634
H          115.81507156262370      116.09956441423910      115.27732959038995
H          116.07454649128408      114.14660784732440      113.82421655132597
H          117.55073233511379      113.67628003121888      114.65903453922006
H          118.12121589826039      114.70233707805366      112.54488334498072
H          118.69059927237734      115.70880227088547      113.87395495964087
H          117.81021777097595      117.14179872615311      112.18475816514488
H          116.71273367496445      117.21157364004016      113.55554954172725
H          115.13485318051418      115.69490268891768      112.38301030686199
H          116.27949758724691      115.52713543168905      111.04949970312444
H          116.18038450147824      118.03419979613363      110.74959123277397
H          114.87045346434699      118.08320432982786      111.92835887096733
H          114.78938866654396      116.45754276701379      109.35264212365433
H          114.20683090242697      118.11493052578679      109.48122275738791
H          112.57294360905023      117.39755505361089      111.22921891901021
H          113.05922807083120      115.72158582334964      110.97854447445270
H          112.38600225564743      115.85135583434450      108.60593203267010
H          112.04020987696863      117.57010752264770      108.78160967999088
H          110.22797402652211      117.01687942002029      110.41505679145702
H          110.52837798118783      115.30170849136671      110.14629334997491
H          109.93653257891229      115.51311957328343      107.78480831310726
H          109.84002586553382      117.26860656722374      107.91593418950990
H          107.98611635759843      117.01376611326494      109.57753485968821
H          107.98383270969346      115.27666838148753      109.27586639749023
H          107.39155098155200      117.46491309665109      107.23668221947858
H          106.21731379829991      116.45057193750363      108.06576417426226
H          106.30999018684420      115.23472801895379      106.15028720011043
H          107.68562191455432      114.48365631060418      106.94113949140856
H          109.20777565331991      116.04971340165598      105.69191579343261
H          107.79705800545266      116.78744662959265      104.94309081721896
H          107.19793478264468      114.62192235804802      103.89674612197213
H          108.57572009272631      113.85101387206147      104.67314005372513
H          110.13164754694284      115.32715079724815      103.44057270204974
H          108.77366958597472      116.17730845281868      102.71319831644944
H          108.05611917627628      114.10403195386951      101.56793686517489
H          109.37488976584329      113.21240856567064      102.32461990403812
H          111.03205504667041      114.64799952311346      101.17424950356884
H          109.73267900256471      115.60103829574007      100.46710554087470
H          108.91241353325952      113.59456726124516       99.24998715485741
H          110.22648473201848      112.64219880556202       99.93873878189619
H          111.89162503596849      114.10718138247388       98.84491879823342
H          110.59960058190181      115.11639184100193       98.19808829984535
H          109.74475154755265      113.19956156623222       96.88252421918533
H          111.02723999024522      112.17449252505712       97.53085936366553
H          112.73129683963460      113.71131736862070       96.57827159255878
H          111.45429500710686      114.68946957027757       95.85901034855942
H          111.96756773492406      111.75020803003119       95.22623715398666
H          112.56558323564168      113.10800474679753       94.27343548994457
H          109.62541836277759      112.40447462311545       94.70838187923324
H          110.20431295452858      113.82516437377927       93.83703206799299
H          110.54878013382546      112.20936605901507       93.22138666867636
H          116.85206961549602      106.39179859800460       88.45197926218145
H          115.41052804560341      105.43666043460397       88.80428549697966
H          115.25132981073358      107.04201074114052       88.09201381417128
C          102.22495245605488      101.69270446350960      131.67521606721786
C          102.54586939068136      102.09465136503891      130.24157392372629
C          103.93012843553615      101.61741618303543      129.80844204175008
C          104.23422006425128      101.99694141201331      128.36230518065724
C          105.63446482208417      101.57454112923088      127.92502626617224
C          105.90855988466319      101.95463773808831      126.47251274389912
C          107.32898162975854      101.61108553173597      126.03049622036502
C          107.58314988121717      102.02360279775030      124.58271529201743
C          109.00237567710192      101.70416724649105      124.11932188675424
C          109.24935583376943      102.16644896179493      122.68469769015597
C          110.66726135103735      101.85732464306346      122.21241361848178
C          110.92158528784213      102.32362991457504      120.78104687020291
C          112.35508798943619      102.04656802245067      120.33415381594980
C          112.65001985087360      102.60615810589540      118.94500272280000
C          114.11358977932035      102.43253815859862      118.54563944955758
C          114.39854771231315      103.00208680530048      117.15816929056294
C          115.88480424448089      102.98216220653399      116.80939373941133
C          116.14816264417041      103.54442019901211      115.41457133799072
C          117.63697690400801      103.68989232404893      115.11024402510775
C          117.87875550323528      104.24845193995209      113.71028029837368
C          119.34389463202945      104.59911948978218      113.46218835872097