3864
 energy: -5104.239970508133 gnorm: 0.000855891894 xtb: 6.6.1 (8d0f1dd)
C           45.96158241125109       66.56657298221167       38.30475234885470
C           45.11654052865044       65.89614620809078       37.42758080037917
C           44.06325068784664       65.16199097438354       37.95866052734869
C           43.84905857384794       65.10680912529631       39.32486657105650
C           44.68397030492950       65.79669236242322       40.18673574224051
C           45.74515618583559       66.52297049534658       39.67051799951417
C           45.28678309288682       66.00672839029936       35.93280125519200
C           45.01857004464622       67.44920675629480       35.49066343787766
C           46.67136070499614       65.55695879543568       35.44695455279026
C           47.00195512143420       64.10291450398513       35.81232337510062
C           45.87056931037443       63.17477592399174       35.44031494101547
C           45.21204678455845       62.43722140741841       36.41557381541197
C           44.17939305016564       61.57897168275236       36.08138012950331
C           43.78194928108364       61.44350673623116       34.76321604636453
C           44.43281855748095       62.17217408159395       33.78150824167614
C           45.46758907336800       63.02665268707677       34.11720306684482
C           48.28323683846032       63.62593462063227       35.10643401036663
C           49.60178580183113       64.19143583849545       35.66175093352415
C           50.67675930203141       64.04270404271026       34.61352118792641
C           50.98739913214063       62.79856679506508       34.07623135430788
C           51.94655166120108       62.67354921070829       33.08686658128679
C           52.62522474607592       63.79006037140732       32.62832665455518
C           52.33094266328647       65.03279935776777       33.16217777906633
C           51.35987950171230       65.15608591526893       34.14055327384135
C           50.00217250056038       63.49445397757507       36.96956628940579
C           51.38894436946556       63.91019114002076       37.47109840868193
C           51.56778657540708       65.40656961526896       37.56103922780293
C           50.64880903872216       66.20454187314834       38.23480226856752
C           50.87409915158484       67.55917725214731       38.39924193210852
C           52.02805685472730       68.14037197448772       37.90015491257487
C           52.95132156428241       67.35575735870923       37.23049460638331
C           52.71983286986996       66.00179214272087       37.06294426604671
C           51.66698487005578       63.39126851724138       38.88959553704503
C           51.77568255766975       61.87054106209266       39.10514098306256
C           51.93333206653686       61.72411185742535       40.59961478363004
C           50.87347676589540       61.34579781711630       41.41039945897502
C           51.00305727507863       61.36666726969968       42.78972155525419
C           52.19004528636181       61.76885249421205       43.37371459171904
C           53.26382978611343       62.11761653019693       42.57292924495178
C           53.13236535250186       62.09631714868109       41.19958678992474
C           52.94744972491087       61.22379035305045       38.34281858016062
C           52.53965309538314       60.27175885213553       37.20423121492325
C           53.77720632723903       60.00244618531918       36.38163669945587
C           54.01462679803143       60.76592789166392       35.24455748747391
C           55.16387633951281       60.59507444160033       34.49387264092528
C           56.10499706923532       59.65249975390331       34.87083185546529
C           55.88816955646925       58.89301750604398       36.00717810046491
C           54.73857564623534       59.07145869210577       36.75679412965520
C           51.88992656320718       58.99669366123642       37.74961533981605
C           51.41830243484037       58.04738991052027       36.63983343589469
C           50.41213344137466       58.72546974176005       35.74322363626453
C           50.64188134942809       58.83140086975013       34.37699123630547
C           49.71324782139619       59.43257098376445       33.54403913233817
C           48.53748069667510       59.94603736709708       34.06608358442386
C           48.29809036591326       59.85080014789247       35.42698692960531
C           49.22644529042483       59.24240291446193       36.25218359420350
C           50.80612747138768       56.76144119372395       37.22644709171919
C           51.85986231111589       55.74262842526969       37.70240231639203
C           52.43347109931524       55.04537816946335       36.49364475357672
C           51.70778374224393       54.05333226694023       35.84244162462102
C           52.22470329210682       53.39993390437402       34.73950635017783
C           53.48022521189805       53.73445578963556       34.25847785821639
C           54.20518815112066       54.73202900255340       34.88637492033532
C           53.68511946467463       55.38133801214065       35.99371943915486
C           51.27367448342752       54.71860902031000       38.69830350111783
C           51.56351760547773       55.04209637732990       40.17270888856226
C           51.16518954833889       53.88577518982862       41.05838965353593
C           52.12302998234144       53.22042863870188       41.81184822376252
C           51.77126102351226       52.19139694638055       42.66721393470646
C           50.44612242269993       51.81137496347711       42.78523943393458
C           49.48065094389209       52.46334055652802       42.03647534861255
C           49.83853397933856       53.48775263383606       41.17911831449633
C           50.85887720163464       56.32088185573841       40.63548780760332
C           51.18056738256249       56.67313144494317       42.09434435347513
C           52.64313078929528       57.00069560019485       42.23898287753449
C           53.20674175776757       58.07469667204375       41.55850100716532
C           54.55900694678267       58.34287390001212       41.65957778780555
C           55.36870726323541       57.55215089030343       42.45814094661517
C           54.81240424187120       56.50241710220256       43.16709134991619
C           53.46071436465881       56.22931272557292       43.05466079185356
C           50.31172506808475       57.84958486419752       42.55693481227998
C           48.90245248824174       57.40940391574313       42.97735439918814
C           48.90335744283885       56.81787908721942       44.36299238601617
C           48.53315136306474       55.49374515552331       44.56121745384220
C           48.51939012251858       54.94335644396705       45.83026987693093
C           48.88059254430887       55.70735842833498       46.92592156099327
C           49.25878220348483       57.02552215553676       46.73960886952497
C           49.26321466804341       57.57552222726704       45.47101181168482
C           47.92646021630036       58.59288669532462       42.85362131607089
C           47.33397619517034       58.66563520362792       41.43439898237926
C           47.08959175157480       60.07794705857999       40.97950068330383
C           46.37438298194763       60.98795801960737       41.74875696365625
C           46.14696973109891       62.27191351536910       41.28656905827417
C           46.63733509180128       62.67333587188258       40.05438531361833
C           47.36068288448457       61.77781253567122       39.28531973483658
C           47.57943268830289       60.49360155040667       39.74835804341050
C           46.03893823686296       57.84565356059036       41.39468378367486
C           45.39285110107360       57.75264979162875       40.01072322882140
C           46.24452593264873       57.06566671117009       38.97096527432747
C           46.84562041791461       55.83544668631458       39.21195357926516
C           47.47023966565881       55.13785801299674       38.19417759256103
C           47.51531400424494       55.66440101357615       36.91478874488855
C           46.94798562140109       56.90133072357080       36.66580901820367
C           46.31921805076448       57.59233084218902       37.68653456023421
C           44.06070679954598       56.97657674230677       40.08827008589794
C           42.81523270426729       57.85048822356716       40.28896842975886
C           42.84029117320900       58.57606670987599       41.60804472674499
C           43.07277865791401       59.94534283337502       41.64416148560740
C           43.10600106177262       60.62870357761651       42.84669897023402
C           42.91749537647600       59.94987370896564       44.03676014653286
C           42.68544170859600       58.58349603388201       44.01486968177944
C           42.63911825299031       57.90493023374398       42.81054707331287
C           41.56173189833030       56.97022640894710       40.15295644475348
C           41.18087835116447       56.72515226952328       38.68206216085726
C           40.54377930290407       55.37156678855810       38.51713615323234
C           41.14201776277123       54.41180782496566       37.71235326677589
C           40.60038887844784       53.14443026365704       37.60041335041509
C           39.44904744375555       52.81493578753145       38.29232562483445
C           38.84055129149032       53.76693574399125       39.09376060818305
C           39.38255354007694       55.03457163454701       39.20129129397756
C           40.27074540374333       57.85308275908407       38.18426617860668
C           39.90975820960335       57.74121854472818       36.69569249885009
C           41.11499103324068       57.39108636146231       35.85712315409540
C           42.27604535613374       58.15484409224258       35.90744296838226
C           43.38955314465986       57.81026055216015       35.16401277932703
C           43.35818378183814       56.69388547381956       34.34554510150338
C           42.20361180990681       55.93487095801678       34.27093860915614
C           41.09346372552648       56.28228639505493       35.02156760470182
C           39.29605303934163       59.04809424775264       36.16328100010383
C           37.98793066188912       59.46216692082596       36.85691420205286
C           37.64810717593189       60.88017920289561       36.47120866449501
C           37.68052786650612       61.89694555770576       37.41649411038233
C           37.36819700840699       63.20009608819895       37.07176587207904
C           37.02421492087997       63.50845476244766       35.76782383425794
C           36.99456213976343       62.50486901006622       34.81337531660886
C           37.30242348003802       61.20313514108145       35.16357066025147
C           36.82915890421858       58.49410280961180       36.54053679887627
C           36.27666972889849       57.79243176359843       37.79283134964905
C           35.43901681839996       56.61051183482539       37.37264754883536
C           34.19777072813289       56.76905441305910       36.76693289870671
C           33.46283199155786       55.67039440232448       36.35828354839194
C           33.96301401859289       54.39133954513983       36.53448170653364
C           35.20489754530747       54.22113343123328       37.12107179810749
C           35.93189714725059       55.32182998886997       37.53909342659315
C           35.50213612349739       58.77998463037220       38.67162142755285
C           35.10874792906066       58.17835020338732       40.02715980907821
H           44.53582242459859       65.36362591380515       35.45964042686217
H           46.70315131092449       65.67296404368282       34.36093821431073
H           47.43516377591742       66.21360389829186       35.86677667134713
H           47.14090316546059       64.04867143780099       36.89627274163789
H           48.32223855239479       62.53602056858456       35.16138309167715
H           48.21507327701187       63.89249847813576       34.04865649890259
H           49.47901905029541       65.25997216453104       35.86338893565713
H           49.25935879735157       63.72596043313962       37.73417101790395
H           49.99720627595694       62.41407023244115       36.81024719134754
H           52.14303959458638       63.51630150080561       36.78189564256079
H           50.87162915699676       63.76411554197442       39.54041829589914
H           50.83278008746073       61.41099331568676       38.79821651804087
H           53.57797812664170       62.00393070774719       37.91261235624318
H           53.56929295101884       60.65600363942210       39.03872953719323
H           51.81556736485336       60.78559910341676       36.56195706357713
H           52.59926851647395       58.47601562699565       38.39380246924132
H           51.03519495924670       59.27657204371482       38.36762923795533
H           52.28248705049848       57.77033657415565       36.02558259246245
H           50.13932619865813       57.02376030953085       38.04763079142806
H           50.19246599447131       56.28695314848342       36.45711129472081
H           52.67355716507361       56.27923626556209       38.20049751661303
H           52.64587565203029       55.18601254045723       40.27731637894376
H           51.17158257961805       57.15114185432637       40.00341280810508
H           49.78065003205935       56.19721789570238       40.51837839531376
H           50.95630253648952       55.80841545289550       42.72866440713423
H           50.79869720919436       58.34415136904510       43.39897195365042
H           50.23929262672025       58.57889044665206       41.74832809923709
H           48.56446476407242       56.62352006738247       42.29494692509686
H           47.11461745762331       58.48097079891184       43.57411671631749
H           48.44748094532530       59.52235152531887       43.08763255076718
H           48.04507273303706       58.21450579240214       40.73282232798936
H           46.25940563745383       56.84411322423865       41.76690290240744
H           45.31812290201868       58.30146281624281       42.07543277486229
H           45.18628479000971       58.77016842576868       39.66037537917622
H           43.92385693082856       56.42483416699563       39.15473581545633
H           44.11569561597724       56.24286769787881       40.89446182985511
H           42.80081296241003       58.60367422551610       39.49306544028811
H           41.75387157066388       56.00827080953797       40.63220680721122
H           40.72080280300468       57.43778775946340       40.66988305992737
H           42.09482672645907       56.72934973143651       38.08016447346220
H           39.35416952619769       57.84685046586920       38.77623311185454
H           40.76784335746780       58.80624973226613       38.36708597453730
H           39.17844520651854       56.93380470649987       36.58219124852386
H           40.01897227184504       59.85780629747941       36.28973160311882
H           39.11686024811437       58.93933837450258       35.09049715497687
H           38.17159857687344       59.45587326843613       37.93370301492090
H           36.01315586492315       59.03638216338349       36.05830233636903
H           37.16738604976369       57.73119017644235       35.83613987677423
H           46.79406660032901       67.13894976152966       37.92099191586330
H           46.40788410480903       67.06070595759402       40.33326335795529
H           44.50761331654882       65.77203082686603       41.25348558966366
H           43.02092122535178       64.52827672537795       39.70879584909918
H           43.39680782788099       64.62763018946364       37.29583480276821
H           45.50037537524836       62.54028472710350       37.45119373830572
H           43.68202212240500       61.01981414264190       36.86013128299125
H           42.97407069870876       60.77640651118553       34.49824028086257
H           44.13032351790006       62.07428828436417       32.74805705392904
H           45.96164130437027       63.58811633138328       33.33742307703627
H           50.47320962152237       61.91445659164268       34.42269336628760
H           52.16426158952499       61.69901725792401       32.67221958676835
H           53.37662716629928       63.69265663509695       31.85764045711506
H           52.85534272615546       65.91050025421767       32.81151200819924
H           51.13272643346203       66.13273149061460       34.54539534466350
H           49.75006130835362       65.77003216404218       38.64730910507438
H           50.15121661832822       68.16374552256498       38.92928495038470
H           52.20780739237075       69.19799636750970       38.03447749841894
H           53.85881331835825       67.79620832638058       36.84139518753915
H           53.45205947384104       65.39941590929223       36.54351904127307
H           52.59837195555031       63.85382277095864       39.22693773157912
H           49.93077438471992       61.06021808341385       40.96354036147481
H           50.16144276374252       61.08614934362728       43.40590466387380
H           52.29031898061666       61.82590410031805       44.44557945123884
H           54.19819666094505       62.41775326696445       43.02445886259245
H           53.96595743681942       62.39272307921468       40.57997357424521
H           53.28851450738544       61.50787320780866       34.94167729633833
H           55.32403418749730       61.20182377322737       33.61280255380316
H           57.00356988172493       59.51030502873235       34.28586263515430
H           56.62221912070050       58.16236496702733       36.31498161199514
H           54.60384140769851       58.47145993525019       37.64500184184790
H           51.56003910586600       58.43839899991003       33.96062263095404
H           49.90841300365442       59.50507646819324       32.48296582753031
H           47.81348219334227       60.42027567331800       33.41828186113201
H           47.38144301994176       60.24854392120417       35.84117727587170
H           49.01547608641705       59.15768756595205       37.30642038935576
H           50.72912630264402       53.77974961504268       36.20915503084353
H           51.64703843677330       52.62407934335516       34.25554910507579
H           53.89115208264026       53.21785164435554       33.40200995974300
H           55.18360360197403       55.00625973056312       34.51558580881133
H           54.26848788208791       56.15718895583822       36.47146346679634
H           50.19716519263765       54.63985493117904       38.54513089712058
H           51.71322893323627       53.73864151199989       38.49328861973709
H           53.15888835909769       53.51474168854975       41.73231719412960
H           52.53710667776394       51.69633702373631       43.24732733964083
H           50.16585664878473       51.01632408184832       43.46195021725914
H           48.44230542912535       52.17579391372727       42.12429848910348
H           49.07224394277375       53.98652542723906       40.60405473149699
H           52.58642609884001       58.71519855375862       40.94848047200352
H           54.98146125471879       59.17682621808037       41.11576953694023
H           56.42608946667753       57.75724004639883       42.54017715317477
H           55.43587016054614       55.89800826510653       43.80984638850356
H           53.02936436839511       55.40182578943749       43.60155364764612
H           48.25205410471320       54.88211757490084       43.71440931741269
H           48.22552674402709       53.91346658191402       45.96480982752637
H           48.86628279094499       55.27797854417350       47.91711691047959
H           49.55636016798515       57.62815531860658       47.58664513700915
H           49.55493974694494       58.60762348498206       45.34335759708890
H           45.98980674168246       60.68950557413718       42.71250006705092
H           45.58633527954994       62.97269991547385       41.88852013541963
H           46.45460664019384       63.67852092263723       39.69961196442890
H           47.75502889205850       62.07227391768779       38.32354665559171
H           48.13338982481692       59.79318754204611       39.13862916270565
H           46.80387314685694       55.40155002446874       40.19991220297224
H           47.89504754377985       54.16276252049988       38.38868348913520
H           47.97490006408313       55.10774820558131       36.11083837024665
H           46.98361760705406       57.32160540076867       35.67026874819739
H           45.86161387876625       58.55028696557106       37.47833472268962
H           43.23995722907337       60.48840112789573       40.72408378553472
H           43.28351693155403       61.69435779486853       42.84595770977975
H           42.95197148897546       60.48627642881985       44.97480703547224
H           42.53990247911084       58.04823206058379       44.94272168214741
H           42.45094543681920       56.84144349635886       42.80561663248790
H           42.04647651940258       54.65077912605823       37.17137363870683
H           41.09831617471465       52.41266511052623       36.98103107060629
H           39.03643121342042       51.81834012545640       38.22007988546886
H           37.95315377011410       53.51444936229567       39.65515912314203
H           38.90255030763365       55.76221096268010       39.83942740002036
H           42.31595471888455       59.02679382695961       36.54279304387867
H           44.28503438741247       58.41226641290568       35.22213372477596
H           44.22970580627725       56.41829987564032       33.76884623423192
H           42.16658784406528       55.06437937539592       33.63189719676731
H           40.20076169025538       55.67427797476754       34.96589617311310
H           37.96069810726869       61.67219144964850       38.43604593420030
H           37.39652186757947       63.97559176818610       37.82338229391510
H           36.78002372634226       64.52474971129033       35.49391878407115
H           36.72866351723193       62.73905264959005       33.79214897788081
H           37.27178969637762       60.42819231103979       34.41102099326818
H           36.90039831004528       55.17698808473580       37.99636583183157
H           35.61353504331984       53.22853168696994       37.24770071541522
H           33.38850120668219       53.53531591293174       36.20984175306560
H           32.49690645263339       55.81285557021074       35.89403461303440
H           33.79544106925724       57.75870886044557       36.60595034645754
H           45.06110123273778       67.52757982914349       34.40633431389717
H           44.03244572487220       67.76874062241556       35.82143445703868
H           45.75703511106293       68.12658038089799       35.91332866188182
H           37.12306255111413       57.40745157198563       38.37138822988780
H           36.11303126733543       59.66916160609257       38.83278711769022
H           34.59898833047436       59.10531405885266       38.15197243328244
C           34.25116883417075       59.17827853753869       40.81529690822941
C           36.32201663751252       57.78798484527631       40.83470361843074
C           36.50526417046672       56.47115183350969       41.23769328932145
C           37.59295305094791       56.10856749491433       42.01463549640592
C           38.51461434060354       57.06528904514973       42.40254777620344
C           38.35020344557854       58.37923595677024       41.99925635217668
C           37.26443252017067       58.73607375123638       41.22080414055815
H           35.78778907951094       55.71962117818178       40.93676386318295
H           37.72376164493993       55.07565586738231       42.30613921352646
H           39.36186058374805       56.79336443514972       43.01160127669846
H           39.07157932048412       59.12635998322376       42.29918286891219
H           37.14708749219030       59.76631357438038       40.91509535570334
C           33.75123974354831       58.60184520870242       42.14639764361971
H           34.83983614611017       60.07491520250741       41.02125949542586
H           33.39377551882527       59.48229601468202       40.21023705765104
C           33.18708610273608       59.70590973048326       42.99138744271134
C           31.84829872917286       60.06492151882803       42.91671469411145
C           31.36526569658173       61.13718940317946       43.64764885693756
C           32.21787247191971       61.86604397527403       44.45867981710868
C           33.55347793619487       61.51132258570436       44.54632717165338
C           34.03114780184440       60.43804946530522       43.81808209016857
H           31.17825786049944       59.50217075335281       42.28117937098787
H           30.32055045524080       61.40716223383230       43.58010691691771
H           31.84456698007412       62.70980498069298       45.02093407465819
H           34.21640489094212       62.07917852557429       45.18404731225624
H           35.07158965833492       60.15237884426021       43.88449897351040
H           34.50978222173669       57.27872063411909       39.84075861849814
H           32.99635337161104       57.83646628567764       41.95379386518751
H           34.59191844603671       58.13600647095489       42.66550350621630
C           39.49606320502738       50.03569848350287       34.71428199101929
C           40.49296669456243       49.82257178238188       33.76735603961558
C           40.22012868365126       48.96487931004037       32.70900505069054
C           38.99532065001112       48.32661490237631       32.60374391825756
C           38.01818591031202       48.53776769358706       33.56072917437834
C           38.27173312680144       49.39980906562099       34.61453448435861
C           41.84367288104932       50.48947170694623       33.88737385126648
C           41.70408622335584       52.00371348995146       33.72086232249148
C           42.47790619479615       50.11897034416005       35.23426736381635
C           43.96656182686965       50.51120466527475       35.38647069269233
C           44.12153797734981       51.46246825253718       36.54614079550917
C           44.49497800772505       52.78230505679932       36.33032446686443
C           44.54574230781535       53.68778694357960       37.37540127202681
C           44.22725265954691       53.28062179966602       38.65885631130570
C           43.86774046551074       51.96465723068822       38.89053191533499
C           43.81834279920852       51.06271356448840       37.84379175365395
C           44.81214297463094       49.24235756753770       35.54539008578962
C           46.30950781633917       49.48267757464154       35.78481707758252
C           46.92215368310922       50.41602025741752       34.77514984915697
C           46.88652529949845       50.13069433841289       33.41471140072427
C           47.49539772545582       50.96757057370916       32.49755949050704
C           48.15481019350186       52.10667661582517       32.92633047430451
C           48.19142669581528       52.40522018095628       34.27689833333809
C           47.57807863193666       51.56787577234866       35.19166631238667
C           47.01896533484147       48.12160574549443       35.74908707371896
C           48.52435687096222       48.17936262281367       36.02684803110307
C           48.84766945185218       48.66865564636362       37.41421232064656
C           48.31504518438852       48.04752115188423       38.53637986590535
C           48.64739992574511       48.47535028613699       39.80845290664603
C           49.53170935624338       49.52557345525484       39.98161959499889
C           50.07442018275536       50.15113072721697       38.87261962479371
C           49.73066716675751       49.72564143040415       37.60084538043696
C           49.13784089373813       46.78219063777976       35.78840546598089
C           49.74712015969786       46.65817451225577       34.38242006499943
C           49.79376537415887       45.21651844696992       33.93718659756357
C           48.95774108227450       44.76866215015297       32.92098371882384
C           48.99023856460543       43.45211809616808       32.49626542675438
C           49.86027558958501       42.55204150101344       33.08703818905430
C           50.69586414595126       42.98483183431016       34.10246697068273
C           50.66225762627354       44.30238995826102       34.52328475778275
C           51.14283130978598       47.28966096778064       34.37140705306104
C           51.78240222738170       47.27093598934571       32.97439012334876
C           51.33872813690548       48.45451318624548       32.15730501827544
C           50.48258155621622       48.27357080096042       31.07883902892057
C           50.06700823654546       49.34640637707101       30.31098776313063
C           50.50599817277752       50.62380571873170       30.61051329873278
C           51.35422917251795       50.81864421226165       31.68703009947789
C           51.76286197656206       49.74443305231888       32.45573889579521
C           53.30812785342894       47.19198306975640       33.11480965097188
C           54.06736512187400       47.34982805938050       31.79079083556788
C           53.39146902589517       46.63169868356206       30.65060675195683
C           53.17527272298945       47.27571637153882       29.44038299675592
C           52.58224283134985       46.61520919439671       28.37826537435875
C           52.19473064965204       45.29334404152631       28.51154888132234
C           52.40430560071899       44.63975177819002       29.71412990505459
C           52.99838897282849       45.30304633520647       30.77126115386000
C           55.50253180813324       46.80774709235102       31.89637617154317
C           56.31748954038022       47.34009449903974       33.08212183834203
C           56.42466885864958       48.84190924014369       33.07803558431230
C           57.01023273683540       49.52524574097288       32.01938632089127
C           57.11932240383236       50.90341325647831       32.03972869798774