3795
 energy: -5103.715691754775 gnorm: 0.000924082695 xtb: 6.6.1 (8d0f1dd)
C          101.05149018383037      123.57432410793687      114.55558015821266
C          100.10383023636935      122.49322450166602      114.99896764696119
C          102.29323840227764      122.96212741820671      113.88928939788514
C          101.92213470461527      122.15495463484497      112.64812016317927
H          102.96559690277074      123.77258821516311      113.60381004175592
H          102.81456484182544      122.32331883956994      114.60377608815126
C          103.12544173637508      121.93326966253183      111.73238229433761
H          101.49976419993472      121.19052989977052      112.93618650202450
H          101.16646224583435      122.70016316733505      112.08259640419635
C          104.21714236092609      121.11713959358612      112.39323646716329
H          102.79121311476602      121.39745158320514      110.84272969152072
H          103.52342866362484      122.89912700963248      111.42598118311854
N          105.37887440530537      121.75216859785787      112.56046079310823
O           99.09386669464335      122.31166126838013      114.19485189100119
O          100.27783108283369      121.83841236062894      116.01812562293871
H           98.44328483415210      121.60347470094970      114.49672614259315
H          101.35716516388479      124.15432951100898      115.42660647746716
H          100.53614084753360      124.22117005282759      113.84596458831423
C          106.53356542252772      121.12239812906807      113.16249603695839
H          105.41705055922658      122.75353815243983      112.38619340493348
C          107.73853075774959      121.01147959878678      112.22325698509935
H          106.82016767862373      121.69300092869165      114.05103689383051
H          106.22345618654667      120.12049315217781      113.47108383173514
C          107.39823507956389      120.35437527338367      110.88401676600270
H          108.16693882426483      121.99825531843706      112.04881818011080
H          108.48297468920796      120.40226815230241      112.73834377025369
C          108.62623531932343      119.71762651786769      110.23546461023203
H          106.64066279921819      119.58601096198606      111.04984055223662
H          106.96859133085690      121.09320148888236      110.20748116505476
C          108.31361996097728      119.05300840406794      108.89422392892969
H          109.39540928470149      120.48017049854087      110.09802343080648
H          109.02297536228072      118.95321994701817      110.90646915974678
C          109.52189009666942      118.24750940123371      108.40416468290317
H          107.47312266499574      118.36596323032221      109.01462096950932
H          108.02629383336568      119.79428692918469      108.14496644744791
N          109.24531842707465      117.47212663001432      107.21613044497687
H          110.35279126399342      118.92124295170075      108.17581916987363
H          109.80261667493539      117.55496224810173      109.20268189796957
C          109.62245117669052      117.81070032846715      105.97921889802207
H          108.73475332136084      116.60510167377895      107.35105337336302
O          104.04521406240075      119.94419419266224      112.73071274302852
C          109.15452671691747      116.83512425555126      104.91181156372836
C          109.94343076530990      116.98152675174913      103.61179361373613
H          109.25847321056466      115.82338982021963      105.30858402757703
H          108.08885962484801      117.01813376727985      104.75348105322473
C          109.71978870763255      115.83504896594873      102.62540365834708
H          109.69409539201625      117.93420667879307      103.14299263733913
H          111.00520621838719      117.00949501806792      103.86436478348064
C          108.37104271255360      115.90772374841283      101.90041208358221
H          110.51380062059836      115.84392104934474      101.87524548928704
H          109.77785466699451      114.89027804178454      103.16913821070936
C          108.12878791998804      114.62729081194679      101.13392839161439
H          107.57144107383216      116.02444658771780      102.63283088951015
H          108.36452989723702      116.75396905653841      101.21634152447297
N          108.60760504724924      114.57779641024194       99.88931812266517
C          108.46400926963342      113.37566359615761       99.09166025435265
H          109.20235475929199      115.32179022585461       99.53555850163816
O          110.30416424284839      118.80233776394788      105.72705277200890
C          108.34019345485366      113.64914414160904       97.59629998159869
H          109.32172971712016      112.71157677806698       99.25746442239493
H          107.56675837795261      112.87132739872705       99.46157147933458
C          109.70514576456512      113.84752035378851       96.93648361474133
H          107.85201919746446      112.78625612790717       97.13973009446705
H          107.70518839272982      114.52046190300671       97.42976500047563
C          109.60331725709604      113.87659924943367       95.40944040751334
H          110.13819271914718      114.77255366740292       97.31903360193090
H          110.35169463585279      113.01723157522362       97.23043553146317
C          110.90389167310633      113.51877170572868       94.68309951983129
H          108.85228620377964      113.14238647103832       95.10930330790946
H          109.25498108235669      114.85506978281364       95.07342915073886
C          111.94315251633188      114.63933356319370       94.64466148140147
N          112.56879784559925      114.86715879481322       95.92534718502658
H          112.74546995623997      114.37915483278759       93.94972491467298
H          111.47529967075050      115.57068429079247       94.30578531179926
C          113.87415447968571      114.71741895741005       96.16802736920587
H          111.95642384802142      115.09794347645905       96.69013551362627
O          107.53389463059020      113.67105460425442      101.64216731008509
C          114.32765586734173      114.99960581806516       97.59056360860492
C          113.44163943260267      115.91151133815106       98.43393711572099
H          114.43713044017649      114.02661586907797       98.08092358579250
H          115.32397309790163      115.43700116149088       97.50530595154676
C          113.27691062297926      117.29686665631597       97.80816611237158
H          112.46820768472344      115.45196854412774       98.61117449115272
H          113.91966564719864      116.02822814808107       99.40965374252634
C          112.29733784740043      118.18503730018185       98.58320915753245
H          114.25150541123674      117.78764369837252       97.79916618770291
H          112.94218507271178      117.20653947875455       96.77320190652337
C          110.86192605333213      117.70346695278333       98.52937553034499
H          112.59910173237250      118.19573943589648       99.63123838815557
H          112.34199873707868      119.20257029493438       98.19649991602175
N          109.99357605365688      118.57908565048210       98.01095296902082
C          108.55980570168011      118.38886727505346       98.07200940868015
H          110.32220599137420      119.49798195753412       97.73244762549835
H          111.35373093847647      112.63727090325969       95.14429218294622
H          110.66347264157716      113.27040267852028       93.64820262909103
O          114.68400331869644      114.36875270462360       95.31175707713155
O          110.51638596396403      116.59126789498630       98.93324301648083
C          107.97800169458272      119.09027789512173       99.30123536883805
H          108.11014587109382      118.78179826365339       97.15805404887867
H          108.36555403889832      117.31458809477722       98.13133605319338
C          106.48615447550898      118.82718019062460       99.48318345243257
H          108.52761237799776      118.74285091825126      100.17821520776094
H          108.14411195429219      120.16585080697016       99.21740643206005
C          105.91239592649164      119.60080672692250      100.67238909342610
H          105.96429435034315      119.13468436520716       98.57495481637230
H          106.31282251625096      117.75756473668997       99.62274963458978
C          106.33547841428479      119.01431048834029      102.01824252294186
H          106.24452948150922      120.63683083945800      100.60730282031484
H          104.82194041243906      119.59195994950457      100.61417804719956
C          105.90019906388341      119.87368271490799      103.19794918155114
H          105.90321857392526      118.01993936437732      102.13538687130692
H          107.41936804836151      118.91470194522054      102.06320584892983
N          106.78064073293631      121.01326092808496      103.35830305037544
H          104.86696674498944      120.21756144232174      103.05863792701355
H          105.93522103777035      119.28971532315231      104.12191977068454
C          106.88725076318825      121.67992911802322      104.50344135620561
H          107.28123993129319      121.32585951705684      102.52860733587409
C          107.83504695282326      122.86626645919503      104.49822308113868
C          108.57548061157405      122.99504084216153      105.83022420264874
H          108.53246205909981      122.78727555976785      103.66666475948246
H          107.21920815532798      123.75338455376989      104.33723480319044
C          109.78631006924994      122.06946714951356      105.89414185486011
H          108.90775498111299      124.02569441196579      105.96508380268095
H          107.87851573137179      122.75121183849249      106.63420872481706
C          110.51253504924303      122.15705749183363      107.24462410754401
H          109.47238342779576      121.04189352262837      105.70434161886921
H          110.47682081976463      122.35756798697281      105.09821386267318
C          112.01272734929191      122.01895354318719      107.05999089715228
H          110.33033752022094      123.12596092331546      107.70891329777440
H          110.15134139556969      121.38039080284236      107.91816973694981
N          112.39628178897816      120.90415733677648      106.42963812646803
C          113.75679449324643      120.70086963693852      105.98124238661281
H          111.69752670863387      120.23814016266141      106.12085691524366
O          106.23720640079685      121.38878605749163      105.50979347703004
C          114.10671201534925      119.22169480067117      105.91174284938872
H          113.87973069817930      121.15617940872070      104.98902535873202
H          114.41115647431245      121.23522227298827      106.67538328336583
C          114.17734356772137      118.56433131011714      107.28668375105715
H          113.35029643264382      118.71348169885813      105.31244897900608
H          115.06542702776358      119.12891392618296      105.40544979021149
C          114.60159690860841      117.09523044320333      107.20903485136485
H          114.88136061472615      119.11487311777486      107.91321716683056
H          113.19023976077835      118.62989832386083      107.74629252417381
C          116.09487008420069      116.93412820784943      106.93400368733681
H          114.36141858589026      116.59868219617185      108.14953876832679
H          114.03484667435418      116.59909130718948      106.41876781709766
C          116.48597129668291      115.47406176997877      106.72352548199829
H          116.35329643205465      117.47896362760530      106.02826462568341
H          116.66790642445038      117.35215494805045      107.76371196594945
N          117.87372603337327      115.37160443262655      106.31763255645842
H          116.37008866863009      114.89687206378079      107.64242779247505
H          115.85038982985628      115.03318546595959      105.94972714678970
O          112.80086922945894      122.87985233713628      107.43983321669798
C          118.76849236350640      114.52565135455492      106.84617267197191
H          118.13828634279258      115.90572745725893      105.50330241221141
C          120.13146650582793      114.56300928529338      106.18429656701871
C          120.07698879535033      113.91568651692754      104.79815412372579
H          120.49151869532328      115.59058671587525      106.10019696157056
H          120.82517140228821      114.00092233187134      106.80765574344930
C          121.46235164976235      113.86075434513245      104.16183190953410
H          119.68521316665638      112.89975609019055      104.89280546850426
H          119.41027203131502      114.47920000302865      104.14186194847049
C          121.42593347611670      113.17535364927186      102.79485299272464
H          121.84846763903496      114.87504997479773      104.04272002694758
H          122.14324593187990      113.30364607285269      104.80927716785123
C          122.83609203242837      112.97785469536568      102.27548746715621
H          120.97066880448280      112.18863637332278      102.90567139732141
H          120.84182319153022      113.76348160859882      102.08718997528054
N          123.18842214736998      113.78442226684426      101.27329012982509
O          118.51369210587099      113.79161645210438      107.79458905169622
C          124.42931761657192      113.64680971540105      100.53598388808271
H          122.50944207154819      114.44658416657276      100.90204100242599
C          124.20959457986223      114.04548726235504       99.07731819905233
H          125.21428638005720      114.26447134931830      100.98866275171710
H          124.73882912842787      112.59947151349603      100.60721443571745
C          125.21556702099582      113.39013122298009       98.13570309609199
H          123.20048221181622      113.74654364245853       98.79268732937521
H          124.28290094179935      115.13010153333572       98.99119382594026
C          125.08737259081980      113.85317687118065       96.68108701928037
H          126.22612966745233      113.61466672724629       98.48288866720307
H          125.08470435856707      112.30653711860728       98.17572434980426
C          123.70726208878516      113.58866354245745       96.06224725713798
H          125.31061144152176      114.91930148014521       96.61621269988007
H          125.84450338627541      113.32616353028493       96.09882140912688
C          122.78141605982945      114.79827949028346       96.17278324199997
H          123.81637096054034      113.32588744895573       95.00935287840935
H          123.23773717432036      112.73699462373571       96.55779952118010
N          121.39327409571631      114.42354262520359       96.00036584639405
H          122.89455579057872      115.26987001272373       97.15278431932896
H          123.02195444280048      115.54577175770966       95.41115397508061
C          120.45162745108354      115.26857854373060       95.58441869531913
H          121.12465831293355      113.49556961041156       96.30921090038503
O          123.59726259342118      112.14426157473218      102.76710913696522
C          119.04806193237231      114.69756926738430       95.63104999238736
C          118.46641769358051      114.83524161059640       97.04466218939231
H          118.41212713120829      115.22891410921117       94.92127830229241
H          119.08800696346543      113.64462257415641       95.35180718258823
C          118.22038943537727      116.29710181363295       97.40172180018425
H          117.52313818554879      114.28608382355532       97.08837446140278
H          119.15334360396440      114.38417098352961       97.76467863285852
C          117.74223058199856      116.49441809761748       98.84104094056318
H          119.14334897106519      116.86057465613493       97.25762492345466
H          117.46911097909963      116.70604160047145       96.72115792373803
C          117.32032865590737      117.94011208123921       99.01439671233356
H          116.87599073734937      115.85929453806450       99.02949499894659
H          118.52984725576430      116.22541117099928       99.54313897384505
N          118.10920951075735      118.67640022179742       99.80536234889635
C          117.91931171683174      120.09645482373558      100.01472916993039
H          118.85928451979927      118.22229902362402      100.30355838601180
O          120.69628951186270      116.42104849667027       95.22009124170347
C          117.56382525374984      120.40810943896686      101.46778357133297
H          118.84052029898508      120.61333596051226       99.72550955122561
H          117.11928829533757      120.40701495239676       99.34092544790209
C          117.50335198842265      121.91198709883635      101.73613516317238
H          116.60505850790253      119.95062631021364      101.70904833616540
H          118.32074857037938      119.95236658125405      102.09980680772068
C          116.11385020036445      122.50646586844790      101.51764032199915
H          117.79440531262949      122.11529869533985      102.76460364242068
H          118.22093206866484      122.41107796350730      101.08300561315589
C          116.18455727126434      124.02975901283509      101.46300572334626
H          115.68025547975867      122.11838152240247      100.59505851446177
H          115.46125940683172      122.21031671929651      102.33949678252256
C          114.81657618082261      124.68741017975964      101.37090432296361
H          116.67527630583915      124.38957518575566      102.36738228873757
H          116.77560624568702      124.34132319407914      100.60122732194117
N          114.10925695853911      124.59155653444904      102.63331510117990
H          114.93247987430674      125.74511826000032      101.10459542228779
H          114.19829388799310      124.21459133481213      100.60121064983731
C          112.78239984896135      124.59673188123121      102.70433682451315
H          114.67409672392778      124.46488491225830      103.47325254958773
O          116.35021632164222      118.40931377509096       98.43047844329389
C          112.19696263722901      124.54810842944393      104.10078503606105
C          112.32028207084721      125.90396117557432      104.80672891526693
H          111.14177924412004      124.28163186693685      104.01839611964721
H          112.71608372010306      123.79557866310594      104.69610074189121
C          111.60792909362209      125.87812117205974      106.15779319372788
H          113.37544110455846      126.12746626482640      104.96511430437171
H          111.89724606293947      126.69037187365485      104.17711077894528
C          112.04026822590916      127.01880945877926      107.08316485195326
H          110.52768430114438      125.92363878672771      106.00649969941060
H          111.85145101553810      124.94020879238202      106.66027738563309
C          111.67442935635812      128.40172126927499      106.58099746616772
H          111.54088701939382      126.88487159783635      108.04456531131602
H          113.11636693338602      126.96753258833932      107.24013589946030
N          112.70500455463474      129.11441418520300      106.11887255944444
O          112.06647669038013      124.65161937771745      101.69792207460367
C          112.63480784849033      130.52071398728071      105.79045442278296
H          113.63525211484557      128.70342117983552      106.06634146541292
C          113.83437955735396      131.25266841496537      106.38939127072547
H          112.62846808242523      130.65324217899226      104.70127811694536
H          111.69266992197547      130.90910295372382      106.18663619090478
C          113.82792835972730      131.24412492590005      107.91846195844067
H          114.74196876214580      130.75861564261422      106.03662864726743
H          113.84400326682700      132.28019185167483      106.02401253571885
C          115.17620531380318      131.70546830884535      108.46913379504659
H          113.03274591079290      131.89653881603618      108.28614428079376
H          113.61891144685777      130.23136423301861      108.26657492169528
C          115.19586896246568      131.91137912461218      109.98470253408657
H          115.93439334752020      130.96964851002258      108.19568968370609
H          115.44519639677029      132.65213202270283      107.99541318299384
C          114.89873386266419      130.64848341432872      110.78809695587778
H          116.18415169101971      132.27830950740750      110.27168143507517
H          114.46230400652716      132.66970464842726      110.26353046898288
N          115.80830508658228      129.58350579520788      110.42783206876351
H          114.96611666927899      130.87962614868221      111.85858336231922
H          113.88534875676889      130.28947608109621      110.59449414242981
C          115.48043114113557      128.29216487286322      110.52646489878467
H          116.77662606407451      129.83463401029300      110.26928071630982
O          110.52583182666396      128.84550289747904      106.62300673676097
C          116.44736717038406      127.32630265951332      109.87137578442439
C          115.70577139239728      126.68346305634996      108.69384287828950
H          117.33778576489338      127.86006531141146      109.54100649912169
H          116.74041633374657      126.55025931612383      110.57833835922956
C          116.46395717220241      125.54302567440553      108.01688504776985
H          114.75299856104373      126.29901114784224      109.06605410137074
H          115.49048699998222      127.45571984204756      107.95151198812877
C          115.57345097268407      124.96846760122099      106.91691854545239
H          117.38820074005207      125.92998813520252      107.58290730538700
H          116.72585451542940      124.78412933128072      108.75375057231835
C          116.16949863742229      123.94005447570028      105.98509152838017
H          114.68854425174648      124.49955894961914      107.35966214066620
H          115.22293412724332      125.79321174554642      106.29164190678445
N          117.03226215619047      123.05589010358294      106.49411225721539
C          117.57292307516664      121.98984933496274      105.66831758697238
H          117.37893308712525      123.15377851711987      107.44094036492781
O          114.42375977635776      127.91583280674901      111.03698842368402
C          117.98907298043355      120.77748446669081      106.49188658458162
H          116.78812147195002      121.71568318851435      104.95780148996150
H          118.42863091494615      122.36935482939118      105.10389913193450
C          118.20251470447657      119.53242964247428      105.63089514455517
H          118.90133555239859      121.00774682342393      107.04152177323631
H          117.20275960938736      120.55731464689276      107.21386186661177
C          119.39450875454521      119.60627307902354      104.68172224148840
H          118.35110013619072      118.68026546576955      106.29398313508969
H          117.30122310645389      119.36084125435137      105.04021546465793
C          119.51689836327274      118.31558349109308      103.87185723686625
H          119.28256798767256      120.45558861218470      104.00913769609905
H          120.30814906557372      119.73559833320725      105.25563757115543
C          120.58943908736769      118.41513789190239      102.79067629730848
H          119.79208324666304      117.50261989007299      104.54499922507758
H          118.56323466111533      118.06733349216036      103.40224747994991
N          120.51467118808478      117.25249893239874      101.92792849547661
H          120.45800154567125      119.32845599615824      102.19793279299881
H          121.57046596914806      118.46238651651390      103.27161364973452
C          121.42612058704859      116.79439542412732      101.06859336646849
H          119.67636050363578      116.68275249186769      102.03098962076533
O          115.83046004971706      123.89664845310456      104.80083817713407
C          122.65074357452427      117.64562667329436      100.81360330511986
C          122.40075783843176      118.63579399716575       99.66580733366142
H          122.92654118042162      118.19718084794792      101.71046713645480
H          123.47764823981461      116.98734291348529      100.54318048591951
C          122.35587678717233      117.94075931194300       98.30790042167334
H          121.46721362677874      119.17569390757546       99.82980488191099
H          123.21477131810875      119.36178647614399       99.65924083265210
C          122.29775892855679      118.92539713135007       97.13305449779192
H          123.26324951014017      117.34396349615275       98.19239536901451
H          121.50414039453166      117.25839944599311       98.25749743096051
C          120.97365916800095      119.66057999947840       97.05388286694807
H          123.09591327264235      119.66139057150399       97.24515991870203
H          122.44655503732963      118.37416568484019       96.20463038987937
N          120.07923309998414      119.09970330713654       96.23897371585907
O          121.24690883569997      115.72094578243927      100.48281566722572
C          118.75827069632406      119.64369469175232       95.99299363950645
H          120.29783575121127      118.21725857344654       95.78715917149810
C          118.23003941463502      119.16739795674403       94.64466716960408
H          118.07747292612625      119.33889637275649       96.79351592398085
H          118.83792230783646      120.73440692833859       96.00650643646864
C          116.82297928112855      119.68509247086187       94.34041428160920
H          118.91399609328322      119.50382017434957       93.86226243507055
H          118.22846184888785      118.07532199168762       94.63037034930690
C          115.74164630275044      119.05877543065034       95.22083214449800
H          116.80719959578691      120.77006315803615       94.46556761687343
H          116.59744634865069      119.46806433175038       93.29448040266497
C          114.33745338222054      119.55468367315488       94.86889981430818
H          115.76891860948255      117.97120884285779       95.11258541265416
H          115.94312307668243      119.28215976518064       96.26811957529608
C          113.71756531670709      118.79950775836194       93.68651873832394
H          113.68063333354272      119.42614680913040       95.73287923935368
H          114.37355274024253      120.62223475804059       94.63518280966142
N          112.37181098975927      119.23187099179583       93.33437277284304
H          114.34091348456180      118.91252055347752       92.79575767856645
H          113.67020545710349      117.73165740035068       93.92512401697394
H          112.39278130085782      120.21040413560789       93.06740673196363
H          111.77427667592107      119.16292141018518       94.15211068248611
O          120.75203396532439      120.69512995323592       97.68290354203218
C           96.48997686028737      118.97929565492882      116.81821136688203
C           97.55216515539449      119.86328498212826      116.22651692517714
C           97.02159217854107      117.58191704097649      117.15871935998993
C           97.32148086951879      116.78165248363594      115.89556935735227
H           97.92623764363414      117.67973999945202      117.75940671525069
H           96.26969847979687      117.05858404289410      117.74986958079936
C           97.84015580555526      115.37685773148728      116.20197496455796
H           96.41609423959557      116.68758990210006      115.29184011518872
H           98.05980239561056      117.31156886149267      115.29051064218557
C           98.00553596004573      114.59400016294448      114.90956811964074
H           98.78873881818966      115.41061126722148      116.73547058865368
H           97.10749247552567      114.84981463533155      116.81738216589197
N           99.15778423265496      113.92754343820735      114.79614637979279
O           98.61481097113426      119.98964618468985      116.98070193040896
O           97.43779227202818      120.43770300135435      115.15373777328591
H           99.28103478690275      120.63876577117846      116.60230423365570
H           95.65899787346858      118.91608322572358      116.11581779207459
H           96.14696657473627      119.46637329175296      117.73331790567964
C           99.46224105465738      113.13744845323993      113.62136433609246
H           99.84188176451538      113.95430244934857      115.54841277134125
C          100.35098231547276      111.94252866466134      113.94928516888913
H           98.50390695130595      112.80919809261172      113.21442236450108
H           99.94681329122996      113.77230681941955      112.87029553460594
C          101.82369649319293      112.32453146763068      114.10639390817123
H           99.99159556661483      111.48888276836932      114.87485580657977
H          100.24676039327289      111.19624810535059      113.16214126469964
C          102.51703696446216      112.67609801694584      112.78939364333260
H          101.89874887976083      113.17941029927796      114.78138447735830
H          102.36406315449329      111.49488713490285      114.56583104152622
C          102.60150149099067      111.49076947963718      111.82938796675471
H          102.00719326334637      113.50865292554155      112.30082644568040
H          103.52736331118291      113.01259091222821      113.02879714482286
C          103.45497689818660      111.79839841666364      110.60864024391216
H          103.03631280567656      110.63685102517384      112.34900208282582
H          101.60533956592698      111.20250071534463      111.49248912259252
N          103.62805396835593      110.60510088536762      109.80119471149013
H          102.99848538236049      112.58361895811485      109.99796385768644
H          104.44151985849477      112.16916097395929      110.91591212444470