3536
 energy: -3716.218982930692 gnorm: 0.000807882780 xtb: 6.6.1 (8d0f1dd)
C           73.52813576346894       45.81689042804405       58.44075357331457
C           72.48180141290948       46.84499664095831       58.01806865487227
C           73.03476688440929       48.25775169461992       58.20482248929648
C           71.18131038753992       46.70128002840575       58.81714648344972
C           70.44286568422261       45.36539038553923       58.67283929147170
C           70.15480738431320       45.03735715807920       57.20659291852161
C           69.10552657439473       45.38971037350031       59.43013082769820
C           69.15820413448824       45.68535819038833       60.93330133569751
C           70.05089310835990       44.68474089801222       61.66707629916777
C           67.74572836454534       45.63350020061362       61.53834044831090
C           66.79328765796299       46.76828797176051       61.13060923280420
C           67.22205019899073       48.08951231005043       61.75944605344139
C           65.36865725096487       46.38978518321208       61.55747373997122
C           64.24092668205208       47.36804789886247       61.18704844946378
C           62.92259117281065       46.77285896535422       61.68005500931488
C           64.22248233457763       47.63856631332204       59.67650608222771
C           62.97523339928153       48.32486191104087       59.09649876704705
C           63.16780888674585       48.47287988906519       57.58653044594886
C           62.70986797481373       49.68819318566727       59.74459656413388
C           61.34873630001263       50.32402877868981       59.41536202341599
C           61.37659390704523       51.79484315602950       59.82633342434477
C           60.21459295131480       49.57635933227818       60.12762035436362
C           58.78103003492920       50.04418446409842       59.83273241044624
C           57.82804685575782       49.29344049589175       60.76229828492325
C           58.41383898122834       49.82925043828862       58.35980855656366
C           57.01771174699318       50.34618511285991       57.96498744358142
C           56.01158511746524       49.20062773619316       57.85167822073986
C           57.06163352596577       51.09893803042284       56.62798953363851
C           57.68533565447351       52.50045200320909       56.70101389530993
C           56.67661192053031       53.48822903696384       57.27813285246333
C           58.16832198956211       52.91661844062674       55.30438491970654
C           58.89365117127281       54.27337675805010       55.22286834266789
C           57.94847538424374       55.38152194655869       54.75875173893557
C           60.10949620929946       54.22079566401577       54.27421456014035
C           61.48248845399635       54.11645765012708       54.95637733660596
C           61.60867716032236       52.84465560627081       55.78929106445403
C           61.77144313453194       55.37313592551253       55.78824409645120
C           63.25274538041980       55.64682287529200       56.07992600890476
C           63.36045286954944       56.85456853575148       57.01040380271755
C           64.06027238260144       55.87038525206664       54.78632188759894
C           65.07998111351931       54.75632833921753       54.50042695662354
C           66.36708368432303       55.02798926296543       55.27664855125032
C           65.35506119651485       54.63711299818303       52.99763069296880
C           66.11335188418673       53.37268754590011       52.56730384682563
C           66.61112805238467       53.56672039600863       51.13538258720710
C           65.21351968892220       52.13316734314908       52.66256808011146
C           65.93544699378599       50.78632971005121       52.47715567953446
C           65.09380193155486       49.85705683067604       51.60082589289409
C           66.21917616991408       50.06101854841986       53.79886224647678
C           67.14096937743132       50.75902096244373       54.80727855961874
C           68.53805038728311       50.97951194065998       54.23466402031616
C           67.19983364528493       49.88408895281894       56.06895093659495
C           68.03803655474208       50.41328333839643       57.23777081595186
C           68.11681711715694       49.33667817739573       58.31974385383154
C           67.58661151037245       51.76004758034904       57.82561114835027
C           66.20653174805220       51.82615369741020       58.49879337635050
C           65.09973785223575       52.17941023497107       57.50874848989127
C           66.22377407083255       52.88245320709348       59.61729866892572
C           66.75844692286066       52.37301227098415       60.96363150410787
C           65.66864491738635       51.57417905844136       61.67634593977341
C           67.20308434116477       53.56787004300931       61.81492458943364
C           67.84333961822918       53.22473841977149       63.16469390159985
C           67.75368879105763       54.43992905049267       64.08624262508222
C           69.30422197041155       52.78807760890910       63.00638432698784
C           69.79981243074629       51.91239502226126       64.17241923106117
C           71.17795467771018       52.36902694034501       64.64901289130184
C           69.82717173578735       50.43369219262884       63.76049621184902
C           69.78171557582986       49.44803067483107       64.93632896264010
C           70.26853751590633       48.07253243856527       64.47780680657810
C           68.36472970663444       49.34881658059665       65.53567723888045
C           68.22057887402946       49.93270099952151       66.94579130864787
C           68.94608450849920       49.05464078531921       67.96583226988658
C           66.74212076678950       50.04245463926891       67.34717604011337
C           65.92209520976125       51.11008387227281       66.61251515344496
C           66.33487154556335       52.51395141722586       67.05415296281274
C           64.42101240817728       50.93445332707519       66.88471491124365
C           63.76553080582966       49.66804492690727       66.32266514757534
C           63.78701204024902       49.66393381078760       64.79383955165309
C           62.31171843022304       49.54925602131345       66.80483687858160
C           62.10210743319451       49.43385114269356       68.32084849908760
C           62.93948212648809       48.30436266308973       68.92268945579221
C           60.62302002233019       49.17663799814403       68.64605615645043
C           59.64564152191321       50.29981684054428       68.28416242852781
C           59.93272790061604       51.56774124583224       69.08873431819961
C           58.19623464222854       49.87081106161986       68.55288980640296
C           57.67770917811686       48.65492727625600       67.77386426667172
C           57.94528486020215       48.78950387945421       66.27599977440289
C           56.16996584443854       48.47541107225322       68.00308964915148
C           55.78340675744570       48.16860010035087       69.44803249515074
C           54.28435103808410       47.93036004401708       69.58637890693628
H           73.19412450034922       44.80465736261782       58.22758038807449
H           74.46139422127170       45.98371054562539       57.90633717059498
H           73.72794290624763       45.89594620208798       59.50794146009165
H           54.02236970873019       47.71183710500738       70.61938745720092
H           53.72867942275589       48.81090225074028       69.27175175423265
H           53.97072986188361       47.09103093591423       68.96943341726823
H           55.64937331032542       49.38044379753334       67.68048575687317
H           55.81837456840711       47.65402468606753       67.37305209694146
H           58.10325539981646       49.66315672791876       69.62105077618000
H           57.54810729050529       50.71924874120825       68.32180000262930
H           59.74528950461403       50.54517530330016       67.22442492688819
H           60.90900473213237       51.97792029781069       68.84687641613287
H           59.18667675853291       52.32933492865883       68.87101264650653
H           59.90535968833059       51.35668039933914       70.15682686339278
H           60.32312448305829       48.26180748341904       68.13106782662737
H           60.53287857926485       48.98633440236526       69.71965225474533
H           61.76437494095737       50.42125887111609       66.44020725900289
H           61.87179954337029       48.66474096594843       66.33465552334614
H           58.17899189648140       47.75089295860202       68.13868836965312
H           57.48684821343831       47.96286360212657       65.73722778926411
H           57.52758079492926       49.72218123907749       65.90214322177799
H           59.01150031924103       48.77961759386527       66.06497862394224
H           62.40323096902975       50.36885114808178       68.80136518264983
H           62.74054022606621       47.36480042659100       68.41093092262560
H           64.00225157913616       48.51971771368446       68.85149601317175
H           62.69663353949646       48.17464315373070       69.97575655583724
H           64.31161463348793       48.78550343295846       66.66544764308928
H           63.33341355227098       50.57124252357995       64.40087359407293
H           64.80454860588270       49.59872253121486       64.41849242103157
H           63.23515526113871       48.80929996207063       64.40820247770340
H           64.28090433356726       50.95851939203516       67.96738711249176
H           63.89432384645858       51.79599013736960       66.46485661519338
H           66.09589459086806       51.02948911223773       65.53678820536855
H           66.15133828459719       52.64699170579606       68.11905803043345
H           67.39027738049602       52.69140365555061       66.86708002964735
H           65.76639273532824       53.26671653541511       66.51303618998435
H           66.28858781142428       49.06264092873897       67.18458034411698
H           66.68586482907993       50.25212908876271       68.41927351988048
H           68.67718458271140       50.92694831583441       66.96914078233358
H           69.99263044097268       48.92605548685886       67.70048528742788
H           68.90110173534491       49.49995097274106       68.95784221619195
H           68.48402003972805       48.06986234897049       68.01267922521987
H           67.66865177400052       49.85952306302858       64.87015223850955
H           68.05780080771125       48.30076894132335       65.57463858789581
H           70.47196689835414       49.80344633013122       65.70782813524477
H           71.28728471024645       48.13056608874103       64.09868012232752
H           70.25568067166104       47.36560480457807       65.30518192953478
H           69.63052718449335       47.68788831587111       63.68542959772684
H           68.97760473308433       50.22562710088738       63.10668990234601
H           70.73563178065224       50.25693875047480       63.17827780706147
H           69.10317566967524       52.02242401005868       65.00862072873177
H           71.13972119749764       53.39774390589099       65.00253805718818
H           71.53704212972332       51.74567818420015       65.46535765821449
H           71.90235002106434       52.31312146990474       63.83796894927784
H           69.42019565415869       52.23381444547956       62.07506422322675
H           69.92466347985389       53.68340628000298       62.92343837730430
H           67.28352396421329       52.40871552787519       63.62885113816315
H           68.28421074631470       54.26425547122486       65.01965873770413
H           68.19334381130302       55.31106250224525       63.60180403323999
H           66.71589957472061       54.66668300876567       64.32064085278407
H           67.91095380166317       54.17448081528315       61.24398897702918
H           66.32111208205187       54.18294228595148       62.00027095497823
H           67.61710999489279       51.71683019756220       60.78243982680439
H           65.24255698245601       50.82651770233422       61.01298556398198
H           66.05835135648665       51.05990459395797       62.55092233005445
H           64.86590203515563       52.23561083251978       61.99639766438200
H           66.82510242028012       53.73028889185643       59.27907445305328
H           65.21063209463759       53.25643217201713       59.78228540487343
H           65.97548850771491       50.85422018781830       58.94195066219641
H           65.27938669040364       53.16726923526349       57.09352929876803
H           65.04362399836333       51.46854183902099       56.69082334984976
H           64.13473366392877       52.18906960611660       58.01316199228734
H           68.33768127009549       52.03079741551890       58.57195192099768
H           67.63121014287526       52.52171293914129       57.04431924041653
H           69.06044104967326       50.56744489948758       56.87137755913967
H           68.57507275663589       48.43493361707711       57.91869575698975
H           68.71211566879634       49.67828261103511       59.16387528472425
H           67.12913106111809       49.06922166456636       58.68571711433590
H           66.18417973160017       49.69375029966810       56.42238702328257
H           67.61565243510880       48.91291320935953       55.77999971062900
H           66.70981888101494       51.73033794578380       55.06160694648442
H           68.49658293983065       51.52642522629240       53.29668324891870
H           69.14726377014223       51.55714955069163       54.92486607630093
H           69.03384548853803       50.02833916985097       54.05274101824469
H           65.25873518057220       49.86724447374325       54.28634267067418
H           66.65929117008905       49.08764091820891       53.56070706974464
H           66.88430897953468       50.95208479497046       51.95996292621385
H           64.12148559368916       49.68574968189025       52.05884715508931
H           64.94182248944398       50.28860717091978       50.61326704982864
H           65.58134788463825       48.89180114417608       51.47942522577805
H           64.70316273306490       52.12394524157864       53.62653121387095
H           64.44020761165662       52.23208741745869       51.89633931504247
H           66.98206936378118       53.24170663280819       53.21625037987010
H           67.14119712244052       52.68949859426497       50.77194630339809
H           65.77187428308667       53.75579017983399       50.46806244949477
H           67.29054379794187       54.41381646289404       51.08052345964875
H           64.40424731240473       54.65248613673788       52.45783680958304
H           65.92301388037875       55.51573156397766       52.68061930117929
H           64.65419797763792       53.80963311143774       54.84590407505654
H           67.06148635433317       54.19417994242049       55.20715789161358
H           66.86358223238754       55.91180302904996       54.88041381867147
H           66.14969763607516       55.20419755346591       56.32852848154520
H           63.36909462814049       55.95284748257844       53.94698012417194
H           64.59408622136205       56.82108218818966       54.84324428058147
H           63.66317649749362       54.78376323444489       56.61275115606165
H           64.39824364579043       57.06406435776752       57.25839928276369
H           62.93763876098783       57.73701673271282       56.53416076620623
H           62.82013652510776       56.67874358408232       57.93901181800310
H           61.36734807718791       56.24298602070917       55.26300817708997
H           61.24617916199313       55.29474986269593       56.74329593515559
H           62.22314497930008       54.05898823024816       54.15106912988934
H           60.88508546201891       52.83354257164046       56.60033554512212
H           61.44496442329386       51.96746597532931       55.16688408310803
H           62.60274338853869       52.76806140870680       56.22105037448772
H           59.99724117335263       53.38137729161766       53.58295741809222
H           60.11937037437647       55.12505930584072       53.66066718220203
H           59.24477341672454       54.53313951221291       56.22521311051161
H           57.04161887693587       55.40546149830688       55.35485466578682
H           58.43178266983961       56.35198899839040       54.84390245680419
H           57.66791672235137       55.23158207038457       53.71816509006342
H           58.84547433004087       52.13598834896005       54.95272878842474
H           57.30826136085474       52.92372245972568       54.62932686670211
H           58.55539217913677       52.46733016507234       57.36812387959575
H           57.12904795338483       54.46453239684994       57.42988989117914
H           55.82552773197457       53.59580131735593       56.60736597447500
H           56.30442559839958       53.13922918105379       58.23869692491781
H           57.61530010972109       50.48549640127776       55.91531554368252
H           56.04316648792534       51.19933536785275       56.24354897640411
H           56.66561110589490       51.03634442112341       58.73928587172429
H           56.28026238117730       48.54789263052751       57.02257629200174
H           55.98520712334151       48.60406720682601       58.75933521541567
H           55.01062309740115       49.58783911186932       57.67032352032781
H           59.15939431945073       50.33711660178963       57.74780497261371
H           58.48511664500990       48.76316562769651       58.13058909262000
H           58.69782916424987       51.11262620102396       60.06028479051928
H           58.13213300947445       49.41675416804321       61.79949993128434
H           56.81089994248096       49.66378530148820       60.66499028399134
H           57.83242428033243       48.22969771169529       60.53116342153698
H           60.27006370346868       48.51686507727725       59.86956126921574
H           60.38350703734498       49.65834654615168       61.20565816370565
H           61.19307724661715       50.27646682153205       58.33437699484247
H           62.19755867876192       52.31451816531372       59.33658801568640
H           60.45308887239769       52.29587479802613       59.54979000723727
H           61.51213048656731       51.88363928967005       60.90266235427744
H           62.78555421391425       49.60050571341566       60.82983381383461
H           63.49756493459519       50.37091251554772       59.41864429236372
H           62.11544244509614       47.67120732859288       59.26289715670611
H           64.00803557316600       49.13224315048611       57.37653619158304
H           63.37022598028444       47.50774506345469       57.12715169542885
H           62.28183904311474       48.89204536512288       57.11677428135620
H           65.09134009981558       48.25178519185113       59.42566762920007
H           64.34432523954544       46.68169324202559       59.16141897415550
H           64.40653910975708       48.30904051612620       61.72071214017681
H           63.00105076657794       46.53135409504902       62.73888734571041
H           62.10107981052354       47.47212456802848       61.55493098355770
H           62.69060948958523       45.85734949468004       61.13983490797607
H           65.12838458386111       45.41767429967744       61.11754169416555
H           65.36341650330441       46.25894347839930       62.64369426626241
H           66.81646988592254       46.86876317685832       60.04309300605856
H           67.14467384841133       48.03430913567176       62.84389008403331
H           68.25036872767126       48.32560699983152       61.49837689524451
H           66.59589037599953       48.90367822102832       61.41009612973079
H           67.29534308738090       44.67618066099041       61.26120854303179
H           67.83406922255675       45.64196872380594       62.62845566101637
H           69.56973459980533       46.68636945862195       61.08687850273305
H           70.03935921374445       44.87797937744295       62.73804746291122
H           69.69958138069848       43.66818889242212       61.49965919711044
H           71.08077958981794       44.75304825416623       61.32693107549058
H           68.47038166534972       46.13857895685135       58.95414193652484
H           68.62445996161792       44.41600540215800       59.29622320265163
H           71.06458935184979       44.56448430246903       59.08382964624791
H           69.62043424440331       45.85595662732614       56.72944252121718
H           71.07164475161593       44.85576388461234       56.65249711461960
H           69.54053125543810       44.14166841721273       57.13472952716642
H           71.41955981003701       46.85966631939927       59.87106982431358
H           70.50454188460726       47.50107710114889       58.50923884846963
H           72.26591238512583       46.70718477258057       56.95399276185842
H           72.30035529192860       48.99907617634215       57.89838174011944
H           73.28454556833556       48.43467125532366       59.24936218423389
H           73.93463032264496       48.39907771964805       57.60966493781608
H           56.32511774013294       47.28166936680226       69.78688749151715
H           56.06689639807208       48.99877709481720       70.09644046484183
C           34.00273587988440       54.85356550687714       67.40819589210841
C           35.30089717595374       55.21972625554180       66.68926147931069
C           36.36175487544067       55.61380423961916       67.71441235520420
C           35.03676603004538       56.34848689938573       65.68503933378449
C           36.18058540450838       56.62976849184017       64.70455783695533
C           35.94465865013954       57.97158492467578       64.01003531295815
C           36.42932394394346       55.50363603642926       63.68781048999406
C           35.26169999032324       55.13448539566581       62.75408356375144
C           34.52547481027910       53.88812449388517       63.24809341044704
C           35.77371952812900       54.87334004697733       61.33041535222581
C           36.23173245787469       56.14128597912090       60.58608606601880
C           35.14116953171884       56.60498292323389       59.62232070048273
C           37.55838291433930       55.89202321787537       59.85854473955424
C           38.28608657712024       57.14286490773424       59.35104042722216
C           39.41980147222800       56.71215500329685       58.42076839555605
C           38.84624707779662       57.98141664003388       60.50947896616751
C           39.02120708883814       59.46462656648933       60.16088043535883
C           40.02852810717047       60.11890803559957       61.10404317727939
C           37.67917634495575       60.21008938334253       60.20719243811843
C           37.60632211658841       61.41156446814178       59.25156551484568
C           36.50214914592882       62.36808080566305       59.69681189158538
C           37.37132259629071       60.91830425309875       57.81895826399583
C           37.39036816939656       61.97502443621355       56.70310824539372
C           37.18114943320798       61.25484342024316       55.37003757118455
C           38.70259976717579       62.76898475481596       56.72688636548554
C           38.98353278479985       63.67664718920577       55.52065126864228
C           40.33987096906167       64.35017596943005       55.72642116429813
C           37.87924411008385       64.72112507511248       55.32418729895216
C           38.04362554561672       65.62294534406165       54.09163233793880
C           37.04580027354209       66.77833725064455       54.17717661498311
C           37.84362761365185       64.83793044361953       52.78872867116726
C           38.45509915070425       65.49738067683461       51.54327046038080
C           37.79995552067000       64.91896855388100       50.28970107833622
C           39.97425798398035       65.29132313909960       51.50780811356876
C           40.69360153105378       66.09627592119027       50.40854880180385
C           41.22642928247617       65.16866021582436       49.31567296005899
C           41.85725820530342       66.92321692885891       50.97220917845774
C           41.45257546461246       68.10586305061388       51.85913380972627
C           40.82705291281418       69.22364222103262       51.02355399215411
C           42.66701186555848       68.67456481296793       52.61038629505735
C           43.25560655134749       67.78988655133780       53.71422242899820
C           42.27669042671663       67.64378861902927       54.87928939907571
C           44.56819230538379       68.37931965148589       54.25057231454294
C           45.77826764484509       68.41634657244394       53.30321329642739
C           46.05452539779660       67.04336370577894       52.69679652257150
C           46.97979976500935       68.92056918223994       54.11939175983983
C           48.24282616629687       69.29506644914180       53.33065602080167
C           49.42608666513426       69.36219696322453       54.29715162084305
C           48.06318350131532       70.62737222907049       52.59375160437875
C           49.12790997592242       70.92855911450330       51.52756991828843
C           49.12194932970237       72.42579891464257       51.21865352561345
C           48.87606986518459       70.11992661603826       50.24828919413516
C           50.06427641870938       70.09307192985430       49.26753623898336
C           49.59299690801938       70.44088166113339       47.85415277534790
C           50.77205543852072       68.73090275468293       49.23076132465467
C           51.39707380179102       68.26850031710995       50.55361150485766
C           52.61268689391827       69.12684525314398       50.90234629011191
C           51.81506707942318       66.78611517559020       50.48076108096617
C           50.81999157517174       65.76582572515360       51.06099411067981
C           49.48797144940453       65.77690679286030       50.31909888616204
C           50.61726638518114       65.97844337249731       52.56560974736664
C           50.00740489095858       64.78123012941761       53.31238015221133
C           49.34288797457524       65.28305424782809       54.59249436128185
C           51.08324155183399       63.73531317538514       53.62565535714151
C           50.57409887321960       62.33411287971605       53.99986956318975
C           51.71973214306838       61.55321843911653       54.63941206083965
C           50.02847029693072       61.61323475976545       52.76078198473471
C           49.58884658464927       60.15198795225781       52.94530039635863
C           49.14717438542348       59.60724510808794       51.58812490181086
C           48.46898582211838       60.03531046240943       53.98460492472125
C           47.87860580822010       58.63227929345741       54.19637401457348
C           46.74450419218121       58.72944427159145       55.21421016804282
C           48.95568453662437       57.64673814299619       54.65779328415898
C           48.48532413830493       56.23093809643892       55.02483210440435
C           49.70741161331535       55.41375864741708       55.44151253476726
C           47.74823300561739       55.58969814765877       53.84561292432910
C           47.34673785675368       54.11487106583635       53.98413206357226
C           46.74577962602672       53.67419247687844       52.64877945397911
C           46.35369508032091       53.91206594435474       55.13582300412300
C           45.90269567083301       52.46139821847635       55.38840085522479
C           44.41315727422593       52.43027727509928       55.73516693814192
C           46.67667030649582       51.76838960953526       56.51685597386811
C           48.17243351854358       51.52762459826119       56.28711022601412
C           48.45992368322131       50.82456367190569       54.96156413778830
C           48.75434612037786       50.64521190898933       57.39988861177285
C           48.68119737555337       51.17380766595832       58.83579609901265
C           49.48505785784540       52.46329962433438       58.98680358801960
C           49.20550084693979       50.08720220543546       59.78469323667082
C           48.74862123389570       50.24387327288024       61.23079157072642
C           49.32502411355618       49.14113840041185       62.10907701248895
H           34.17035616116065       54.04397256736561       68.11576556435213
H           33.61765220665907       55.71179819407393       67.95554483596767
H           33.24182301356088       54.53269557323592       66.69913337982804
H           48.99527408399143       48.16447751720572       61.76093406255823
H           50.41254034634849       49.16292045179116       62.08342490248489
H           49.00286135833220       49.26170965547328       63.14038942482745
H           48.86057384275599       49.11075155150821       59.43463730155625
H           50.29703531568109       50.07714365458207       59.75051294701790
H           48.23160090799824       49.68452704826350       57.36131692335243
H           49.80500184938160       50.44984469087463       57.17023964297873
H           48.69332844338541       52.48937889622006       56.28483449605542
H           49.53279557985979       50.68795703247865       54.84803005618711
H           47.98401499653902       49.84594733534738       54.94182572199820
H           48.10212111226777       51.39364328374693       54.11020005008516
H           46.55392022334444       52.36403837131959       57.42498498696369
H           46.20356045319114       50.79936039523869       56.69986598460611
H           46.78852607769181       54.30537452774506       56.05680378565794
H           45.47124979898760       54.51947584747110       54.91325646597221
H           47.63535074645510       51.37191153832997       59.09477225004596
H           50.48746604742465       52.33251927887034       58.58277747584658
H           49.00760548715246       53.28460716739433       58.45845533497243