3536
 energy: -3716.198993153410 gnorm: 0.000971344453 xtb: 6.6.1 (8d0f1dd)
C           73.52763823645748       45.81735132543501       58.44067914370907
C           72.48149001163183       46.84476579586272       58.01709573875728
C           73.03395972792998       48.25779060898420       58.20396236842078
C           71.18119561513811       46.70161758328345       58.81690320427633
C           70.44299160424934       45.36548520896121       58.67305028507877
C           70.15486829644489       45.03688426213206       57.20691932544988
C           69.10548610038506       45.38999925473267       59.43021575456529
C           69.15875171689244       45.68666134809835       60.93339494246101
C           70.05099262628553       44.68598467464537       61.66699866469290
C           67.74619697031352       45.63354893145375       61.53833981849232
C           66.79355459210433       46.76797229896665       61.12999139460005
C           67.22189147281502       48.08917475734285       61.75986880889667
C           65.36902822896030       46.38920679702002       61.55745824990682
C           64.24141279240636       47.36818373516556       61.18792689132619
C           62.92288646551547       46.77256713533031       61.68050894647548
C           64.22286190677778       47.63849485678514       59.67704768394094
C           62.97518280720787       48.32440195428306       59.09695212931334
C           63.16809553185528       48.47312215060375       57.58673862237687
C           62.71011237425233       49.68808984844136       59.74518674278453
C           61.34913677847353       50.32441732708742       59.41508939601606
C           61.37714658290508       51.79531603911312       59.82724502618434
C           60.21496302358575       49.57660249597411       60.12782816703877
C           58.78127577336320       50.04486660434347       59.83327952125451
C           57.82834012846624       49.29312237874768       60.76244627651307
C           58.41423112538706       49.82896893531685       58.36012334405863
C           57.01771318392535       50.34601110607930       57.96590245032490
C           56.01184849677551       49.19998263442046       57.85194237064363
C           57.06163125574096       51.09841681316764       56.62830447651534
C           57.68601790063281       52.49994337337401       56.70203731480606
C           56.67652268333322       53.48776248911956       57.27846451726867
C           58.16870079125376       52.91605792446687       55.30488098393224
C           58.89439549543664       54.27305935064578       55.22386066727613
C           57.94869697802136       55.38093695636753       54.75898434698475
C           60.10982151292027       54.22037037984335       54.27422772994903
C           61.48329654571769       54.11584739556773       54.95599011437938
C           61.60913683319794       52.84404806198334       55.78931104114387
C           61.77168779124977       55.37263161966258       55.78845221275770
C           63.25337221735443       55.64602997063649       56.08016027083719
C           63.36069410913107       56.85425568482036       57.01032461233362
C           64.06045124555088       55.86974615006402       54.78603662512386
C           65.08019934311685       54.75525028708763       54.50030007165203
C           66.36745722770962       55.02816062490165       55.27621333406017
C           65.35496662205750       54.63672417787772       52.99713763427830
C           66.11360032098521       53.37219092236830       52.56695167621304
C           66.61041896173545       53.56609959160175       51.13460199898940
C           65.21291644897755       52.13291051972236       52.66270639465366
C           65.93567420019103       50.78626343755764       52.47706690693012
C           65.09407295581917       49.85693525387403       51.60062048292645
C           66.21899375588258       50.06105483262774       53.79910195805440
C           67.14105338963113       50.75985142361216       54.80728455132176
C           68.53847184141901       50.97928430382868       54.23454433898834
C           67.19973216137062       49.88415793090326       56.06886798817082
C           68.03854568316498       50.41313657365880       57.23760650842555
C           68.11704361794733       49.33660128924512       58.31974161031901
C           67.58750475840131       51.76029241139702       57.82543402834047
C           66.20738427408946       51.82594485286310       58.49906176581622
C           65.10026781158093       52.17952054357112       57.50890383006180
C           66.22433352484369       52.88294973224025       59.61729246931359
C           66.75873397354658       52.37321771394542       60.96389082682646
C           65.66820038815318       51.57489506539044       61.67651385160497
C           67.20355306199058       53.56821163280694       61.81520176716090
C           67.84387480886157       53.22428513802351       63.16513279992001
C           67.75387403683074       54.44013139931924       64.08608731896298
C           69.30496594636827       52.78806698895315       63.00656235226431
C           69.80001520158677       51.91226404188368       64.17302164577762
C           71.17818726902850       52.36903733514856       64.64839007242091
C           69.82718840580323       50.43359092163986       63.76031446339064
C           69.78162383996484       49.44807549536407       64.93634821113376
C           70.26782614347148       48.07264703002461       64.47749384305639
C           68.36455809998166       49.34926044319099       65.53569947519897
C           68.22105639488683       49.93418202163275       66.94567856420386
C           68.94629975885310       49.05587353196362       67.96517430371284
C           66.74258901700759       50.04299572391628       67.34737933681369
C           65.92250437206597       51.11035023190697       66.61225719078116
C           66.33462925672845       52.51443657466147       67.05440922405647
C           64.42122397927550       50.93505434958034       66.88492928058568
C           63.76588487831992       49.66833508436634       66.32325859119506
C           63.78757820772987       49.66322735430280       64.79414441042476
C           62.31173659928105       49.54939112068165       66.80466674884748
C           62.10264251887843       49.43399382727242       68.32099704977743
C           62.93994966840202       48.30418490560353       68.92165633497555
C           60.62357239676344       49.17626443451398       68.64594569395841
C           59.64653863852629       50.29976683957163       68.28373636943107
C           59.93341237314320       51.56753654993016       69.08919270710234
C           58.19700505048998       49.87073348369415       68.55315481334915
C           57.67872547497300       48.65449604010794       67.77445221019367
C           57.94607512148941       48.78911292133505       66.27617032519336
C           56.17083351703586       48.47483526213066       68.00330587576133
C           55.78429520858499       48.16889694656282       69.44856297642933
C           54.28527265733925       47.93020289266879       69.58594185997566
H           73.19367260828921       44.80523533126733       58.22773019741543
H           74.46031231762460       45.98492724508566       57.90572285870874
H           73.72692973584469       45.89761671066564       59.50764742303170
H           54.02421674466310       47.71128554616620       70.61875986282712
H           53.72887218251875       48.81059189333396       69.27203373113977
H           53.97255971066528       47.09080500321607       68.96885663541016
H           55.65047096190435       49.37946889735655       67.67884342823999
H           55.82062296724596       47.65283001927952       67.37342326165501
H           58.10474601441150       49.66239418881421       69.62057534773025
H           57.54884834629205       50.71912982192691       68.32186627720318
H           59.74548597743470       50.54542172161479       67.22396289323454
H           60.90966330611012       51.97753860722153       68.84724681742354
H           59.18728509111547       52.32912099131951       68.87125350316087
H           59.90569788052703       51.35507233165673       70.15647595044672
H           60.32349147946994       48.26207317991390       68.13059992274010
H           60.53341513925788       48.98752955527949       69.71902344503120
H           61.76441752185951       50.42107962585298       66.43884144691637
H           61.87283811893324       48.66483444439336       66.33385977469912
H           58.18017899851584       47.75139775177154       68.13829905287521
H           57.48788105985496       47.96236348146414       65.73728547662887
H           57.52757410602060       49.72155423852880       65.90178927235272
H           59.01211749332735       48.78033920782684       66.06414626643453
H           62.40315597712013       50.36915629085832       68.80037962736792
H           62.74066336643375       47.36528366241431       68.40917183423069
H           64.00235621074776       48.52034794695243       68.85043603196219
H           62.69651649447482       48.17491057562730       69.97423286230791
H           64.31152169840406       48.78636606803563       66.66573976565104
H           63.33423081914982       50.57037619223986       64.39957871583628
H           64.80509760448071       49.59745860208842       64.41900259725107
H           63.23516767571476       48.80859524699203       64.40901250702547
H           64.28141280351912       50.95834094042172       67.96713012982531
H           63.89444856376153       51.79642705097481       66.46464620774624
H           66.09539896312668       51.03024603372648       65.53639180112579
H           66.14993046259808       52.64668028416141       68.11888096283514
H           67.39000774217212       52.69146462960673       66.86795718935653
H           65.76652054088757       53.26755384296960       66.51290231962743
H           66.28916502098085       49.06348219617271       67.18440679825476
H           66.68629555008667       50.25394541556371       68.41862743937918
H           68.67679802415981       50.92830289307247       66.96825434073794
H           69.99240834890384       48.92736795518050       67.69911890336675
H           68.90131806204444       49.50163496773138       68.95669187809760
H           68.48372465580651       48.07152232162221       68.01172997774358
H           67.66802697789652       49.85869005585850       64.86932367601459
H           68.05822732242611       48.30130536225733       65.57575889128803
H           70.47133123708066       49.80380174496873       65.70702682396582
H           71.28623036545237       48.13116880615060       64.09815563789033
H           70.25493142432899       47.36660429946338       65.30521417486868
H           69.62956566427147       47.68805289724163       63.68530304162184
H           68.97769285838513       50.22608991903497       63.10587850352655
H           70.73558736344989       50.25721630654024       63.17851389735350
H           69.10261834750150       52.02250134995717       65.00797687342694
H           71.13957844289413       53.39791259529255       65.00098457023510
H           71.53617198084918       51.74578322022854       65.46464873919429
H           71.90139794507819       52.31208220568216       63.83671901513531
H           69.42043723444034       52.23435766398318       62.07490321929825
H           69.92397319325870       53.68393343819231       62.92434298530733
H           67.28307539985836       52.40892461146085       63.62821047454764
H           68.28495731929709       54.26402744057889       65.01852948293521
H           68.19256219322216       55.31073616045667       63.60016680941607
H           66.71572331055569       54.66572220547248       64.32035692604262
H           67.91117441424882       54.17400184856274       61.24359617467251
H           66.32133328673710       54.18305057723209       62.00006020207626
H           67.61625373837070       51.71695176457501       60.78231451365127
H           65.24237848294892       50.82718269308404       61.01302193249965
H           66.05858050668630       51.06144103762860       62.55080513336587
H           64.86534181254696       52.23662481879387       61.99596820116243
H           66.82559250292026       53.73024083913513       59.27846509814162
H           65.21099172151631       53.25688030520456       59.78132278632083
H           65.97639218935669       50.85448833421336       58.94198847113307
H           65.28058978653274       53.16753297326434       57.09425484273216
H           65.04406159920464       51.46872427291902       56.69093802758488
H           64.13530350340392       52.18954131565744       58.01346418398464
H           68.33771876323652       52.03058047148802       58.57218181881898
H           67.63120855596020       52.52239631363710       57.04471371671913
H           69.05991991430976       50.56747968696263       56.87062473543789
H           68.57520493840097       48.43562153053139       57.91783708107445
H           68.71204822381763       49.67923887479681       59.16329486353788
H           67.12902274587884       49.06956404426543       58.68510845511512
H           66.18407647260074       49.69394192930975       56.42206732154228
H           67.61592563202694       48.91398283448579       55.77946156298494
H           66.70948787946502       51.73074453811443       55.06173347751248
H           68.49693577777367       51.52617411239195       53.29671168089209
H           69.14689055662642       51.55683275733504       54.92537615603803
H           69.03246870809868       50.02744674814684       54.05348006990076
H           65.25848264629401       49.86751765370251       54.28646319513871
H           66.65962387082186       49.08860143753560       53.56091398733956
H           66.88395951955472       50.95314245558905       51.96092200282092
H           64.12191129435065       49.68603879274237       52.05926508837280
H           64.94271054019391       50.28934042380597       50.61359146269483
H           65.58206458326184       48.89221911136629       51.48012704534321
H           64.70221237875720       52.12325204500945       53.62654588823865
H           64.43972757708812       52.23237031243170       51.89661435595672
H           66.98137202060050       53.24152472963586       53.21632858952474
H           67.13992290313811       52.68861166149444       50.77217923102362
H           65.77014276930146       53.75508923460417       50.46861635236669
H           67.28947815905866       54.41322149379176       51.08071892004719
H           64.40395384744173       54.65179927207419       52.45799845805212
H           65.92263533573501       55.51548203440336       52.68124052561566
H           64.65409709260493       53.80913052810376       54.84574615888893
H           67.06157622453452       54.19444026503779       55.20651953134620
H           66.86243053063407       55.91194698350520       54.87860616652298
H           66.14949124463648       55.20484287445516       56.32780200482496
H           63.36886212435916       55.95226074460270       53.94722616813897
H           64.59441522387095       56.81997257971374       54.84346863174726
H           63.66311999077208       54.78324109740639       56.61270159411517
H           64.39856526896466       57.06298742033929       57.25752752711701
H           62.93745482702911       57.73590836394295       56.53332234889339
H           62.82049462102209       56.67740803190267       57.93858655986612
H           61.36759558665128       56.24216482058120       55.26331677234914
H           61.24727083269723       55.29298051716636       56.74341947036712
H           62.22305220041787       54.05871714636915       54.15075693708550
H           60.88516955704038       52.83402845644031       56.59982141369125
H           61.44574970961298       51.96747511542940       55.16622999774521
H           62.60305693055585       52.76825212894426       56.22107792400940
H           59.99704089667682       53.38105886455546       53.58374187737226
H           60.11873340062355       55.12481381263223       53.66160671370731
H           59.24549939656193       54.53274620612152       56.22545016587230
H           57.04225967758575       55.40395785205361       55.35546795083635
H           58.43214555553640       56.35117887147572       54.84407730240807
H           57.66885348565441       55.22983223259925       53.71853925575644
H           58.84595869573591       52.13605807806919       54.95313361480832
H           57.30849554150193       52.92437394954404       54.63072282971134
H           58.55551435191892       52.46647883772177       57.36837972247152
H           57.12929421521140       54.46387725154745       57.42977121338880
H           55.82622359468452       53.59421527225822       56.60682421283309
H           56.30419413338314       53.13831929166896       58.23860412879323
H           57.61534216430794       50.48529865017508       55.91576795457632
H           56.04331365645209       51.19970107507503       56.24488284798298
H           56.66612984736711       51.03629832826208       58.73915981088820
H           56.28159481693380       48.54856518339456       57.02245067560379
H           55.98645496377618       48.60339557270737       58.75942453469987
H           55.01131944531120       49.58810927046456       57.67084073669073
H           59.15938498960010       50.33649099395279       57.74763829866630
H           58.48430855849448       48.76305418742354       58.13192216955294
H           58.69829240493131       51.11279872642936       60.05995142498495
H           58.13281565936113       49.41660319471939       61.79928949004408
H           56.81145018780202       49.66360388090369       60.66436022636278
H           57.83375949226638       48.22993424080779       60.52999565587835
H           60.27003853387355       48.51766434784392       59.86903608586423
H           60.38374016595471       49.65950881582836       61.20532047757384
H           61.19379158209802       50.27682815484890       58.33447633068575
H           62.19780865133329       52.31556286411693       59.33765084280654
H           60.45345329790739       52.29596209105497       59.55076453948877
H           61.51302426912120       51.88235230164710       60.90345606085608
H           62.78479005185845       49.60042646986329       60.83014658424994
H           63.49729834776377       50.37076125446406       59.41873918725030
H           62.11530835234731       47.67160222142064       59.26321929306888
H           64.00806594023419       49.13288043940839       57.37763300143831
H           63.37073471131643       47.50809803471993       57.12768423601493
H           62.28222389487325       48.89253325507695       57.11674287534758
H           65.09061829187017       48.25245486094944       59.42563674295544
H           64.34381718357231       46.68217503766675       59.16163391143604
H           64.40674775106930       48.30942231179300       61.72041083557647
H           63.00242042118018       46.53086137556762       62.73873139545672
H           62.10112745257477       47.47198677629031       61.55609763108667
H           62.69148739980815       45.85783185250845       61.13908840806415
H           65.12774822163969       45.41813849077357       61.11708198201460
H           65.36350001771089       46.25989660829605       62.64319583085286
H           66.81629382175380       46.86921061024203       60.04270184403955
H           67.14338104970174       48.03284371003979       62.84389112824495
H           68.25023759358092       48.32478594021929       61.49906949941328
H           66.59613181465188       48.90387289371218       61.41036398159447
H           67.29577425672611       44.67706771516604       61.26023139654093
H           67.83380992147316       45.64322624873640       62.62794194550644
H           69.56936016443906       46.68789607739889       61.08626758698949
H           70.03951170022525       44.88016634243008       62.73758295356104
H           69.69864066602020       43.67014534763690       61.49942447739434
H           71.08032714170280       44.75451707522684       61.32606825509066
H           68.46975568944733       46.13826596546002       58.95351237255425
H           68.62510354414839       44.41619970205199       59.29756505687097
H           71.06419285256851       44.56555796430157       59.08443825241810
H           69.62046422344287       45.85547727386522       56.72931608090956
H           71.07185503868999       44.85540211677877       56.65351107737843
H           69.54062311411903       44.14132322236576       57.13579294452063
H           71.41988203709829       46.86008670432513       59.87045071761283
H           70.50427710292600       47.50169724352833       58.50925062001780
H           72.26498979767156       46.70697073716679       56.95336008206787
H           72.29941012611881       48.99922738884562       57.89710583857336
H           73.28278372260181       48.43466474635176       59.24861707173319
H           73.93398225486013       48.39893693302854       57.60936274017479
H           56.32585567429819       47.28224409806304       69.78621749584383
H           56.06753317606684       48.99950529358077       70.09607181590889
C           34.00307885496712       54.85406742340319       67.40792324482899
C           35.30107054291024       55.21967376517041       66.68897165445095
C           36.36151491465095       55.61446073232563       67.71440796740308
C           35.03633738604427       56.34863637527116       65.68513592483588
C           36.18051276590932       56.63041223925079       64.70535351207884
C           35.94473358575370       57.97214787593279       64.01071912269718
C           36.42926773812577       55.50406705831583       63.68843482851276
C           35.26114703192049       55.13506922675489       62.75501484720223
C           34.52557151782040       53.88854153333252       63.24895050933189
C           35.77300937386748       54.87398532046098       61.33115625483030
C           36.23052517228280       56.14249066393393       60.58708366738683
C           35.14066033164860       56.60517892850060       59.62228531252959
C           37.55748427467995       55.89253469269510       59.85970382695810
C           38.28508102057582       57.14334632620991       59.35170786006385
C           39.41895779199785       56.71205089208600       58.42130502205209
C           38.84585410628769       57.98201121353478       60.50995717549600
C           39.02054528082146       59.46544334146661       60.16091525818688
C           40.02822962039642       60.11952950022624       61.10437865869621
C           37.67843285954807       60.21094493671026       60.20731638777927
C           37.60664147221151       61.41247742157265       59.25136563646379
C           36.50224611005155       62.36846736726103       59.69631587031189
C           37.37091075803028       60.91845228145163       57.81884471474719
C           37.38965128819138       61.97549920259905       56.70314324292752
C           37.18072585809545       61.25527184323821       55.36997460717024
C           38.70202013938579       62.76949766384146       56.72751329468247
C           38.98276881948254       63.67673488454254       55.52062403212214
C           40.33920563119074       64.35080777967022       55.72721788273014
C           37.87882728173550       64.72147231390181       55.32408510917845
C           38.04452782372888       65.62309816487883       54.09150071564973
C           37.04610309645575       66.77759299018211       54.17654831525964
C           37.84418466091929       64.83748272159622       52.78876854363497
C           38.45511288431542       65.49733132137024       51.54325081717497
C           37.80078515785767       64.91809006954554       50.28981741293409
C           39.97452710138168       65.29139814441113       51.50818104254959
C           40.69365215833401       66.09642848258309       50.40872624076977
C           41.22627024543117       65.16878717358794       49.31554989277880
C           41.85761357414496       66.92306491850357       50.97241962044259
C           41.45222004790643       68.10584585476870       51.85933429695840
C           40.82794809113163       69.22314851284978       51.02282704970413
C           42.66695444202286       68.67466509983427       52.61002980826115
C           43.25532087303588       67.78962757356659       53.71381830711493
C           42.27638994008444       67.64478572581197       54.87931759264537
C           44.56779103020493       68.37969423954978       54.25056115124497
C           45.77798380448044       68.41693186968416       53.30322402634821
C           46.05435790337513       67.04352258825782       52.69683921715838
C           46.97956736548365       68.92113132162473       54.11953560567098
C           48.24274616170195       69.29514763282015       53.33027535569739
C           49.42580903765659       69.36262679739443       54.29762511570156
C           48.06322461550707       70.62759819377298       52.59352046208205
C           49.12874588780575       70.92804469924504       51.52779752839783
C           49.12247429101630       72.42498780181029       51.21879224459913
C           48.87572568256115       70.11962759132389       50.24826523951375
C           50.06388092647182       70.09290875962742       49.26732652061080
C           49.59242846831513       70.44003935328841       47.85399637997040
C           50.77165853364318       68.73063489648302       49.23035509326829
C           51.39614898220447       68.26868725535236       50.55389570265330
C           52.61287177034335       69.12618660793450       50.90147890230153
C           51.81469048797850       66.78609309580604       50.48081377852179
C           50.82012936790164       65.76474259828872       51.06067425490377
C           49.48727613230231       65.77676929912597       50.31973339629531
C           50.61772500080870       65.97780321792962       52.56558928935424
C           50.00665034537440       64.78100748645983       53.31217821201196
C           49.34319848545653       65.28317528648461       54.59295737465708
C           51.08296807753960       63.73521288089220       53.62546918199104
C           50.57332246711978       62.33420195951941       54.00024919584493
C           51.71926440138017       61.55331751738188       54.63990989767718
C           50.02854755318966       61.61316066002941       52.76065573950743
C           49.58985300354866       60.15146613258172       52.94564780748777
C           49.14765507473589       59.60723058117218       51.58818391953984
C           48.46908306789238       60.03533156055326       53.98451452448396
C           47.87827165713531       58.63198191234518       54.19554909135434
C           46.74429014202543       58.72932289894454       55.21383198508362
C           48.95564446803188       57.64670555316680       54.65801651820452
C           48.48463948445780       56.23094143520711       55.02586602786577
C           49.70717903847727       55.41377594779728       55.44170286586386
C           47.74833421614842       55.58965272998075       53.84579313183986
C           47.34753063132781       54.11425744576806       53.98478127912916
C           46.74617612106465       53.67430401903504       52.64897783260999
C           46.35389071799126       53.91193576570234       55.13647442511743
C           45.90249315891199       52.46092840409907       55.38864103926660
C           44.41274146434632       52.43038380273956       55.73565352133224
C           46.67616291269124       51.76859070473121       56.51800802566547
C           48.17226227141139       51.52858532783364       56.28780363322883
C           48.45969265975035       50.82513316722343       54.96198306594925
C           48.75383216865134       50.64505935283641       57.40017686445865
C           48.68009039018266       51.17401952282525       58.83616966379181
C           49.48466323051971       52.46339292802421       58.98643303457953
C           49.20511763843537       50.08699316386223       59.78461102153741
C           48.74796437958941       50.24380488825860       61.23091452139469
C           49.32486162601626       49.14062762437386       62.10882937283326
H           34.17089181477215       54.04454715794019       68.11539618733966
H           33.61886410193600       55.71262808371797       67.95507263081440
H           33.24221010465708       54.53343334502336       66.69893054601955
H           48.99457539782145       48.16443071164735       61.76044763927541
H           50.41230539656976       49.16273753834100       62.08227469852863
H           49.00274620484120       49.26250343595250       63.13967295790692
H           48.85993706766092       49.11123557361485       59.43420749994342
H           50.29642447233125       50.07785001244780       59.74969450551663
H           48.23058587662086       49.68522100136401       57.36091724486388
H           49.80430065690651       50.45049231135224       57.17026624583753
H           48.69342485422341       52.48940757946082       56.28560091705218
H           49.53273453097640       50.68943390537348       54.84881186499035
H           47.98394921643576       49.84654293631331       54.94292861130734
H           48.10162102763329       51.39416556805144       54.11074890341835
H           46.55317964008096       52.36477714856321       57.42521513780023
H           46.20378679792805       50.79958970347258       56.70005377124619
H           46.78898557421874       54.30476198911730       56.05700910661658
H           45.47192188463872       54.51871802645265       54.91269740216145
H           47.63487338586618       51.37186857601065       59.09438811766245
H           50.48671507123800       52.33187905505215       58.58169213226945
H           49.00735254869700       53.28490713792134       58.45835402357584