3864
 energy: -5104.234800419681 gnorm: 0.000738756951 xtb: 6.6.1 (8d0f1dd)
C           30.20876849744579       55.49654456330143       40.13628526495590
C           30.25524014530536       55.12866648054433       41.47506401088923
C           30.37934543960062       53.78030931821272       41.78714982106047
C           30.44924692021139       52.82467071543125       40.78987575562514
C           30.39580759237300       53.20457334594627       39.45962445925998
C           30.27897627595340       54.54462636877209       39.13432253494098
C           30.12127154854527       56.17561742348628       42.55135086095823
C           28.74541095588521       56.05246459669860       43.21533823497084
C           31.22249528010136       56.08781296154824       43.61795557646351
C           32.64540330053749       56.03172791975989       43.03799577670422
C           32.81196342627060       57.01331437991487       41.90336381464693
C           33.15740389870349       56.57544012683896       40.63236660179411
C           33.31577698462384       57.47365867810688       39.59097777983153
C           33.12088240416868       58.82686805156231       39.80098290458070
C           32.77366133146355       59.27598619132221       41.06411663821932
C           32.62266932191627       58.37679829770968       42.10378706655251
C           33.71772930909994       56.34077963349085       44.09733710563021
C           33.67399786387581       55.48181328354545       45.37170990367808
C           34.33184656018922       56.24333269139753       46.49668135333787
C           35.63425102358400       56.71725155116496       46.38248149101619
C           36.19958947821418       57.47488467071184       47.39124842561103
C           35.48145737908593       57.75622958514947       48.54064129546754
C           34.19178416229479       57.27345102472972       48.67548033998595
C           33.62234343911966       56.52935994301930       47.65647758148648
C           34.33188105574759       54.11215397251346       45.16417483398722
C           34.01410462601824       53.15883271705435       46.32275765323021
C           32.52575897685749       52.94316728570828       46.46196503322584
C           31.90059147653720       53.14793907776764       47.68618748121992
C           30.53952331072682       52.94604034864055       47.83665175069238
C           29.77680045363118       52.53328429644380       46.75807163772109
C           30.38877599704749       52.31501128107533       45.53559273181974
C           31.74977580567341       52.51328939490768       45.39085315905591
C           34.68855696523848       51.78537539359562       46.16652043175890
C           36.22104729488594       51.78543091284656       46.28165180824325
C           36.74586820350311       50.42832000088767       45.87497136449789
C           37.50436962424192       50.27837233075803       44.72104262902440
C           38.03341734665077       49.05003534164418       44.36630525043852
C           37.81263609604049       47.94276996442250       45.16581378461583
C           37.03506354004201       48.07260604607475       46.30407990229727
C           36.50122285774578       49.30055871631745       46.65033311674352
C           36.70635987114301       52.14557781717961       47.69354730638876
C           38.23800632148605       52.10490923620407       47.78444567772660
C           38.85867205172113       53.21220900404353       46.96842970965348
C           39.71048729290156       52.91392299224447       45.91253770076770
C           40.33988372867078       53.92004158826384       45.20030027019990
C           40.12507658635224       55.24315402103831       45.54171907326089
C           39.26761531679781       55.55349188209419       46.58266009368792
C           38.63365323909388       54.54742304082048       47.28514924890106
C           38.76535059067496       52.22599056848649       49.22369194943826
C           38.40077628187876       51.07730988445922       50.17930242769449
C           38.83784446034513       51.46779721274873       51.57212753673428
C           37.89216908756179       51.81295328454855       52.52955493858608
C           38.27259418987691       52.22591366512003       53.79455222327074
C           39.61271677131061       52.29161917285479       54.13037114648381
C           40.56635728302137       51.94477389556095       53.18833769191295
C           40.18154876684994       51.54420421180771       51.92201510534182
C           39.00342066237756       49.73961752033406       49.73897105251645
C           38.49641998962750       48.55119655983322       50.57575614061226
C           39.44243943457116       47.38623205908542       50.42084045127881
C           39.67734247601096       46.81817465487110       49.17353295874434
C           40.54822287229440       45.75327498880056       49.03175957309217
C           41.18861107278746       45.22211710471627       50.13882472393950
C           40.97242461318869       45.78529136255589       51.38344979337726
C           40.12017849224155       46.86784563985727       51.51557563057011
C           37.07716268013131       48.16606334438004       50.13834761289097
C           36.37896299156698       47.13375681160250       51.03378667130012
C           35.19854649846815       46.54029503616101       50.30029193870603
C           35.04106200792727       45.16515820749522       50.20141334180654
C           33.93722255709887       44.61790186413227       49.57113573603327
C           32.97364619893117       45.44098202731073       49.01758539726440
C           33.11732907637622       46.81510148707895       49.10684325412652
C           34.21670761308070       47.35621340166910       49.74665819018065
C           35.88186963632256       47.73569253987838       52.36664013786496
C           36.71534645286323       47.37479503977050       53.60667957812644
C           36.24613325914336       48.24096684580331       54.75117567291706
C           37.04454541447918       49.27581618302733       55.21954261729674
C           36.61825984762474       50.09064089597592       56.25311397191789
C           35.38089406293161       49.88583397268097       56.83600421858254
C           34.57054855964146       48.86315910751712       56.37163702551747
C           34.99875733896455       48.05200767185600       55.33714864112476
C           36.62284451426655       45.88461896225582       53.95712014459138
C           37.43694973696319       45.54072299785096       55.21683477366380
C           36.90837395625025       44.29769781611917       55.88558978470900
C           36.84053622003044       43.08857824112417       55.20186492508446
C           36.38270337710862       41.94359572829475       55.82762380182721
C           35.98348343063842       41.98706810364229       57.15288003012075
C           36.03655446034485       43.18597567757566       57.84210991226269
C           36.49363224015979       44.32971735426008       57.21056381941869
C           38.92728741873513       45.36510889715665       54.89471991902963
C           39.80427772699932       45.47943670428874       56.15102399133939
C           39.80860464386611       46.90768354242757       56.63153698836022
C           39.16658769693634       47.25175918173198       57.81419071654198
C           39.10726799846258       48.56757625873230       58.23576616620966
C           39.69912824849561       49.56362668027813       57.47969779163883
C           40.35369746964814       49.23443823262763       56.30593268276117
C           40.40331039214900       47.91818498830891       55.88525158026999
C           41.21415115560185       44.95303550105140       55.85881851798474
C           42.16074700503392       45.03048560129128       57.06655666968069
C           41.52836752391966       44.36712024316603       58.26240056759988
C           41.22212272315532       43.01045445454329       58.25018636126708
C           40.61536788877791       42.41113503451689       59.33846756677774
C           40.30477920627002       43.15953649540413       60.46191127306358
C           40.61102592176349       44.50974076109679       60.48788503121231
C           41.21929770646643       45.10673994847888       59.39671700157184
C           43.52370831717841       44.39059576844007       56.72270244606552
C           44.65621058089340       45.40795059497059       56.49442664655228
C           44.22826468530862       46.52630899646075       55.57658329433845
C           44.08391607880579       47.81618919950188       56.07284932193961
C           43.66039157174777       48.85290116497695       55.26019817649362
C           43.38653426216012       48.62037697740248       53.92372014905222
C           43.53255317902857       47.34324092101480       53.41056798888567
C           43.93873446586980       46.30783993027690       54.23391482692377
C           45.90017978462549       44.67395321458147       55.96949915830419
C           47.14108890411142       45.57485387535354       55.90858770122271
C           47.55432309514254       45.99520163004616       57.29399600783215
C           47.55205979415123       47.33753578617362       57.65078239972659
C           47.98489499381606       47.73786137466505       58.90129580545289
C           48.42499467000442       46.79996320144391       59.81937465275605
C           48.39835167341826       45.45811304329232       59.48466946532311
C           47.96431789919724       45.05865547679939       58.23500406548820
C           48.30150731082249       44.86493127215827       55.18988432025554
C           49.57288464573207       45.72738576303191       55.13821203395273
C           49.32928909421200       47.00801890045516       54.38083062921996
C           49.02662945627355       46.98944928407744       53.02459853447951
C           48.80364685944794       48.16676802146402       52.33639294708637
C           48.87273621183583       49.38448463914136       52.99180768001691
C           49.20068464133206       49.41701175667752       54.33544398724882
C           49.43186918991164       48.23692942210185       55.01991178524209
C           50.77370619288483       44.95981199843920       54.53737206201193
C           51.75831224620433       44.52298841773728       55.62807413780563
C           51.14385969952904       43.49262439661752       56.54272931432894
C           51.03884138856910       43.72625444367967       57.90732963599996
C           50.54325937861154       42.75288773977203       58.75843064290081
C           50.13362209574125       41.53351869555512       58.25161080244638
C           50.22573891713769       41.28910531740014       56.89120220257623
C           50.72612647313192       42.26135590090030       56.04642725963473
C           53.07375821910382       43.93786854637379       55.08390359735161
C           53.92140970164728       44.84914875076518       54.18168898608285
C           55.29708350947580       44.25103816476829       53.99410784910287
C           56.12977484245787       44.02181972615928       55.08577954237881
C           57.43142243486479       43.59064634436218       54.90638596788838
C           57.92796072488597       43.38500584908192       53.63059899491157
C           57.10211790944759       43.57598809258281       52.53598881558109
C           55.79844347754379       44.00404577271696       52.72096003265657
C           54.08998079803975       46.26818652434191       54.74339454438892
C           54.92682344722429       47.15179157007464       53.81133268273452
H           30.18059370610095       57.15923798660412       42.07228636644444
H           31.12950852885231       56.95707565939676       44.27320438844174
H           31.05037328114823       55.19814806443895       44.22594474683386
H           32.81606651272406       55.02645781486618       42.64032043963863
H           34.69721487122037       56.23110447801885       43.62524337718332
H           33.60995372483909       57.38606242029460       44.39742228583015
H           32.62964390179702       55.32168584124712       45.65214296984992
H           33.98318768363893       53.68589069092141       44.22293485970522
H           35.41066130500408       54.24853409756826       45.08411208158444
H           34.37150796214167       53.62423608038871       47.24703249808497
H           34.41420403710215       51.37198143393874       45.19238373190507
H           36.62205373112748       52.52857461232955       45.58784596357486
H           36.35737399306697       53.14519765419037       47.95747350803656
H           36.27550158165558       51.44374938711896       48.40807753470242
H           38.58011135187576       51.15288263870883       47.36811580441114
H           39.85409620327862       52.31188335934350       49.17563260459696
H           38.38837093452475       53.15490553480802       49.65681658476020
H           37.31100871038213       50.98358720656421       50.19491512429873
H           38.75621794870690       49.55882432524695       48.69221905245324
H           40.09061642915131       49.78887915723279       49.81896721239168
H           38.47883941224642       48.85800059843076       51.62690545294946
H           37.09202082551209       46.33046681587390       51.23892644706309
H           35.85944363240110       48.82531160274795       52.28438412662300
H           34.85413776127644       47.40837882142627       52.54399440429402
H           37.76123098654013       47.62209151292684       53.40649522258515
H           35.57729800097174       45.61579232210298       54.12140512034223
H           36.98262282422763       45.28957691197162       53.11691678069186
H           37.33419047286720       46.37523326535384       55.91950734174183
H           39.07978416284450       44.38758524335277       54.43279761825019
H           39.23612305174623       46.12289168879342       54.17648358677874
H           39.36111970347955       44.85177075781696       56.93355177427319
H           41.12291658871086       43.90952691500039       55.54856557207388
H           41.65245560542552       45.51523768580249       55.03305722455311
H           42.31059715391591       46.08694539309570       57.31191857323430
H           43.82924082404703       43.73057209156129       57.53816741855716
H           43.41313314393775       43.77189251453471       55.83065253882070
H           44.90621336588902       45.84805240023734       57.46710922895141
H           46.09833108241990       43.82186678926963       56.62385211397407
H           45.69545694566162       44.28746264697593       54.97109367256407
H           46.88430267562489       46.47302872169509       55.33441525944881
H           48.53420763095640       43.93194152927909       55.70708420486148
H           47.98369705076303       44.62088289483660       54.17453326682021
H           49.82173378717063       45.99894443867601       56.16961131935982
H           50.42943753898262       44.08751278682916       53.98035510330412
H           51.29489747766710       45.61244406547963       53.83533410109824
H           52.00058841143655       45.40312076640219       56.23310496840001
H           53.67453933312343       43.65202325549527       55.95028604702349
H           52.85774992155133       43.02506758169211       54.52493758261307
H           30.11604558614393       56.54216302325124       39.87505169693546
H           30.23651639457901       54.85121231513138       38.09836474528306
H           30.43435228711007       52.45369589993054       38.68407242883841
H           30.53748850022387       51.77912245905129       41.04693876577709
H           30.41596993412107       53.47145013708730       42.82076734295563
H           33.29546920154846       55.51911224059365       40.45270094055267
H           33.59020857942361       57.11662284590513       38.60862384891291
H           33.23915510466310       59.53009123822925       38.99050425375902
H           32.62013736134508       60.33225960807426       41.23530087911229
H           32.34134161827046       58.74488803386669       43.08053760119437
H           36.20866390447686       56.50287567561173       45.49338952240216
H           37.20316436029394       57.85756304633024       47.28255221606821
H           35.92516794668572       58.35273996476864       49.32517312706776
H           33.62352294123582       57.48537153408932       49.57078275862431
H           32.60759759091609       56.16902623771161       47.76114437763983
H           32.48766101826888       53.47452139278368       48.53395772774540
H           30.07230575559090       53.11367672422728       48.79697633251346
H           28.71264481347320       52.38163507512986       46.87022139213849
H           29.79864393180843       51.98764359937841       44.69107196877596
H           32.20875621855726       52.33443832486765       44.42998910032143
H           34.27895955737515       51.11760000317675       46.92911943159022
H           37.69523916012290       51.13877190494247       44.09772811182939
H           38.63094130574544       48.96233770362974       43.47089529865914
H           38.24589667396259       46.98785955961232       44.90142695578687
H           36.84068372192675       47.21351115045086       46.93052404329961
H           35.89847666661154       49.37614632333186       47.54345074794787
H           39.89442659002699       51.88202110450570       45.64891787115668
H           41.00589180191751       53.66369469930590       44.38778412792567
H           40.62902628611221       56.04349849851098       45.01958067453408
H           39.11089131106655       56.58652400988922       46.85629686470759
H           37.97001414965547       54.81589149537572       48.09490409493280
H           36.83903905042125       51.76278397281111       52.28518807078340
H           37.51670197291280       52.49468082074076       54.51877753314395
H           39.91573650073932       52.61503734328722       55.11540051174517
H           41.61499135775041       51.99407784714226       53.44789718132743
H           40.94054800194357       51.28862016915348       51.19739268636559
H           39.18236350264362       47.21400446513328       48.29838428979098
H           40.72521087533052       45.34218563958646       48.04697039912418
H           41.85223432717431       44.37506231100089       50.03658293017533
H           41.46781558619039       45.37946548735506       52.25312517391917
H           39.98256960360312       47.32610471637849       52.48569352930629
H           36.46393639870086       49.06675309456874       50.09762576359577
H           37.12765905108653       47.75503316168734       49.12924854293320
H           35.78863184814202       44.51122248897279       50.62604291527698
H           33.83075848132988       43.54470149170375       49.51303734325338
H           32.10966765876572       45.01936213009952       48.52379302230874
H           32.36716384789723       47.46304179241871       48.67672457192540
H           34.30115043150572       48.42983932383894       49.82727829544609
H           38.01485428144468       49.44959454266318       54.77680721127637
H           37.25891756680468       50.88562046042435       56.60504875928490
H           35.04633398850776       50.51841031651470       57.64607066145424
H           33.59988525233637       48.69783831523605       56.81799883343562
H           34.35064949294840       47.26125980443847       54.98842108821718
H           37.14526705122298       43.04072072535553       54.16675029502088
H           36.33766488631910       41.01187837669913       55.28163693166829
H           35.62872684273354       41.09269117598432       57.64461379754010
H           35.72256615369981       43.23055786813936       58.87557132114178
H           36.52742791225823       45.26470409391431       57.75356502286495
H           38.70733595929081       46.47709467481531       58.41403539042254
H           38.59317532823223       48.81353040758016       59.15502481448416
H           39.64851704532186       50.59497333219642       57.79924443106784
H           40.81553607678505       50.01004034998626       55.71153690380893
H           40.91700923809331       47.68211569788799       54.96484690747328
H           41.46063978447251       42.41145071952219       57.38338444265555
H           40.38440663391162       41.35536220826111       59.31295073440579
H           39.83081117142762       42.69187801119786       61.31384763547121
H           40.37546790520323       45.10278491427456       61.36193297785225
H           41.45080094051584       46.16314617087932       59.42838059752579
H           44.30244867172673       48.01248437860055       57.11399679669408
H           43.54228696614354       49.84569636039305       55.67054111076646
H           43.05787004955361       49.42596184470538       53.28321996002675
H           43.31782284243657       47.15962137685757       52.36672476116217
H           44.02075942922639       45.31413230333297       53.81970003201585
H           47.21939328887883       48.07477016141655       56.93260301444256
H           47.98459714870507       48.78804912082197       59.15516801288277
H           48.78363406398394       47.11540278769533       60.78870225339791
H           48.72400883110641       44.71353350185048       60.19457064241178
H           47.96048374813763       44.00621667359547       57.99373150993618
H           48.97521531800797       46.04503431686901       52.50300004657016
H           48.58680229325542       48.14183716222340       51.27771042348173
H           48.67831704500997       50.30254946749918       52.45663721216356
H           49.28025411591045       50.36231241530661       54.85320179457855
H           49.69749403060980       48.27525393357444       56.06750377742160
H           51.34677112657653       44.68027798257230       58.31336328906658
H           50.48925009200504       42.94721833584029       59.82008861251875
H           49.75028156595862       40.76756276330757       58.90979476645966
H           49.92146589951928       40.33332906241760       56.49033935103203
H           50.80840021754616       42.04789166854764       54.99055857686323
H           55.16932463093827       44.17294082640883       51.85801646209504
H           57.47780767015032       43.39986860267642       51.53773839440321
H           58.95861574829640       43.08838583738768       53.49402308991711
H           58.06959970117091       43.42864084696746       55.76555458659695
H           55.77550533540451       44.19573607480663       56.09242994609674
H           28.64073772645510       55.08470902472927       43.70077215656422
H           28.61467334932470       56.83023784446920       43.96462371046967
H           27.95608967322098       56.15087645963322       42.47294864838378
H           53.44046274955123       44.92689289505294       53.20085954143597
H           53.11241041215533       46.72414106618677       54.88944752435633
H           54.58003880620796       46.19999519199614       55.71545401493751
C           55.58867146517485       48.31628088650061       54.56551740953874
C           54.14416221261791       47.71154644592983       52.64714730246742
C           54.71952056259708       47.69689063921275       51.38013405285063
C           54.08062360017328       48.27497738699252       50.29841575780804
C           52.84610893570409       48.87862307542208       50.46531351759441
C           52.26237871469964       48.90035269435430       51.71942419394838
C           52.90617474931528       48.32429248990312       52.80068839766659
H           55.68872763558279       47.23628709205980       51.24446981466165
H           54.55091299366404       48.26017930095615       49.32542371187823
H           52.34611225047142       49.33282100157751       49.62162961877220
H           51.30024750618299       49.36834577080448       51.87000493370049
H           52.42698861465979       48.37227657423053       53.76775662963502
C           56.78529223129519       47.86102166880228       55.39938294843186
H           55.93973838673053       49.03228700368198       53.82253592741264
H           54.85769344816644       48.82086983479249       55.20009624763397
C           57.58341835836841       48.99248061188135       55.98516258059895
C           58.00479000869868       48.92883922359101       57.30659630277671
C           58.78736435080059       49.92583310111606       57.85814612041197
C           59.16970323607767       51.01152899314145       57.09202416259563
C           58.74073012843040       51.09854817993784       55.77903460982471
C           57.95673858778318       50.09997459492978       55.23152284978836
H           57.72591736359220       48.07566799690515       57.90836373608686
H           59.09771731661470       49.84793570458770       58.89072832274372
H           59.80794523434220       51.77799329464573       57.50408015490744
H           59.03257958875881       51.94651712510740       55.17579092629677
H           57.64599728022778       50.18355095226885       54.20123928586333
H           55.74124773205079       46.54676261573643       53.39676729159841
H           56.45732334005402       47.20417801040642       56.20764962150980
H           57.44665217830065       47.27090522479710       54.75726057374227
C           58.83939749346807       54.68344501683087       37.56417496542857
C           58.75761345665187       53.33678299675774       37.22199791428641
C           58.77014203920553       52.99602256778826       35.87462787985840
C           58.86982806336076       53.97251394946376       34.89814647573171
C           58.95730266730036       55.30858061441764       35.25226830481540
C           58.93504490628832       55.66267702093860       36.59134578838365
C           58.69700598949529       52.29318846260561       38.31230608757407
C           57.82411483408291       51.10157375350246       37.92880436638747
C           60.13331361293159       51.87213403416573       38.66818060876745
C           60.22641308601897       51.00288024697763       39.93438216196279
C           59.95060804878958       49.54061054848172       39.68292146987835
C           59.01580866662976       48.86162674696646       40.45626350385466
C           58.82906582412915       47.49806725418222       40.31773566185347
C           59.56135428335335       46.78796319258166       39.38267054129155
C           60.48007298252143       47.45466131955372       38.59174258958255
C           60.67967856326399       48.81487123891596       38.74836506888184
C           61.62113395453507       51.13147331091335       40.57323064958491
C           61.72144100400360       50.40408951734981       41.92216386974749
C           60.93974483182509       51.10861595756333       43.00191279957089
C           61.25995137355898       52.40230041068211       43.39777951726685
C           60.53405966405079       53.03326136144869       44.39062696745375
C           59.48698235436332       52.38126104877325       45.01598114759519
C           59.16688417358970       51.08822288176182       44.64137339324969
C           59.88852398084804       50.46241142647517       43.63968047135330
C           63.19092179790399       50.24440142151349       42.33438538748288
C           63.35875095389850       49.42513185928530       43.62244224744913
C           62.59125133380758       48.12747805941867       43.52290567963637
C           62.77823540506364       47.25755338804455       42.45406598264439
C           62.00236381760181       46.12064007054320       42.31490388996882
C           61.03965283888920       45.81643442745084       43.26298650264913
C           60.86874801598511       46.65330096908485       44.35144857436197
C           61.63303623530988       47.80066017834812       44.47477492786101
C           64.84533172677332       49.15455946309977       43.91210730856245
C           65.62784716278637       50.39496011815671       44.38289035874766
C           67.10139736635672       50.19897619262643       44.13231526580206
C           67.81933910612875       49.20260214955785       44.78504432254073
C           69.17398587114072       49.04335352788095       44.55619299773871
C           69.83552038025699       49.87481304319807       43.66752494970764
C           69.12792937439136       50.85649974862276       42.99531134440822
C           67.77283692918705       51.01048348334069       43.22619474644625
C           65.35268428085178       50.68856331755178       45.86239677286653
C           65.99820690334758       51.99197224948254       46.36059926890236
C           65.54357080473261       53.16941944840760       45.54087399933303
C           66.45995831853428       53.89213322288292       44.78789836193000
C           66.05733421687914       54.98844909446041       44.04602775067629
C           64.73120725116549       55.38383698183490       44.05413658371999
C           63.81047207490140       54.67019630533009       44.79966357714662
C           64.21176282638461       53.56694654592357       45.52956896047115
C           65.65645057952642       52.17602349172589       47.84850705963009
C           65.99092937837771       53.55954622123728       48.42555297877330
C           67.44227318145238       53.91810678225168       48.25348992347291
C           68.45458161988506       53.15322971353869       48.81908363151470
C           69.78106784848568       53.51278807444240       48.66924191855608
C           70.11981784349402       54.64370026743067       47.94633021666356
C           69.12205735746016       55.41034056208310       47.37061891063242
C           67.79667831727812       55.04647484614753       47.52446215440661
C           65.55638015791803       53.59505367144673       49.89869192654496
C           65.74226025481966       54.96640430071009       50.57115724151343
C           67.15813063352478       55.16556168736904       51.04848914368275
C           67.93898699876762       56.19528545151002       50.54069841400377
C           69.23869235675782       56.39026961128763       50.96961174375497