      -----------------------------------------------------------      
     |                   =====================                   |     
     |                           x T B                           |     
     |                   =====================                   |     
     |                         S. Grimme                         |     
     |          Mulliken Center for Theoretical Chemistry        |     
     |                    University of Bonn                     |     
      -----------------------------------------------------------      

   * xtb version 6.6.1 (8d0f1dd) compiled by 'stahn@M-Bot' on 2023-08-01

   xtb is free software: you can redistribute it and/or modify it under
   the terms of the GNU Lesser General Public License as published by
   the Free Software Foundation, either version 3 of the License, or
   (at your option) any later version.
   
   xtb is distributed in the hope that it will be useful,
   but WITHOUT ANY WARRANTY; without even the implied warranty of
   MERCHANTABILITY or FITNESS FOR A PARTICULAR PURPOSE.  See the
   GNU Lesser General Public License for more details.
   
   Cite this work as:
   * C. Bannwarth, E. Caldeweyher, S. Ehlert, A. Hansen, P. Pracht,
     J. Seibert, S. Spicher, S. Grimme, WIREs Comput. Mol. Sci., 2020, 11,
     e01493. DOI: 10.1002/wcms.1493
   
   for GFN2-xTB:
   * C. Bannwarth, S. Ehlert and S. Grimme., J. Chem. Theory Comput., 2019,
     15, 1652-1671. DOI: 10.1021/acs.jctc.8b01176
   for GFN1-xTB:
   * S. Grimme, C. Bannwarth, P. Shushkov, J. Chem. Theory Comput., 2017,
     13, 1989-2009. DOI: 10.1021/acs.jctc.7b00118
   for GFN0-xTB:
   * P. Pracht, E. Caldeweyher, S. Ehlert, S. Grimme, ChemRxiv, 2019, preprint.
     DOI: 10.26434/chemrxiv.8326202.v1
   for GFN-FF:
   * S. Spicher and S. Grimme, Angew. Chem. Int. Ed., 2020, 59, 15665-15673.
     DOI: 10.1002/anie.202004239
   
   for ALPB and GBSA implicit solvation:
   * S. Ehlert, M. Stahn, S. Spicher, S. Grimme, J. Chem. Theory Comput.,
     2021, 17, 4250-4261. DOI: 10.1021/acs.jctc.1c00471
   
   for DFT-D4:
   * E. Caldeweyher, C. Bannwarth and S. Grimme, J. Chem. Phys., 2017,
     147, 034112. DOI: 10.1063/1.4993215
   * E. Caldeweyher, S. Ehlert, A. Hansen, H. Neugebauer, S. Spicher,
     C. Bannwarth and S. Grimme, J. Chem. Phys., 2019, 150, 154122.
     DOI: 10.1063/1.5090222
   * E. Caldeweyher, J.-M. Mewes, S. Ehlert and S. Grimme, Phys. Chem. Chem. Phys.
     2020, 22, 8499-8512. DOI: 10.1039/D0CP00502A
   
   for sTDA-xTB:
   * S. Grimme and C. Bannwarth, J. Chem. Phys., 2016, 145, 054103.
     DOI: 10.1063/1.4959605
   
   in the mass-spec context:
   * V. Asgeirsson, C. Bauer and S. Grimme, Chem. Sci., 2017, 8, 4879.
     DOI: 10.1039/c7sc00601b
   * J. Koopman and S. Grimme, ACS Omega 2019, 4, 12, 15120-15133.
     DOI: 10.1021/acsomega.9b02011
   
   for metadynamics refer to:
   * S. Grimme, J. Chem. Theory Comput., 2019, 155, 2847-2862
     DOI: 10.1021/acs.jctc.9b00143
   
   for SPH calculations refer to:
   * S. Spicher and S. Grimme, J. Chem. Theory Comput., 2021, 17, 1701-1714
     DOI: 10.1021/acs.jctc.0c01306
   
   with help from (in alphabetical order)
   P. Atkinson, C. Bannwarth, F. Bohle, G. Brandenburg, E. Caldeweyher
   M. Checinski, S. Dohm, S. Ehlert, S. Ehrlich, I. Gerasimov, C. Hölzer
   A. Katbashev, J. Koopman, C. Lavigne, S. Lehtola, F. März, M. Müller,
   F. Musil, H. Neugebauer, J. Pisarek, C. Plett, P. Pracht, F. Pultar,
   J. Seibert, P. Shushkov, S. Spicher, M. Stahn, M. Steiner, T. Strunk,
   J. Stückrath, T. Rose, and J. Unsleber
   
 * started run on 2024/10/04 at 19:48:37.359     

           -------------------------------------------------
          |                Calculation Setup                |
           -------------------------------------------------

          program call               : /home/abt-grimme/AK-bin/xtb input.xyz --input input.inp --opt
          hostname                   : boar059.thch.uni-bonn.de
          coordinate file            : input.xyz
          omp threads                :                     8

   ID    Z sym.   atoms
    1    6 C      1-146, 294-300, 306, 309-314, 323-468, 616-622, 628,
                  631-636, 645-790, 938-944, 950, 953-958, 967-1112,
                  1260-1266, 1272, 1275-1280, 1289-1434, 1582-1588, 1594,
                  1597-1602, 1611-1756, 1904-1910, 1916, 1919-1924,
                  1933-2078, 2226-2232, 2238, 2241-2246, 2255-2400,
                  2548-2554, 2560, 2563-2568, 2577-2722, 2870-2876, 2882,
                  2885-2890, 2899-3044, 3192-3198, 3204, 3207-3212,
                  3221-3366, 3514-3520, 3526, 3529-3534, 3543-3688,
                  3836-3842, 3848, 3851-3856
    2    1 H      147-293, 301-305, 307, 308, 315-322, 469-615, 623-627, 629,
                  630, 637-644, 791-937, 945-949, 951, 952, 959-966,
                  1113-1259, 1267-1271, 1273, 1274, 1281-1288, 1435-1581,
                  1589-1593, 1595, 1596, 1603-1610, 1757-1903, 1911-1915,
                  1917, 1918, 1925-1932, 2079-2225, 2233-2237, 2239, 2240,
                  2247-2254, 2401-2547, 2555-2559, 2561, 2562, 2569-2576,
                  2723-2869, 2877-2881, 2883, 2884, 2891-2898, 3045-3191,
                  3199-3203, 3205, 3206, 3213-3220, 3367-3513, 3521-3525,
                  3527, 3528, 3535-3542, 3689-3835, 3843-3847, 3849, 3850,
                  3857-3864

molecular fragmentation (1/2 indicates fragments):
111111111111111111111111111111111111111111111111111111111111111111111111
111111111111111111111111111111111111111111111111111111111111111111111111
111111111111111111111111111111111111111111111111111111111111111111111111
111111111111111111111111111111111111111111111111111111111111111111111111
111111111111111111111111111111111122222222222222222222222222222222222222
222222222222222222222222222222222222222222222222222222222222222222222222
222222222222222222222222222222222222222222222222222222222222222222222222
222222222222222222222222222222222222222222222222222222222222222222222222
222222222222222222222222222222222222222222222222222222222222222222222222
222222222222222222222222222222222222222222222222222222222222222222222222
222222222222222222222222222222222222222222222222222222222222222222222222
222222222222222222222222222222222222222222222222222222222222222222222222
222222222222222222222222222222222222222222222222222222222222222222222222
222222222222222222222222222222222222222222222222222222222222222222222222
222222222222222222222222222222222222222222222222222222222222222222222222
222222222222222222222222222222222222222222222222222222222222222222222222
222222222222222222222222222222222222222222222222222222222222222222222222
222222222222222222222222222222222222222222222222222222222222222222222222
222222222222222222222222222222222222222222222222222222222222222222222222
222222222222222222222222222222222222222222222222222222222222222222222222
222222222222222222222222222222222222222222222222222222222222222222222222
222222222222222222222222222222222222222222222222222222222222222222222222
222222222222222222222222222222222222222222222222222222222222222222222222
222222222222222222222222222222222222222222222222222222222222222222222222
222222222222222222222222222222222222222222222222222222222222222222222222
222222222222222222222222222222222222222222222222222222222222222222222222
222222222222222222222222222222222222222222222222222222222222222222222222
222222222222222222222222222222222222222222222222222222222222222222222222
222222222222222222222222222222222222222222222222222222222222222222222222
222222222222222222222222222222222222222222222222222222222222222222222222
222222222222222222222222222222222222222222222222222222222222222222222222
222222222222222222222222222222222222222222222222222222222222222222222222
222222222222222222222222222222222222222222222222222222222222222222222222
222222222222222222222222222222222222222222222222222222222222222222222222
222222222222222222222222222222222222222222222222222222222222222222222222
222222222222222222222222222222222222222222222222222222222222222222222222
222222222222222222222222222222222222222222222222222222222222222222222222
222222222222222222222222222222222222222222222222222222222222222222222222
222222222222222222222222222222222222222222222222222222222222222222222222
222222222222222222222222222222222222222222222222222222222222222222222222
222222222222222222222222222222222222222222222222222222222222222222222222
222222222222222222222222222222222222222222222222222222222222222222222222
222222222222222222222222222222222222222222222222222222222222222222222222
222222222222222222222222222222222222222222222222222222222222222222222222
222222222222222222222222222222222222222222222222222222222222222222222222
222222222222222222222222222222222222222222222222222222222222222222222222
222222222222222222222222222222222222222222222222222222222222222222222222
222222222222222222222222222222222222222222222222222222222222222222222222
222222222222222222222222222222222222222222222222222222222222222222222222
222222222222222222222222222222222222222222222222222222222222222222222222
222222222222222222222222222222222222222222222222222222222222222222222222
222222222222222222222222222222222222222222222222222222222222222222222222
222222222222222222222222222222222222222222222222222222222222222222222222
222222222222222222222222222222222222222222222222
# atoms in fragment 1/2:   322  3542
 fragment masses (1/2) :     2085.00    22935.05
CMA distance (Bohr)    :  19.966
constraining FC (au)   :  0.0500

           -------------------------------------------------
          |                 G F N 2 - x T B                 |
           -------------------------------------------------

        Reference                      10.1021/acs.jctc.8b01176
      * Hamiltonian:
        H0-scaling (s, p, d)           1.850000    2.230000    2.230000
        zeta-weighting                 0.500000
      * Dispersion:
        s8                             2.700000
        a1                             0.520000
        a2                             5.000000
        s9                             5.000000
      * Repulsion:
        kExp                           1.500000    1.000000
        rExp                           1.000000
      * Coulomb:
        alpha                          2.000000
        third order                    shell-resolved
        anisotropic                    true
        a3                             3.000000
        a5                             4.000000
        cn-shift                       1.200000
        cn-exp                         4.000000
        max-rad                        5.000000


          ...................................................
          :                      SETUP                      :
          :.................................................:
          :  # basis functions                9624          :
          :  # atomic orbitals                9624          :
          :  # shells                         5784          :
          :  # electrons                      9624          :
          :  max. iterations                   250          :
          :  Hamiltonian                  GFN2-xTB          :
          :  restarted?                      false          :
          :  GBSA solvation                  false          :
          :  PC potential                    false          :
          :  electronic temp.          300.0000000     K    :
          :  accuracy                    1.0000000          :
          :  -> integral cutoff          0.2500000E+02      :
          :  -> integral neglect         0.1000000E-07      :
          :  -> SCF convergence          0.1000000E-05 Eh   :
          :  -> wf. convergence          0.1000000E-03 e    :
          :  Broyden damping             0.4000000          :
          ...................................................

 iter      E             dE          RMSdq      gap      omega  full diag
   1  -5195.6956303 -0.519570E+04  0.368E+00    4.31       0.0  T
   2  -5198.2898396 -0.259421E+01  0.217E+00    4.30       1.0  T
   3  -5198.2159778  0.738618E-01  0.496E-01    4.12       1.0  T
   4  -5198.4182307 -0.202253E+00  0.243E-01    3.98       1.0  T
   5  -5198.5756814 -0.157451E+00  0.467E-02    4.09       1.0  T
   6  -5198.5779286 -0.224723E-02  0.290E-02    4.06       1.0  T
   7  -5198.5792423 -0.131366E-02  0.112E-02    4.08       1.0  T
   8  -5198.5795479 -0.305628E-03  0.293E-03    4.07       1.0  T
   9  -5198.5795653 -0.173740E-04  0.127E-03    4.07       1.3  T
  10  -5198.5795670 -0.175013E-05  0.559E-04    4.07       2.9  T
  11  -5198.5795674 -0.401723E-06  0.294E-04    4.07       5.5  T
  12  -5198.5795676 -0.180796E-06  0.101E-04    4.07      15.9  T

   *** convergence criteria satisfied after 12 iterations ***

         #    Occupation            Energy/Eh            Energy/eV
      -------------------------------------------------------------
         1        2.0000           -0.6528753             -17.7656
       ...           ...                  ...                  ...
      4806        2.0000           -0.3817751             -10.3886
      4807        2.0000           -0.3817100             -10.3869
      4808        2.0000           -0.3816002             -10.3839
      4809        2.0000           -0.3812824             -10.3752
      4810        2.0000           -0.3811456             -10.3715
      4811        2.0000           -0.3809419             -10.3660
      4812        2.0000           -0.3792811             -10.3208 (HOMO)
      4813                         -0.2295861              -6.2474 (LUMO)
      4814                         -0.2287205              -6.2238
      4815                         -0.2271404              -6.1808
      4816                         -0.2265506              -6.1648
      4817                         -0.2265300              -6.1642
       ...                                ...                  ...
      9624                          0.6826529              18.5759
      -------------------------------------------------------------
                  HL-Gap            0.1496950 Eh            4.0734 eV
             Fermi-level           -0.3044336 Eh           -8.2841 eV

 SCC (total)                   0 d,  0 h, 44 min, 42.114 sec
 SCC setup                      ...        0 min,  0.707 sec (  0.026%)
 Dispersion                     ...        0 min,  6.790 sec (  0.253%)
 classical contributions        ...        0 min,  0.164 sec (  0.006%)
 integral evaluation            ...        0 min, 12.486 sec (  0.466%)
 iterations                     ...       38 min, 56.259 sec ( 87.105%)
 molecular gradient             ...        5 min,  1.123 sec ( 11.227%)
 printout                       ...        0 min, 24.585 sec (  0.917%)

         :::::::::::::::::::::::::::::::::::::::::::::::::::::
         ::                     SUMMARY                     ::
         :::::::::::::::::::::::::::::::::::::::::::::::::::::
         :: total energy           -5104.077437051061 Eh    ::
         :: gradient norm              0.024433714740 Eh/a0 ::
         :: HOMO-LUMO gap              4.073407763061 eV    ::
         ::.................................................::
         :: SCC energy             -5198.579567603467 Eh    ::
         :: -> isotropic ES            0.265426909615 Eh    ::
         :: -> anisotropic ES          0.785970374183 Eh    ::
         :: -> anisotropic XC          3.252994846834 Eh    ::
         :: -> dispersion             -7.010414292026 Eh    ::
         :: repulsion energy          93.367777359492 Eh    ::
         :: add. restraining           0.000000000000 Eh    ::
         :: total charge              -0.000000000031 e     ::
         :::::::::::::::::::::::::::::::::::::::::::::::::::::

      ----------------------------------------------------------- 
     |              Fast Inertial Relaxation Engine              |
      ----------------------------------------------------------- 

          ...................................................
          :                      SETUP                      :
          :.................................................:
          :   energy convergence        0.5000000E-05 Eh    :
          :   grad. convergence         0.1000000E-02 Eh/a0 :
          :   optimization log               true           :
          :   writing optlog all                1     steps :
          :   Hessian reset                    20     steps :
          :   time step scaling                 5     steps :
          :   maximium step len.        1.0000000     a0    :
          :   initial time step         0.2500000     fs    :
          :   maximum time step         1.2500000     fs    :
          :   power reset thr           0.0000000     au    :
          :   alpha parameter           0.1000000           :
          :   BFGS update                   false           :
          :   preconditioning               false           :
          ...................................................

........................................................................
.............................. CYCLE    1 ..............................
........................................................................

 iter      E             dE          RMSdq      gap      omega  full diag
   1  -5198.5807335 -0.519858E+04  0.335E-04    4.07       0.0  T
   2  -5198.5807335 -0.177733E-07  0.206E-04    4.07       7.8  T
   3  -5198.5807335  0.349128E-07  0.905E-05    4.07      17.8  T
     SCC iter.                  ...        9 min, 48.105 sec
     gradient                   ...        5 min,  1.642 sec
 * total energy  : -5104.0775049 Eh     change    :  -0.6783001E-04 Eh
   gradient norm :     0.0229464 Eh/a0  converged?    E=F G=F D=F
   time step     :     0.2500000 fs     power     :   0.3484859E-08
   step length   :     0.0028636 a0     speed     :   0.2770667E-03

........................................................................
.............................. CYCLE    2 ..............................
........................................................................

 iter      E             dE          RMSdq      gap      omega  full diag
   1  -5198.5824624 -0.519858E+04  0.492E-04    4.07       0.0  T
   2  -5198.5824624 -0.339014E-07  0.302E-04    4.07       5.3  T
   3  -5198.5824623  0.512418E-07  0.111E-04    4.07      14.5  T
     SCC iter.                  ...        9 min, 49.114 sec
     gradient                   ...        5 min,  0.648 sec
 * total energy  : -5104.0775967 Eh     change    :  -0.9186260E-04 Eh
   gradient norm :     0.0208452 Eh/a0  converged?    E=F G=F D=F
   time step     :     0.2500000 fs     power     :   0.4635614E-08
   step length   :     0.0042074 a0     speed     :   0.4070887E-03

........................................................................
.............................. CYCLE    3 ..............................
........................................................................

 iter      E             dE          RMSdq      gap      omega  full diag
   1  -5198.5847416 -0.519858E+04  0.634E-04    4.07       0.0  T
   2  -5198.5847416 -0.524333E-07  0.389E-04    4.07       4.1  T
   3  -5198.5847415  0.790942E-07  0.135E-04    4.07      11.9  T
     SCC iter.                  ...        9 min, 49.481 sec
     gradient                   ...        5 min,  2.274 sec
 * total energy  : -5104.0777020 Eh     change    :  -0.1052614E-03 Eh
   gradient norm :     0.0183353 Eh/a0  converged?    E=F G=F D=F
   time step     :     0.2500000 fs     power     :   0.5206368E-08
   step length   :     0.0054241 a0     speed     :   0.5248104E-03

........................................................................
.............................. CYCLE    4 ..............................
........................................................................

 iter      E             dE          RMSdq      gap      omega  full diag
   1  -5198.5875590 -0.519859E+04  0.757E-04    4.07       0.0  T
   2  -5198.5875591 -0.694472E-07  0.465E-04    4.08       3.5  T
   3  -5198.5875589  0.121674E-06  0.162E-04    4.08      10.0  T
     SCC iter.                  ...        9 min, 47.369 sec
     gradient                   ...        5 min,  2.163 sec
 * total energy  : -5104.0778099 Eh     change    :  -0.1078637E-03 Eh
   gradient norm :     0.0156896 Eh/a0  converged?    E=F G=F D=F
   time step     :     0.2500000 fs     power     :   0.5197760E-08
   step length   :     0.0064819 a0     speed     :   0.6271539E-03

........................................................................
.............................. CYCLE    5 ..............................
........................................................................

 iter      E             dE          RMSdq      gap      omega  full diag
   1  -5198.5909009 -0.519859E+04  0.857E-04    4.08       0.0  T
   2  -5198.5909010 -0.823411E-07  0.529E-04    4.08       3.0  T
   3  -5198.5909008  0.182080E-06  0.190E-04    4.08       8.5  T
     SCC iter.                  ...        9 min, 47.370 sec
     gradient                   ...        5 min,  2.682 sec
 * total energy  : -5104.0779105 Eh     change    :  -0.1006253E-03 Eh
   gradient norm :     0.0132446 Eh/a0  converged?    E=F G=F D=F
   time step     :     0.2500000 fs     power     :   0.4713200E-08
   step length   :     0.0073553 a0     speed     :   0.7116636E-03

........................................................................
.............................. CYCLE    6 ..............................
........................................................................

 iter      E             dE          RMSdq      gap      omega  full diag
   1  -5198.5951747 -0.519860E+04  0.103E-03    4.08       0.0  T
   2  -5198.5951748 -0.110065E-06  0.643E-04    4.08       2.5  T
   3  -5198.5951745  0.353020E-06  0.254E-04    4.08       6.3  T
     SCC iter.                  ...        9 min, 48.594 sec
     gradient                   ...        5 min,  0.761 sec
 * total energy  : -5104.0780055 Eh     change    :  -0.9496943E-04 Eh
   gradient norm :     0.0111799 Eh/a0  converged?    E=F G=F D=F
   time step     :     0.2750000 fs     power     :   0.3834116E-08
   step length   :     0.0089043 a0     speed     :   0.7832175E-03

........................................................................
.............................. CYCLE    7 ..............................
........................................................................

 iter      E             dE          RMSdq      gap      omega  full diag
   1  -5198.6004980 -0.519860E+04  0.120E-03    4.08       0.0  T
   2  -5198.6004982 -0.133579E-06  0.757E-04    4.08       2.1  T
   3  -5198.6004975  0.621969E-06  0.328E-04    4.08       4.9  T
     SCC iter.                  ...        9 min, 48.962 sec
     gradient                   ...        5 min,  2.550 sec
 * total energy  : -5104.0780864 Eh     change    :  -0.8092856E-04 Eh
   gradient norm :     0.0099293 Eh/a0  converged?    E=F G=F D=F
   time step     :     0.3025000 fs     power     :   0.2747046E-08
   step length   :     0.0104296 a0     speed     :   0.8339810E-03

........................................................................
.............................. CYCLE    8 ..............................
........................................................................

 iter      E             dE          RMSdq      gap      omega  full diag
   1  -5198.6068583 -0.519861E+04  0.135E-03    4.08       0.0  T
   2  -5198.6068584 -0.154296E-06  0.857E-04    4.08       1.9  T
   3  -5198.6068575  0.942819E-06  0.403E-04    4.08       4.0  T
     SCC iter.                  ...        9 min, 49.676 sec
     gradient                   ...        5 min,  3.088 sec
 * total energy  : -5104.0781489 Eh     change    :  -0.6249976E-04 Eh
   gradient norm :     0.0094391 Eh/a0  converged?    E=F G=F D=F
   time step     :     0.3327500 fs     power     :   0.1704572E-08
   step length   :     0.0117771 a0     speed     :   0.8561249E-03

........................................................................
.............................. CYCLE    9 ..............................
........................................................................

 iter      E             dE          RMSdq      gap      omega  full diag
   1  -5198.6140195 -0.519861E+04  0.145E-03    4.08       0.0  T
   2  -5198.6140197 -0.179294E-06  0.930E-04    4.08       1.7  T
   3  -5198.6140185  0.113505E-05  0.454E-04    4.08       3.5  T
   4  -5198.6140199 -0.134238E-05  0.526E-05    4.08      30.6  T
   5  -5198.6140199 -0.762793E-08  0.239E-05    4.08      67.3  T
     SCC iter.                  ...       16 min, 16.581 sec
     gradient                   ...        5 min,  1.274 sec
 * total energy  : -5104.0781942 Eh     change    :  -0.4530697E-04 Eh
   gradient norm :     0.0091707 Eh/a0  converged?    E=F G=F D=F
   time step     :     0.3660250 fs     power     :   0.8410784E-09
   step length   :     0.0128367 a0     speed     :   0.8483150E-03

........................................................................
.............................. CYCLE   10 ..............................
........................................................................

 iter      E             dE          RMSdq      gap      omega  full diag
   1  -5198.6214233 -0.519862E+04  0.152E-03    4.08       0.0  T
   2  -5198.6214235 -0.204587E-06  0.964E-04    4.08       1.7  T
   3  -5198.6214223  0.122835E-05  0.493E-04    4.08       3.3  T
   4  -5198.6214238 -0.149256E-05  0.549E-05    4.08      29.3  T
   5  -5198.6214238 -0.987529E-08  0.232E-05    4.08      69.2  T
     SCC iter.                  ...       16 min, 20.797 sec
     gradient                   ...        5 min,  3.932 sec
 * total energy  : -5104.0782210 Eh     change    :  -0.2684868E-04 Eh
   gradient norm :     0.0089510 Eh/a0  converged?    E=F G=F D=F
   time step     :     0.4026275 fs     power     :   0.1721994E-09
   step length   :     0.0135764 a0     speed     :   0.8156365E-03

........................................................................
.............................. CYCLE   11 ..............................
........................................................................

 iter      E             dE          RMSdq      gap      omega  full diag
   1  -5198.6283184 -0.519863E+04  0.153E-03    4.08       0.0  T
   2  -5198.6283187 -0.211099E-06  0.951E-04    4.08       1.7  T
   3  -5198.6283176  0.106358E-05  0.471E-04    4.08       3.4  T
   4  -5198.6283189 -0.127903E-05  0.590E-05    4.08      27.3  T
   5  -5198.6283189 -0.133286E-07  0.223E-05    4.08      72.0  T
     SCC iter.                  ...       16 min, 17.766 sec
     gradient                   ...        5 min,  1.450 sec
 * total energy  : -5104.0782320 Eh     change    :  -0.1094048E-04 Eh
   gradient norm :     0.0091452 Eh/a0  converged?    E=F G=F D=F
   time step     :     0.4428903 fs     power     :  -0.3184047E-09
   step length   :     0.0139853 a0     speed     :   0.7638219E-03

........................................................................
.............................. CYCLE   12 ..............................
........................................................................
 * reset velocities

 iter      E             dE          RMSdq      gap      omega  full diag
   1  -5198.6281543 -0.519863E+04  0.386E-05    4.08       0.0  T
   2  -5198.6281543 -0.480213E-09  0.296E-05    4.08      54.3  T
   3  -5198.6281543 -0.181899E-09  0.147E-05    4.08     109.8  T
     SCC iter.                  ...        9 min, 50.968 sec
     gradient                   ...        5 min,  1.134 sec
 * total energy  : -5104.0782358 Eh     change    :  -0.3806672E-05 Eh
   gradient norm :     0.0089631 Eh/a0  converged?    E=T G=F D=T
   time step     :     0.2214451 fs     power     :   0.2258166E-09
   step length   :     0.0004205 a0     speed     :   0.4592849E-04

........................................................................
.............................. CYCLE   13 ..............................
........................................................................

 iter      E             dE          RMSdq      gap      omega  full diag
   1  -5198.6278262 -0.519863E+04  0.773E-05    4.08       0.0  T
   2  -5198.6278262 -0.163436E-08  0.557E-05    4.08      28.9  T
   3  -5198.6278262  0.224918E-08  0.244E-05    4.08      65.8  T
     SCC iter.                  ...        9 min, 50.422 sec
     gradient                   ...        5 min,  2.127 sec
 * total energy  : -5104.0782431 Eh     change    :  -0.7348823E-05 Eh
   gradient norm :     0.0086066 Eh/a0  converged?    E=F G=F D=T
   time step     :     0.2214451 fs     power     :   0.4292243E-09
   step length   :     0.0008326 a0     speed     :   0.9094131E-04

........................................................................
.............................. CYCLE   14 ..............................
........................................................................

 iter      E             dE          RMSdq      gap      omega  full diag
   1  -5198.6273374 -0.519863E+04  0.115E-04    4.08       0.0  T
   2  -5198.6273374 -0.313867E-08  0.813E-05    4.08      19.8  T
   3  -5198.6273374  0.559157E-08  0.350E-05    4.08      45.9  T
     SCC iter.                  ...        9 min, 46.935 sec
     gradient                   ...        5 min,  0.524 sec
 * total energy  : -5104.0782534 Eh     change    :  -0.1025880E-04 Eh
   gradient norm :     0.0080904 Eh/a0  converged?    E=F G=F D=F
   time step     :     0.2214451 fs     power     :   0.5946641E-09
   step length   :     0.0012282 a0     speed     :   0.1341541E-03

........................................................................
.............................. CYCLE   15 ..............................
........................................................................

 iter      E             dE          RMSdq      gap      omega  full diag
   1  -5198.6266925 -0.519863E+04  0.150E-04    4.08       0.0  T
   2  -5198.6266925 -0.504861E-08  0.105E-04    4.08      15.3  T
   3  -5198.6266925  0.979617E-08  0.451E-05    4.08      35.6  T
     SCC iter.                  ...        9 min, 47.373 sec
     gradient                   ...        5 min,  1.619 sec
 * total energy  : -5104.0782658 Eh     change    :  -0.1236052E-04 Eh
   gradient norm :     0.0074383 Eh/a0  converged?    E=F G=F D=F
   time step     :     0.2214451 fs     power     :   0.7104930E-09
   step length   :     0.0015997 a0     speed     :   0.1747389E-03

........................................................................
.............................. CYCLE   16 ..............................
........................................................................

 iter      E             dE          RMSdq      gap      omega  full diag
   1  -5198.6258967 -0.519863E+04  0.181E-04    4.08       0.0  T
   2  -5198.6258967 -0.716318E-08  0.127E-04    4.08      12.7  T
   3  -5198.6258967  0.146838E-07  0.544E-05    4.08      29.6  T
     SCC iter.                  ...        9 min, 50.122 sec
     gradient                   ...        5 min,  2.547 sec
 * total energy  : -5104.0782794 Eh     change    :  -0.1363151E-04 Eh
   gradient norm :     0.0066832 Eh/a0  converged?    E=F G=F D=F
   time step     :     0.2214451 fs     power     :   0.7702633E-09
   step length   :     0.0019404 a0     speed     :   0.2119510E-03

........................................................................
.............................. CYCLE   17 ..............................
........................................................................

 iter      E             dE          RMSdq      gap      omega  full diag
   1  -5198.6249564 -0.519862E+04  0.208E-04    4.08       0.0  T
   2  -5198.6249564 -0.900036E-08  0.146E-04    4.08      11.0  T
   3  -5198.6249564  0.202908E-07  0.625E-05    4.08      25.7  T
     SCC iter.                  ...        9 min, 48.280 sec
     gradient                   ...        5 min,  1.397 sec
 * total energy  : -5104.0782933 Eh     change    :  -0.1389363E-04 Eh
   gradient norm :     0.0058683 Eh/a0  converged?    E=F G=F D=F
   time step     :     0.2214451 fs     power     :   0.7734747E-09
   step length   :     0.0022442 a0     speed     :   0.2451422E-03

........................................................................
.............................. CYCLE   18 ..............................
........................................................................

 iter      E             dE          RMSdq      gap      omega  full diag
   1  -5198.6237575 -0.519862E+04  0.254E-04    4.08       0.0  T
   2  -5198.6237576 -0.131286E-07  0.179E-04    4.08       9.0  T
   3  -5198.6237575  0.325072E-07  0.776E-05    4.08      20.7  T
     SCC iter.                  ...        9 min, 46.769 sec
     gradient                   ...        5 min,  1.665 sec
 * total energy  : -5104.0783079 Eh     change    :  -0.1460668E-04 Eh
   gradient norm :     0.0049666 Eh/a0  converged?    E=F G=F D=F
   time step     :     0.2435896 fs     power     :   0.7179525E-09
   step length   :     0.0027861 a0     speed     :   0.2766595E-03

........................................................................
.............................. CYCLE   19 ..............................
........................................................................

 iter      E             dE          RMSdq      gap      omega  full diag
   1  -5198.6222568 -0.519862E+04  0.301E-04    4.08       0.0  T
   2  -5198.6222568 -0.173832E-07  0.213E-04    4.08       7.5  T
   3  -5198.6222568  0.496484E-07  0.935E-05    4.08      17.2  T
     SCC iter.                  ...        9 min, 48.694 sec
     gradient                   ...        5 min,  0.136 sec
 * total energy  : -5104.0783220 Eh     change    :  -0.1411498E-04 Eh
   gradient norm :     0.0040898 Eh/a0  converged?    E=F G=F D=F
   time step     :     0.2679486 fs     power     :   0.6019325E-09
   step length   :     0.0033743 a0     speed     :   0.3046097E-03

........................................................................
.............................. CYCLE   20 ..............................
........................................................................

 iter      E             dE          RMSdq      gap      omega  full diag
   1  -5198.6204201 -0.519862E+04  0.346E-04    4.08       0.0  T
   2  -5198.6204201 -0.208229E-07  0.245E-04    4.08       6.6  T
   3  -5198.6204200  0.720092E-07  0.109E-04    4.08      14.7  T
     SCC iter.                  ...        9 min, 46.547 sec
     gradient                   ...        5 min,  0.985 sec
 * total energy  : -5104.0783342 Eh     change    :  -0.1223327E-04 Eh
   gradient norm :     0.0034455 Eh/a0  converged?    E=F G=F D=F
   time step     :     0.2947435 fs     power     :   0.4399030E-09
   step length   :     0.0039754 a0     speed     :   0.3262550E-03
 * RMSD in coord.:     0.0013739 a0     energy gain  -0.8971918E-03 Eh

........................................................................
.............................. CYCLE   21 ..............................
........................................................................

 iter      E             dE          RMSdq      gap      omega  full diag
   1  -5198.6187738 -0.519862E+04  0.292E-04    4.08       0.0  T
   2  -5198.6187738 -0.121108E-07  0.204E-04    4.08       7.9  T
   3  -5198.6187737  0.541522E-07  0.918E-05    4.08      17.5  T
     SCC iter.                  ...        9 min, 48.838 sec
     gradient                   ...        5 min,  0.670 sec
 * total energy  : -5104.0783418 Eh     change    :  -0.7578588E-05 Eh
   gradient norm :     0.0032732 Eh/a0  converged?    E=F G=F D=F
   time step     :     0.2500000 fs     power     :   0.3166003E-09
   step length   :     0.0034401 a0     speed     :   0.3328520E-03

........................................................................
.............................. CYCLE   22 ..............................
........................................................................

 iter      E             dE          RMSdq      gap      omega  full diag
   1  -5198.6171097 -0.519862E+04  0.277E-04    4.08       0.0  T
   2  -5198.6171097 -0.906857E-08  0.192E-04    4.08       8.4  T
   3  -5198.6171097  0.526052E-07  0.893E-05    4.08      18.0  T
     SCC iter.                  ...        9 min, 48.407 sec
     gradient                   ...        5 min,  1.561 sec
 * total energy  : -5104.0783476 Eh     change    :  -0.5737168E-05 Eh
   gradient norm :     0.0033563 Eh/a0  converged?    E=F G=F D=F
   time step     :     0.2500000 fs     power     :   0.2329362E-09
   step length   :     0.0034104 a0     speed     :   0.3299723E-03

........................................................................
.............................. CYCLE   23 ..............................
........................................................................

 iter      E             dE          RMSdq      gap      omega  full diag
   1  -5198.6155037 -0.519862E+04  0.260E-04    4.08       0.0  T
   2  -5198.6155037 -0.616274E-08  0.175E-04    4.08       9.2  T
   3  -5198.6155036  0.420241E-07  0.803E-05    4.08      20.0  T
     SCC iter.                  ...        9 min, 48.194 sec
     gradient                   ...        5 min,  0.457 sec
 * total energy  : -5104.0783522 Eh     change    :  -0.4691365E-05 Eh
   gradient norm :     0.0035329 Eh/a0  converged?    E=T G=F D=F
   time step     :     0.2500000 fs     power     :   0.1959978E-09
   step length   :     0.0033129 a0     speed     :   0.3205442E-03

........................................................................
.............................. CYCLE   24 ..............................
........................................................................

 iter      E             dE          RMSdq      gap      omega  full diag
   1  -5198.6140185 -0.519861E+04  0.244E-04    4.08       0.0  T
   2  -5198.6140185 -0.410091E-08  0.158E-04    4.08      10.2  T
   3  -5198.6140185  0.244727E-07  0.627E-05    4.08      25.6  T
     SCC iter.                  ...        9 min, 52.154 sec
     gradient                   ...        5 min,  1.229 sec
 * total energy  : -5104.0783567 Eh     change    :  -0.4480512E-05 Eh
   gradient norm :     0.0036833 Eh/a0  converged?    E=T G=F D=F
   time step     :     0.2500000 fs     power     :   0.1980693E-09
   step length   :     0.0031926 a0     speed     :   0.3089020E-03

........................................................................
.............................. CYCLE   25 ..............................
........................................................................

 iter      E             dE          RMSdq      gap      omega  full diag
   1  -5198.6126983 -0.519861E+04  0.235E-04    4.08       0.0  T
   2  -5198.6126984 -0.271666E-08  0.145E-04    4.08      11.1  T
   3  -5198.6126983  0.724594E-08  0.369E-05    4.08      43.6  T
     SCC iter.                  ...        9 min, 49.705 sec
     gradient                   ...        5 min,  0.145 sec
 * total energy  : -5104.0783615 Eh     change    :  -0.4771206E-05 Eh
   gradient norm :     0.0037506 Eh/a0  converged?    E=T G=F D=F
   time step     :     0.2500000 fs     power     :   0.2246253E-09
   step length   :     0.0030852 a0     speed     :   0.2985068E-03

........................................................................
.............................. CYCLE   26 ..............................
........................................................................

 iter      E             dE          RMSdq      gap      omega  full diag
   1  -5198.6114613 -0.519861E+04  0.255E-04    4.08       0.0  T
   2  -5198.6114614 -0.260115E-08  0.152E-04    4.08      10.6  T
   3  -5198.6114614  0.143609E-08  0.244E-05    4.08      65.9  T
     SCC iter.                  ...        9 min, 46.795 sec
     gradient                   ...        5 min,  1.621 sec
 * total energy  : -5104.0783674 Eh     change    :  -0.5913421E-05 Eh
   gradient norm :     0.0037109 Eh/a0  converged?    E=F G=F D=F
   time step     :     0.2750000 fs     power     :   0.2605338E-09
   step length   :     0.0033238 a0     speed     :   0.2923587E-03

........................................................................
.............................. CYCLE   27 ..............................
........................................................................

 iter      E             dE          RMSdq      gap      omega  full diag
   1  -5198.6103665 -0.519861E+04  0.282E-04    4.08       0.0  T
   2  -5198.6103665 -0.292675E-08  0.166E-04    4.08       9.7  T
   3  -5198.6103665  0.362616E-08  0.317E-05    4.08      50.8  T
     SCC iter.                  ...        9 min, 47.542 sec
     gradient                   ...        5 min,  2.270 sec
 * total energy  : -5104.0783747 Eh     change    :  -0.7265306E-05 Eh
   gradient norm :     0.0035513 Eh/a0  converged?    E=F G=F D=F
   time step     :     0.3025000 fs     power     :   0.2935969E-09
   step length   :     0.0036437 a0     speed     :   0.2913646E-03

........................................................................
.............................. CYCLE   28 ..............................
........................................................................

 iter      E             dE          RMSdq      gap      omega  full diag
   1  -5198.6094812 -0.519861E+04  0.320E-04    4.08       0.0  T
   2  -5198.6094812 -0.417913E-08  0.189E-04    4.08       8.5  T
   3  -5198.6094812  0.150658E-07  0.560E-05    4.08      28.7  T
     SCC iter.                  ...        9 min, 49.018 sec
     gradient                   ...        5 min,  1.640 sec
 * total energy  : -5104.0783833 Eh     change    :  -0.8577696E-05 Eh
   gradient norm :     0.0032838 Eh/a0  converged?    E=F G=F D=F
   time step     :     0.3327500 fs     power     :   0.3128480E-09
   step length   :     0.0040618 a0     speed     :   0.2952659E-03

........................................................................
.............................. CYCLE   29 ..............................
........................................................................

 iter      E             dE          RMSdq      gap      omega  full diag
   1  -5198.6088815 -0.519861E+04  0.366E-04    4.08       0.0  T
   2  -5198.6088815 -0.610999E-08  0.219E-04    4.08       7.4  T
   3  -5198.6088814  0.406053E-07  0.888E-05    4.08      18.1  T
     SCC iter.                  ...        9 min, 45.772 sec
     gradient                   ...        5 min,  2.157 sec
 * total energy  : -5104.0783928 Eh     change    :  -0.9529093E-05 Eh
   gradient norm :     0.0029500 Eh/a0  converged?    E=F G=F D=F
   time step     :     0.3660250 fs     power     :   0.3103345E-09
   step length   :     0.0045834 a0     speed     :   0.3028940E-03

........................................................................
.............................. CYCLE   30 ..............................
........................................................................

 iter      E             dE          RMSdq      gap      omega  full diag
   1  -5198.6086466 -0.519861E+04  0.413E-04    4.08       0.0  T
   2  -5198.6086466 -0.845284E-08  0.251E-04    4.08       6.4  T
   3  -5198.6086465  0.724895E-07  0.118E-04    4.08      13.7  T
     SCC iter.                  ...        9 min, 46.699 sec
     gradient                   ...        5 min,  0.980 sec
 * total energy  : -5104.0784026 Eh     change    :  -0.9858174E-05 Eh
   gradient norm :     0.0026362 Eh/a0  converged?    E=F G=F D=F
   time step     :     0.4026275 fs     power     :   0.2842731E-09
   step length   :     0.0051983 a0     speed     :   0.3122997E-03

........................................................................
.............................. CYCLE   31 ..............................
........................................................................

 iter      E             dE          RMSdq      gap      omega  full diag
   1  -5198.6088398 -0.519861E+04  0.455E-04    4.08       0.0  T
   2  -5198.6088399 -0.101500E-07  0.279E-04    4.08       5.8  T
   3  -5198.6088398  0.973887E-07  0.135E-04    4.08      11.9  T
     SCC iter.                  ...        9 min, 47.641 sec
     gradient                   ...        5 min,  1.286 sec
 * total energy  : -5104.0784123 Eh     change    :  -0.9625548E-05 Eh
   gradient norm :     0.0024243 Eh/a0  converged?    E=F G=F D=F
   time step     :     0.4428903 fs     power     :   0.2426731E-09
   step length   :     0.0058764 a0     speed     :   0.3209430E-03

........................................................................
.............................. CYCLE   32 ..............................
........................................................................

 iter      E             dE          RMSdq      gap      omega  full diag
   1  -5198.6094711 -0.519861E+04  0.482E-04    4.08       0.0  T
   2  -5198.6094711 -0.116297E-07  0.295E-04    4.08       5.5  T
   3  -5198.6094710  0.100582E-06  0.136E-04    4.08      11.8  T
     SCC iter.                  ...        9 min, 47.831 sec
     gradient                   ...        5 min,  3.067 sec
 * total energy  : -5104.0784213 Eh     change    :  -0.9054976E-05 Eh
   gradient norm :     0.0023715 Eh/a0  converged?    E=F G=F D=F
   time step     :     0.4871793 fs     power     :   0.2007145E-09
   step length   :     0.0065763 a0     speed     :   0.3265198E-03

........................................................................
.............................. CYCLE   33 ..............................
........................................................................

 iter      E             dE          RMSdq      gap      omega  full diag
   1  -5198.6104654 -0.519861E+04  0.489E-04    4.08       0.0  T
   2  -5198.6104654 -0.121572E-07  0.295E-04    4.08       5.5  T
   3  -5198.6104654  0.669252E-07  0.112E-04    4.08      14.4  T
     SCC iter.                  ...        9 min, 50.328 sec
     gradient                   ...        5 min,  2.677 sec
 * total energy  : -5104.0784301 Eh     change    :  -0.8726610E-05 Eh
   gradient norm :     0.0024284 Eh/a0  converged?    E=F G=F D=F
   time step     :     0.5358972 fs     power     :   0.1732911E-09
   step length   :     0.0072726 a0     speed     :   0.3282657E-03

........................................................................
.............................. CYCLE   34 ..............................
........................................................................

 iter      E             dE          RMSdq      gap      omega  full diag
   1  -5198.6116683 -0.519861E+04  0.476E-04    4.08       0.0  T
   2  -5198.6116684 -0.115670E-07  0.284E-04    4.08       5.7  T
   3  -5198.6116683  0.158379E-07  0.624E-05    4.08      25.8  T
     SCC iter.                  ...        9 min, 46.710 sec
     gradient                   ...        5 min,  1.603 sec
 * total energy  : -5104.0784392 Eh     change    :  -0.9122374E-05 Eh
   gradient norm :     0.0025213 Eh/a0  converged?    E=F G=F D=F
   time step     :     0.5894869 fs     power     :   0.1683309E-09
   step length   :     0.0079921 a0     speed     :   0.3279446E-03

........................................................................
.............................. CYCLE   35 ..............................
........................................................................

 iter      E             dE          RMSdq      gap      omega  full diag
   1  -5198.6128752 -0.519861E+04  0.452E-04    4.08       0.0  T
   2  -5198.6128752 -0.916953E-08  0.274E-04    4.08       5.9  T
   3  -5198.6128752  0.164873E-07  0.592E-05    4.08      27.2  T
     SCC iter.                  ...        9 min, 48.075 sec
     gradient                   ...        5 min,  6.666 sec
 * total energy  : -5104.0784497 Eh     change    :  -0.1051896E-04 Eh
   gradient norm :     0.0025325 Eh/a0  converged?    E=F G=F D=F
   time step     :     0.6484356 fs     power     :   0.1839600E-09
   step length   :     0.0088145 a0     speed     :   0.3288102E-03

........................................................................
.............................. CYCLE   36 ..............................
........................................................................

 iter      E             dE          RMSdq      gap      omega  full diag
   1  -5198.6138614 -0.519861E+04  0.440E-04    4.08       0.0  T
   2  -5198.6138614 -0.721138E-08  0.271E-04    4.08       5.9  T
   3  -5198.6138614  0.275477E-07  0.713E-05    4.08      22.6  T
     SCC iter.                  ...        9 min, 48.056 sec
     gradient                   ...        5 min,  2.521 sec
 * total energy  : -5104.0784622 Eh     change    :  -0.1251283E-04 Eh
   gradient norm :     0.0023706 Eh/a0  converged?    E=F G=F D=F
   time step     :     0.7132792 fs     power     :   0.2022673E-09
   step length   :     0.0098454 a0     speed     :   0.3338784E-03

........................................................................
.............................. CYCLE   37 ..............................
........................................................................

 iter      E             dE          RMSdq      gap      omega  full diag
   1  -5198.6144173 -0.519861E+04  0.444E-04    4.08       0.0  T
   2  -5198.6144173 -0.114005E-07  0.284E-04    4.08       5.7  T
   3  -5198.6144172  0.746422E-07  0.110E-04    4.08      14.6  T
     SCC iter.                  ...        9 min, 47.537 sec
     gradient                   ...        5 min,  3.469 sec
 * total energy  : -5104.0784763 Eh     change    :  -0.1407693E-04 Eh
   gradient norm :     0.0022629 Eh/a0  converged?    E=F G=F D=F
   time step     :     0.7846071 fs     power     :   0.2041959E-09
   step length   :     0.0111431 a0     speed     :   0.3435334E-03

........................................................................
.............................. CYCLE   38 ..............................
........................................................................

 iter      E             dE          RMSdq      gap      omega  full diag
   1  -5198.6144032 -0.519861E+04  0.470E-04    4.08       0.0  T
   2  -5198.6144032 -0.159162E-07  0.296E-04    4.08       5.4  T
   3  -5198.6144031  0.637174E-07  0.107E-04    4.08      15.1  T
     SCC iter.                  ...        9 min, 47.799 sec
     gradient                   ...        5 min,  1.439 sec
 * total energy  : -5104.0784924 Eh     change    :  -0.1616230E-04 Eh
   gradient norm :     0.0024204 Eh/a0  converged?    E=F G=F D=F
   time step     :     0.8630678 fs     power     :   0.2141322E-09
   step length   :     0.0126662 a0     speed     :   0.3549890E-03

........................................................................
.............................. CYCLE   39 ..............................
........................................................................

 iter      E             dE          RMSdq      gap      omega  full diag
   1  -5198.6139333 -0.519861E+04  0.538E-04    4.08       0.0  T
   2  -5198.6139334 -0.144873E-07  0.324E-04    4.08       5.0  T
   3  -5198.6139333  0.236996E-07  0.735E-05    4.08      21.9  T
     SCC iter.                  ...        9 min, 47.540 sec
     gradient                   ...        5 min,  2.237 sec
 * total energy  : -5104.0785125 Eh     change    :  -0.2007323E-04 Eh
   gradient norm :     0.0023747 Eh/a0  converged?    E=F G=F D=F
   time step     :     0.9493746 fs     power     :   0.2559164E-09
   step length   :     0.0144903 a0     speed     :   0.3691931E-03

........................................................................
.............................. CYCLE   40 ..............................
........................................................................

 iter      E             dE          RMSdq      gap      omega  full diag
   1  -5198.6135113 -0.519861E+04  0.627E-04    4.08       0.0  T
   2  -5198.6135113 -0.168984E-07  0.380E-04    4.08       4.2  T
   3  -5198.6135113  0.500495E-07  0.990E-05    4.08      16.2  T
     SCC iter.                  ...        9 min, 48.616 sec
     gradient                   ...        5 min, 16.068 sec
 * total energy  : -5104.0785371 Eh     change    :  -0.2462848E-04 Eh
   gradient norm :     0.0020590 Eh/a0  converged?    E=F G=F D=F
   time step     :     1.0443120 fs     power     :   0.2770947E-09
   step length   :     0.0168947 a0     speed     :   0.3913233E-03

........................................................................
.............................. CYCLE   41 ..............................
........................................................................

 iter      E             dE          RMSdq      gap      omega  full diag
   1  -5198.6140159 -0.519861E+04  0.677E-04    4.08       0.0  T
   2  -5198.6140159 -0.210848E-07  0.416E-04    4.08       3.9  T
   3  -5198.6140158  0.807067E-07  0.123E-04    4.08      13.0  T
     SCC iter.                  ...        9 min, 47.727 sec
     gradient                   ...        5 min,  0.967 sec
 * total energy  : -5104.0785637 Eh     change    :  -0.2655821E-04 Eh
   gradient norm :     0.0021420 Eh/a0  converged?    E=F G=F D=F
   time step     :     1.1487432 fs     power     :   0.2622910E-09
   step length   :     0.0198494 a0     speed     :   0.4179649E-03

........................................................................
.............................. CYCLE   42 ..............................
........................................................................

 iter      E             dE          RMSdq      gap      omega  full diag
   1  -5198.6157599 -0.519862E+04  0.732E-04    4.08       0.0  T
   2  -5198.6157599 -0.152204E-07  0.435E-04    4.08       3.7  T
   3  -5198.6157599  0.158998E-07  0.677E-05    4.08      23.7  T
     SCC iter.                  ...        9 min, 46.062 sec
     gradient                   ...        5 min,  0.110 sec
 * total energy  : -5104.0785945 Eh     change    :  -0.3079924E-04 Eh
   gradient norm :     0.0022729 Eh/a0  converged?    E=F G=F D=F
   time step     :     1.2500000 fs     power     :   0.3002474E-09
   step length   :     0.0228095 a0     speed     :   0.4413879E-03
 * RMSD in coord.:     0.0025342 a0     energy gain  -0.2602622E-03 Eh

........................................................................
.............................. CYCLE   43 ..............................
........................................................................

 iter      E             dE          RMSdq      gap      omega  full diag
   1  -5198.6160911 -0.519862E+04  0.143E-04    4.08       0.0  T
   2  -5198.6160911 -0.550244E-09  0.842E-05    4.08      19.1  T
   3  -5198.6160911  0.228556E-08  0.232E-05    4.08      69.4  T
     SCC iter.                  ...        9 min, 48.392 sec
     gradient                   ...        5 min,  0.562 sec
 * total energy  : -5104.0786009 Eh     change    :  -0.6367532E-05 Eh
   gradient norm :     0.0022064 Eh/a0  converged?    E=F G=F D=F
   time step     :     0.2500000 fs     power     :   0.3330609E-09
   step length   :     0.0044547 a0     speed     :   0.4310175E-03

........................................................................
.............................. CYCLE   44 ..............................
........................................................................

 iter      E             dE          RMSdq      gap      omega  full diag
   1  -5198.6163869 -0.519862E+04  0.151E-04    4.08       0.0  T
   2  -5198.6163869 -0.942237E-09  0.902E-05    4.08      17.8  T
   3  -5198.6163869  0.322962E-08  0.267E-05    4.08      60.4  T
     SCC iter.                  ...        9 min, 48.625 sec
     gradient                   ...        5 min,  4.235 sec
 * total energy  : -5104.0786077 Eh     change    :  -0.6842144E-05 Eh
   gradient norm :     0.0020131 Eh/a0  converged?    E=F G=F D=F
   time step     :     0.2500000 fs     power     :   0.3523872E-09
   step length   :     0.0043985 a0     speed     :   0.4255771E-03

........................................................................
.............................. CYCLE   45 ..............................
........................................................................

 iter      E             dE          RMSdq      gap      omega  full diag
   1  -5198.6166352 -0.519862E+04  0.166E-04    4.08       0.0  T
   2  -5198.6166352 -0.147611E-08  0.101E-04    4.08      15.9  T
   3  -5198.6166352  0.536511E-08  0.333E-05    4.08      48.3  T
     SCC iter.                  ...        9 min, 48.604 sec
     gradient                   ...        5 min,  0.292 sec
 * total energy  : -5104.0786146 Eh     change    :  -0.6855153E-05 Eh
   gradient norm :     0.0017645 Eh/a0  converged?    E=F G=F D=F
   time step     :     0.2500000 fs     power     :   0.3517308E-09
   step length   :     0.0043924 a0     speed     :   0.4249892E-03

........................................................................
.............................. CYCLE   46 ..............................
........................................................................

 iter      E             dE          RMSdq      gap      omega  full diag
   1  -5198.6168295 -0.519862E+04  0.180E-04    4.08       0.0  T
   2  -5198.6168295 -0.167802E-08  0.110E-04    4.08      14.6  T
   3  -5198.6168295  0.672935E-08  0.366E-05    4.08      43.9  T
     SCC iter.                  ...        9 min, 48.567 sec
     gradient                   ...        5 min,  0.048 sec
 * total energy  : -5104.0786212 Eh     change    :  -0.6677140E-05 Eh
   gradient norm :     0.0015628 Eh/a0  converged?    E=F G=F D=F
   time step     :     0.2500000 fs     power     :   0.3339480E-09
   step length   :     0.0044261 a0     speed     :   0.4282469E-03

........................................................................
.............................. CYCLE   47 ..............................
........................................................................

 iter      E             dE          RMSdq      gap      omega  full diag
   1  -5198.6169704 -0.519862E+04  0.186E-04    4.08       0.0  T
   2  -5198.6169704 -0.168257E-08  0.113E-04    4.08      14.2  T
   3  -5198.6169704  0.670752E-08  0.356E-05    4.08      45.2  T
     SCC iter.                  ...        9 min, 48.837 sec
     gradient                   ...        5 min,  2.211 sec
 * total energy  : -5104.0786274 Eh     change    :  -0.6152683E-05 Eh
   gradient norm :     0.0015267 Eh/a0  converged?    E=F G=F D=F
   time step     :     0.2500000 fs     power     :   0.3098272E-09
   step length   :     0.0044749 a0     speed     :   0.4329668E-03

........................................................................
.............................. CYCLE   48 ..............................
........................................................................

 iter      E             dE          RMSdq      gap      omega  full diag
   1  -5198.6170764 -0.519862E+04  0.197E-04    4.08       0.0  T
   2  -5198.6170764 -0.180717E-08  0.120E-04    4.08      13.4  T
   3  -5198.6170764  0.622003E-08  0.339E-05    4.08      47.5  T
     SCC iter.                  ...        9 min, 47.591 sec
     gradient                   ...        5 min,  1.231 sec
 * total energy  : -5104.0786338 Eh     change    :  -0.6376193E-05 Eh
   gradient norm :     0.0015711 Eh/a0  converged?    E=F G=F D=F
   time step     :     0.2750000 fs     power     :   0.2908591E-09
   step length   :     0.0049530 a0     speed     :   0.4356639E-03

........................................................................
.............................. CYCLE   49 ..............................
........................................................................

 iter      E             dE          RMSdq      gap      omega  full diag
   1  -5198.6171526 -0.519862E+04  0.196E-04    4.08       0.0  T
   2  -5198.6171526 -0.153705E-08  0.118E-04    4.08      13.7  T
   3  -5198.6171526  0.347791E-08  0.263E-05    4.08      61.1  T
     SCC iter.                  ...        9 min, 48.031 sec
     gradient                   ...        5 min,  3.108 sec
 * total energy  : -5104.0786406 Eh     change    :  -0.6789498E-05 Eh
   gradient norm :     0.0017001 Eh/a0  converged?    E=F G=F D=F
   time step     :     0.3025000 fs     power     :   0.2876221E-09
   step length   :     0.0054479 a0     speed     :   0.4356282E-03

........................................................................
.............................. CYCLE   50 ..............................
........................................................................

 iter      E             dE          RMSdq      gap      omega  full diag
   1  -5198.6172034 -0.519862E+04  0.189E-04    4.08       0.0  T
   2  -5198.6172034 -0.998625E-09  0.112E-04    4.08      14.4  T
   3  -5198.6172034  0.114778E-08  0.175E-05    4.08      92.1  T
     SCC iter.                  ...        9 min, 49.772 sec
     gradient                   ...        5 min,  1.435 sec
 * total energy  : -5104.0786482 Eh     change    :  -0.7647503E-05 Eh
   gradient norm :     0.0017749 Eh/a0  converged?    E=F G=F D=F
   time step     :     0.3327500 fs     power     :   0.2994037E-09
   step length   :     0.0059705 a0     speed     :   0.4340165E-03

........................................................................
.............................. CYCLE   51 ..............................
........................................................................

 iter      E             dE          RMSdq      gap      omega  full diag
   1  -5198.6172227 -0.519862E+04  0.188E-04    4.08       0.0  T
   2  -5198.6172227 -0.719410E-09  0.111E-04    4.08      14.5  T
   3  -5198.6172227  0.119053E-08  0.169E-05    4.08      95.0  T
     SCC iter.                  ...        9 min, 45.961 sec
     gradient                   ...        5 min,  2.225 sec
 * total energy  : -5104.0786571 Eh     change    :  -0.8841550E-05 Eh
   gradient norm :     0.0017332 Eh/a0  converged?    E=F G=F D=F
   time step     :     0.3660250 fs     power     :   0.3161738E-09
   step length   :     0.0065678 a0     speed     :   0.4340377E-03

........................................................................
.............................. CYCLE   52 ..............................
........................................................................

 iter      E             dE          RMSdq      gap      omega  full diag
   1  -5198.6171882 -0.519862E+04  0.203E-04    4.08       0.0  T
   2  -5198.6171882 -0.113778E-08  0.122E-04    4.08      13.2  T
   3  -5198.6171882  0.391356E-08  0.280E-05    4.08      57.5  T
     SCC iter.                  ...        9 min, 49.106 sec
     gradient                   ...        5 min,  0.603 sec
 * total energy  : -5104.0786672 Eh     change    :  -0.1011520E-04 Eh
   gradient norm :     0.0015913 Eh/a0  converged?    E=F G=F D=F
   time step     :     0.4026275 fs     power     :   0.3254355E-09
   step length   :     0.0072902 a0     speed     :   0.4379761E-03

........................................................................
.............................. CYCLE   53 ..............................
........................................................................

 iter      E             dE          RMSdq      gap      omega  full diag
   1  -5198.6170581 -0.519862E+04  0.231E-04    4.08       0.0  T
   2  -5198.6170581 -0.221735E-08  0.142E-04    4.08      11.4  T
   3  -5198.6170581  0.964610E-08  0.426E-05    4.08      37.7  T
     SCC iter.                  ...        9 min, 48.427 sec
     gradient                   ...        5 min,  0.870 sec
 * total energy  : -5104.0786783 Eh     change    :  -0.1114135E-04 Eh
   gradient norm :     0.0014682 Eh/a0  converged?    E=F G=F D=F
   time step     :     0.4428903 fs     power     :   0.3213377E-09
   step length   :     0.0081736 a0     speed     :   0.4464078E-03

........................................................................
.............................. CYCLE   54 ..............................
........................................................................

 iter      E             dE          RMSdq      gap      omega  full diag
   1  -5198.6167870 -0.519862E+04  0.259E-04    4.08       0.0  T
   2  -5198.6167870 -0.284217E-08  0.160E-04    4.08      10.1  T
   3  -5198.6167870  0.124774E-07  0.478E-05    4.08      33.7  T
     SCC iter.                  ...        9 min, 47.051 sec
     gradient                   ...        5 min,  1.504 sec
 * total energy  : -5104.0786903 Eh     change    :  -0.1196635E-04 Eh
   gradient norm :     0.0014851 Eh/a0  converged?    E=F G=F D=F
   time step     :     0.4871793 fs     power     :   0.3129112E-09
   step length   :     0.0092080 a0     speed     :   0.4571861E-03

........................................................................
.............................. CYCLE   55 ..............................
........................................................................

 iter      E             dE          RMSdq      gap      omega  full diag
   1  -5198.6163766 -0.519862E+04  0.277E-04    4.08       0.0  T
   2  -5198.6163766 -0.240470E-08  0.167E-04    4.08       9.6  T
   3  -5198.6163766  0.778618E-08  0.391E-05    4.08      41.2  T
     SCC iter.                  ...        9 min, 46.603 sec
     gradient                   ...        4 min, 59.036 sec
 * total energy  : -5104.0787034 Eh     change    :  -0.1308045E-04 Eh
   gradient norm :     0.0015681 Eh/a0  converged?    E=F G=F D=F
   time step     :     0.5358972 fs     power     :   0.3149123E-09
   step length   :     0.0103396 a0     speed     :   0.4666980E-03

........................................................................
.............................. CYCLE   56 ..............................
........................................................................

 iter      E             dE          RMSdq      gap      omega  full diag
   1  -5198.6159171 -0.519862E+04  0.291E-04    4.08       0.0  T
   2  -5198.6159171 -0.186719E-08  0.172E-04    4.08       9.3  T
   3  -5198.6159171  0.269029E-08  0.283E-05    4.08      56.9  T
     SCC iter.                  ...        9 min, 48.039 sec
     gradient                   ...        5 min,  1.274 sec
 * total energy  : -5104.0787183 Eh     change    :  -0.1490237E-04 Eh
   gradient norm :     0.0015938 Eh/a0  converged?    E=F G=F D=F
   time step     :     0.5894869 fs     power     :   0.3285815E-09
   step length   :     0.0115885 a0     speed     :   0.4755181E-03

........................................................................
.............................. CYCLE   57 ..............................
........................................................................

 iter      E             dE          RMSdq      gap      omega  full diag
   1  -5198.6155898 -0.519862E+04  0.317E-04    4.08       0.0  T
   2  -5198.6155898 -0.229647E-08  0.189E-04    4.08       8.5  T
   3  -5198.6155898  0.988257E-08  0.433E-05    4.08      37.2  T
     SCC iter.                  ...        9 min, 46.516 sec
     gradient                   ...        5 min,  0.745 sec
 * total energy  : -5104.0787355 Eh     change    :  -0.1726368E-04 Eh
   gradient norm :     0.0015204 Eh/a0  converged?    E=F G=F D=F
   time step     :     0.6484356 fs     power     :   0.3437552E-09
   step length   :     0.0130460 a0     speed     :   0.4866609E-03

........................................................................
.............................. CYCLE   58 ..............................
........................................................................

 iter      E             dE          RMSdq      gap      omega  full diag
   1  -5198.6156264 -0.519862E+04  0.364E-04    4.08       0.0  T
   2  -5198.6156264 -0.364162E-08  0.221E-04    4.08       7.3  T
   3  -5198.6156264  0.256086E-07  0.669E-05    4.08      24.0  T
     SCC iter.                  ...        9 min, 48.320 sec
     gradient                   ...        5 min,  0.015 sec
 * total energy  : -5104.0787548 Eh     change    :  -0.1930202E-04 Eh
   gradient norm :     0.0014238 Eh/a0  converged?    E=F G=F D=F
   time step     :     0.7132792 fs     power     :   0.3490109E-09
   step length   :     0.0148052 a0     speed     :   0.5020779E-03

........................................................................
.............................. CYCLE   59 ..............................
........................................................................

 iter      E             dE          RMSdq      gap      omega  full diag
   1  -5198.6161606 -0.519862E+04  0.406E-04    4.08       0.0  T
   2  -5198.6161606 -0.400541E-08  0.244E-04    4.08       6.6  T
   3  -5198.6161605  0.203208E-07  0.616E-05    4.08      26.1  T
     SCC iter.                  ...        9 min, 49.231 sec
     gradient                   ...        5 min,  1.322 sec
 * total energy  : -5104.0787762 Eh     change    :  -0.2142132E-04 Eh
   gradient norm :     0.0014955 Eh/a0  converged?    E=F G=F D=F
   time step     :     0.7846071 fs     power     :   0.3517831E-09
   step length   :     0.0168887 a0     speed     :   0.5206663E-03

........................................................................
.............................. CYCLE   60 ..............................
........................................................................

 iter      E             dE          RMSdq      gap      omega  full diag
   1  -5198.6170074 -0.519862E+04  0.433E-04    4.08       0.0  T
   2  -5198.6170074 -0.333876E-08  0.256E-04    4.08       6.3  T
   3  -5198.6170073  0.100108E-07  0.469E-05    4.08      34.3  T
     SCC iter.                  ...        9 min, 49.968 sec
     gradient                   ...        5 min,  1.664 sec
 * total energy  : -5104.0788008 Eh     change    :  -0.2452762E-04 Eh
   gradient norm :     0.0015055 Eh/a0  converged?    E=F G=F D=F
   time step     :     0.8630678 fs     power     :   0.3698132E-09
   step length   :     0.0192080 a0     speed     :   0.5383336E-03

........................................................................
.............................. CYCLE   61 ..............................
........................................................................

 iter      E             dE          RMSdq      gap      omega  full diag
   1  -5198.6177701 -0.519862E+04  0.493E-04    4.08       0.0  T
   2  -5198.6177701 -0.534419E-08  0.294E-04    4.08       5.5  T
   3  -5198.6177701  0.285236E-07  0.723E-05    4.08      22.3  T
     SCC iter.                  ...        9 min, 48.613 sec
     gradient                   ...        5 min,  2.872 sec
 * total energy  : -5104.0788289 Eh     change    :  -0.2811992E-04 Eh
   gradient norm :     0.0013996 Eh/a0  converged?    E=F G=F D=F
   time step     :     0.9493746 fs     power     :   0.3835513E-09
   step length   :     0.0219439 a0     speed     :   0.5591011E-03

........................................................................
.............................. CYCLE   62 ..............................
........................................................................

 iter      E             dE          RMSdq      gap      omega  full diag
   1  -5198.6180763 -0.519862E+04  0.558E-04    4.08       0.0  T
   2  -5198.6180763 -0.703403E-08  0.332E-04    4.08       4.8  T
   3  -5198.6180762  0.265445E-07  0.713E-05    4.08      22.6  T
     SCC iter.                  ...        9 min, 51.664 sec
     gradient                   ...        5 min,  3.142 sec
 * total energy  : -5104.0788605 Eh     change    :  -0.3163357E-04 Eh
   gradient norm :     0.0014685 Eh/a0  converged?    E=F G=F D=F
   time step     :     1.0443120 fs     power     :   0.3897458E-09
   step length   :     0.0252433 a0     speed     :   0.5846979E-03

........................................................................
.............................. CYCLE   63 ..............................
........................................................................

 iter      E             dE          RMSdq      gap      omega  full diag
   1  -5198.6178966 -0.519862E+04  0.605E-04    4.08       0.0  T
   2  -5198.6178966 -0.709315E-08  0.358E-04    4.08       4.5  T
   3  -5198.6178966  0.268137E-07  0.748E-05    4.08      21.5  T
     SCC iter.                  ...        9 min, 47.508 sec
     gradient                   ...        5 min,  1.770 sec
 * total energy  : -5104.0788969 Eh     change    :  -0.3639723E-04 Eh
   gradient norm :     0.0014430 Eh/a0  converged?    E=F G=F D=F
   time step     :     1.1487432 fs     power     :   0.4135471E-09
   step length   :     0.0289554 a0     speed     :   0.6097067E-03

........................................................................
.............................. CYCLE   64 ..............................
........................................................................

 iter      E             dE          RMSdq      gap      omega  full diag
   1  -5198.6175371 -0.519862E+04  0.698E-04    4.08       0.0  T
   2  -5198.6175371 -0.102900E-07  0.418E-04    4.08       3.8  T
   3  -5198.6175370  0.737891E-07  0.113E-04    4.08      14.3  T
     SCC iter.                  ...        9 min, 49.401 sec
     gradient                   ...        5 min,  1.304 sec
 * total energy  : -5104.0789381 Eh     change    :  -0.4114641E-04 Eh
   gradient norm :     0.0013642 Eh/a0  converged?    E=F G=F D=F
   time step     :     1.2500000 fs     power     :   0.4257819E-09
   step length   :     0.0330276 a0     speed     :   0.6391196E-03

........................................................................
.............................. CYCLE   65 ..............................
........................................................................

 iter      E             dE          RMSdq      gap      omega  full diag
   1  -5198.6177424 -0.519862E+04  0.719E-04    4.08       0.0  T
   2  -5198.6177424 -0.949876E-08  0.426E-04    4.08       3.8  T
   3  -5198.6177424  0.341670E-07  0.873E-05    4.08      18.4  T
     SCC iter.                  ...        9 min, 48.138 sec
     gradient                   ...        5 min,  0.822 sec
 * total energy  : -5104.0789805 Eh     change    :  -0.4244902E-04 Eh
   gradient norm :     0.0014463 Eh/a0  converged?    E=F G=F D=F
   time step     :     1.2500000 fs     power     :   0.4409805E-09
   step length   :     0.0345698 a0     speed     :   0.6689625E-03

........................................................................
.............................. CYCLE   66 ..............................
........................................................................

 iter      E             dE          RMSdq      gap      omega  full diag
   1  -5198.6183152 -0.519862E+04  0.756E-04    4.08       0.0  T
   2  -5198.6183152 -0.104692E-07  0.450E-04    4.08       3.6  T
   3  -5198.6183151  0.837254E-07  0.120E-04    4.08      13.4  T
     SCC iter.                  ...        9 min, 49.241 sec
     gradient                   ...        5 min,  8.862 sec
 * total energy  : -5104.0790246 Eh     change    :  -0.4407370E-04 Eh
   gradient norm :     0.0013663 Eh/a0  converged?    E=F G=F D=F
   time step     :     1.2500000 fs     power     :   0.4581651E-09
   step length   :     0.0359501 a0     speed     :   0.6956737E-03

........................................................................
.............................. CYCLE   67 ..............................
........................................................................

 iter      E             dE          RMSdq      gap      omega  full diag
   1  -5198.6185414 -0.519862E+04  0.769E-04    4.08       0.0  T
   2  -5198.6185414 -0.141126E-07  0.454E-04    4.08       3.5  T
   3  -5198.6185413  0.485179E-07  0.108E-04    4.08      14.8  T
     SCC iter.                  ...        9 min, 47.214 sec
     gradient                   ...        5 min,  5.881 sec
 * total energy  : -5104.0790696 Eh     change    :  -0.4499887E-04 Eh
   gradient norm :     0.0015591 Eh/a0  converged?    E=F G=F D=F
   time step     :     1.2500000 fs     power     :   0.4604500E-09
   step length   :     0.0374239 a0     speed     :   0.7241932E-03
 * RMSD in coord.:     0.0059185 a0     energy gain  -0.4750885E-03 Eh

........................................................................
.............................. CYCLE   68 ..............................
........................................................................

 iter      E             dE          RMSdq      gap      omega  full diag
   1  -5198.6185940 -0.519862E+04  0.151E-04    4.08       0.0  T
   2  -5198.6185940 -0.448381E-09  0.888E-05    4.08      18.1  T
   3  -5198.6185940  0.238651E-08  0.233E-05    4.08      69.1  T
     SCC iter.                  ...        9 min, 48.076 sec
     gradient                   ...        5 min,  2.750 sec
 * total energy  : -5104.0790787 Eh     change    :  -0.9098071E-05 Eh
   gradient norm :     0.0014503 Eh/a0  converged?    E=F G=F D=F
   time step     :     0.2500000 fs     power     :   0.4791638E-09
   step length   :     0.0073820 a0     speed     :   0.7142509E-03

........................................................................
.............................. CYCLE   69 ..............................
........................................................................

 iter      E             dE          RMSdq      gap      omega  full diag
   1  -5198.6186599 -0.519862E+04  0.161E-04    4.08       0.0  T
   2  -5198.6186599 -0.186992E-08  0.956E-05    4.08      16.8  T
   3  -5198.6186599  0.277942E-08  0.320E-05    4.08      50.2  T
     SCC iter.                  ...        9 min, 48.436 sec
     gradient                   ...        5 min,  0.990 sec
 * total energy  : -5104.0790878 Eh     change    :  -0.9107541E-05 Eh
   gradient norm :     0.0013053 Eh/a0  converged?    E=F G=F D=F
   time step     :     0.2500000 fs     power     :   0.4760153E-09
   step length   :     0.0073513 a0     speed     :   0.7112755E-03

........................................................................
.............................. CYCLE   70 ..............................
........................................................................

 iter      E             dE          RMSdq      gap      omega  full diag
   1  -5198.6187276 -0.519862E+04  0.164E-04    4.08       0.0  T
   2  -5198.6187276 -0.141335E-08  0.979E-05    4.08      16.4  T
   3  -5198.6187276  0.325872E-08  0.300E-05    4.08      53.7  T
     SCC iter.                  ...        9 min, 47.234 sec
     gradient                   ...        5 min,  1.990 sec
 * total energy  : -5104.0790968 Eh     change    :  -0.8954502E-05 Eh
   gradient norm :     0.0013392 Eh/a0  converged?    E=F G=F D=F
   time step     :     0.2500000 fs     power     :   0.4655726E-09
   step length   :     0.0073803 a0     speed     :   0.7140872E-03

........................................................................
[...]
  3608   6 C     3615   6 C                                       1.5356076
  3615   6 C     3616   6 C                                       1.5297714
  3617   6 C     3618   6 C                                       1.3888699
  3618   6 C     3619   6 C                                       1.3833670
  3619   6 C     3620   6 C                                       1.3838555
  3620   6 C     3621   6 C                                       1.3838640
  3617   6 C     3622   6 C                                       1.3901738
  3621   6 C     3622   6 C                                       1.3829186
  3616   6 C     3623   6 C                                       1.5358796
  3623   6 C     3624   6 C                                       1.5367877
  3625   6 C     3626   6 C                                       1.3896661
  3626   6 C     3627   6 C                                       1.3831573
  3627   6 C     3628   6 C                                       1.3850684
  3628   6 C     3629   6 C                                       1.3847168
  3625   6 C     3630   6 C                                       1.3891147
  3629   6 C     3630   6 C                                       1.3841402
  3624   6 C     3631   6 C                                       1.5351206
  3631   6 C     3632   6 C                                       1.5354636
  3633   6 C     3634   6 C                                       1.3882402
  3634   6 C     3635   6 C                                       1.3823489
  3635   6 C     3636   6 C                                       1.3843097
  3636   6 C     3637   6 C                                       1.3835416
  3633   6 C     3638   6 C                                       1.3888054
  3637   6 C     3638   6 C                                       1.3835747
  3632   6 C     3639   6 C                                       1.5391541
  3641   6 C     3642   6 C                                       1.3890533
  3642   6 C     3643   6 C                                       1.3831770
  3643   6 C     3644   6 C                                       1.3833644
  3644   6 C     3645   6 C                                       1.3848927
  3641   6 C     3646   6 C                                       1.3896507
  3645   6 C     3646   6 C                                       1.3833501
  3640   6 C     3647   6 C                                       1.5389183
  3649   6 C     3650   6 C                                       1.3892090
  3650   6 C     3651   6 C                                       1.3838115
  3651   6 C     3652   6 C                                       1.3836286
  3652   6 C     3653   6 C                                       1.3850127
  3649   6 C     3654   6 C                                       1.3898162
  3653   6 C     3654   6 C                                       1.3831244
  3648   6 C     3655   6 C                                       1.5319355
  3657   6 C     3658   6 C                                       1.3909034
  3658   6 C     3659   6 C                                       1.3838628
  3659   6 C     3660   6 C                                       1.3845831
  3660   6 C     3661   6 C                                       1.3834494
  3657   6 C     3662   6 C                                       1.3896998
  3661   6 C     3662   6 C                                       1.3837608
  3656   6 C     3663   6 C                                       1.5346259
  3663   6 C     3664   6 C                                       1.5329214
  3665   6 C     3666   6 C                                       1.3903412
  3666   6 C     3667   6 C                                       1.3838619
  3667   6 C     3668   6 C                                       1.3840727
  3668   6 C     3669   6 C                                       1.3844460
  3665   6 C     3670   6 C                                       1.3900280
  3669   6 C     3670   6 C                                       1.3832008
  3664   6 C     3671   6 C                                       1.5394732
  3671   6 C     3672   6 C                                       1.5368272
  3673   6 C     3674   6 C                                       1.3893796
  3674   6 C     3675   6 C                                       1.3830861
  3675   6 C     3676   6 C                                       1.3831802
  3676   6 C     3677   6 C                                       1.3839134
  3673   6 C     3678   6 C                                       1.3898654
  3677   6 C     3678   6 C                                       1.3830488
  3672   6 C     3679   6 C                                       1.5347490
  3679   6 C     3680   6 C                                       1.5312744
  3681   6 C     3682   6 C                                       1.3894844
  3682   6 C     3683   6 C                                       1.3835946
  3683   6 C     3684   6 C                                       1.3835518
  3684   6 C     3685   6 C                                       1.3837773
  3681   6 C     3686   6 C                                       1.3904424
  3685   6 C     3686   6 C                                       1.3834807
  3680   6 C     3687   6 C                                       1.5396663
  3687   6 C     3688   6 C                                       1.5351962
  3549   6 C     3689   1 H                                       1.0944767
  3551   6 C     3690   1 H                                       1.0923730
  3551   6 C     3691   1 H                                       1.0927649
  3552   6 C     3692   1 H                                       1.0929282
  3559   6 C     3693   1 H                                       1.0938322
  3559   6 C     3694   1 H                                       1.0922413
  3560   6 C     3695   1 H                                       1.0944748
  3567   6 C     3696   1 H                                       1.0911000
  3567   6 C     3697   1 H                                       1.0915969
  3568   6 C     3698   1 H                                       1.0948349
  3575   6 C     3699   1 H                                       1.0926610
  3576   6 C     3700   1 H                                       1.0959365
  3583   6 C     3701   1 H                                       1.0936929
  3583   6 C     3702   1 H                                       1.0917844
  3584   6 C     3703   1 H                                       1.0956298
  3591   6 C     3704   1 H                                       1.0923009
  3591   6 C     3705   1 H                                       1.0911470
  3592   6 C     3706   1 H                                       1.0951734
  3599   6 C     3707   1 H                                       1.0908548
  3599   6 C     3708   1 H                                       1.0914904
  3600   6 C     3709   1 H                                       1.0951417
  3608   6 C     3710   1 H                                       1.0955156
  3615   6 C     3711   1 H                                       1.0914534
  3615   6 C     3712   1 H                                       1.0907168
  3616   6 C     3713   1 H                                       1.0958073
  3623   6 C     3714   1 H                                       1.0934144
  3623   6 C     3715   1 H                                       1.0917758
  3624   6 C     3716   1 H                                       1.0945641
  3631   6 C     3717   1 H                                       1.0916951
  3631   6 C     3718   1 H                                       1.0928590
  3632   6 C     3719   1 H                                       1.0923361
  3639   6 C     3720   1 H                                       1.0938759
  3639   6 C     3721   1 H                                       1.0927714
  3640   6 C     3722   1 H                                       1.0922472
  3647   6 C     3723   1 H                                       1.0930448
  3647   6 C     3724   1 H                                       1.0924618
  3648   6 C     3725   1 H                                       1.0912530
  3655   6 C     3726   1 H                                       1.0922330
  3655   6 C     3727   1 H                                       1.0906491
  3656   6 C     3728   1 H                                       1.0954944
  3663   6 C     3729   1 H                                       1.0914261
  3663   6 C     3730   1 H                                       1.0913241
  3664   6 C     3731   1 H                                       1.0951983
  3671   6 C     3732   1 H                                       1.0926807
  3671   6 C     3733   1 H                                       1.0922643
  3672   6 C     3734   1 H                                       1.0937321
  3679   6 C     3735   1 H                                       1.0906017
  3679   6 C     3736   1 H                                       1.0909502
  3543   6 C     3737   1 H                                       1.0801454
  3548   6 C     3738   1 H                                       1.0806836
  3547   6 C     3739   1 H                                       1.0803824
  3546   6 C     3740   1 H                                       1.0806512
  3545   6 C     3741   1 H                                       1.0796895
  3554   6 C     3742   1 H                                       1.0815824
  3555   6 C     3743   1 H                                       1.0804192
  3556   6 C     3744   1 H                                       1.0801267
  3557   6 C     3745   1 H                                       1.0804982
  3558   6 C     3746   1 H                                       1.0799193
  3562   6 C     3747   1 H                                       1.0802999
  3563   6 C     3748   1 H                                       1.0795716
  3564   6 C     3749   1 H                                       1.0806356
  3565   6 C     3750   1 H                                       1.0811896
  3566   6 C     3751   1 H                                       1.0799889
  3570   6 C     3752   1 H                                       1.0804869
  3571   6 C     3753   1 H                                       1.0803140
  3572   6 C     3754   1 H                                       1.0800154
  3573   6 C     3755   1 H                                       1.0802473
  3574   6 C     3756   1 H                                       1.0809663
  3575   6 C     3757   1 H                                       1.0925109
  3578   6 C     3758   1 H                                       1.0793755
  3579   6 C     3759   1 H                                       1.0798276
  3580   6 C     3760   1 H                                       1.0786672
  3581   6 C     3761   1 H                                       1.0791893
  3582   6 C     3762   1 H                                       1.0780856
  3586   6 C     3763   1 H                                       1.0799357
  3587   6 C     3764   1 H                                       1.0812174
  3588   6 C     3765   1 H                                       1.0807997
  3589   6 C     3766   1 H                                       1.0811028
  3590   6 C     3767   1 H                                       1.0805312
  3594   6 C     3768   1 H                                       1.0809403
  3595   6 C     3769   1 H                                       1.0800366
  3596   6 C     3770   1 H                                       1.0788809
  3597   6 C     3771   1 H                                       1.0814866
  3598   6 C     3772   1 H                                       1.0814544
  3602   6 C     3773   1 H                                       1.0812328
  3603   6 C     3774   1 H                                       1.0814999
  3604   6 C     3775   1 H                                       1.0786756
  3605   6 C     3776   1 H                                       1.0804958
  3606   6 C     3777   1 H                                       1.0801381
  3607   6 C     3778   1 H                                       1.0915568
  3607   6 C     3779   1 H                                       1.0931315
  3610   6 C     3780   1 H                                       1.0807458
  3611   6 C     3781   1 H                                       1.0810449
  3612   6 C     3782   1 H                                       1.0801155
  3613   6 C     3783   1 H                                       1.0800608
  3614   6 C     3784   1 H                                       1.0803349
  3618   6 C     3785   1 H                                       1.0812540
  3619   6 C     3786   1 H                                       1.0798732
  3620   6 C     3787   1 H                                       1.0801587
  3621   6 C     3788   1 H                                       1.0808104
  3622   6 C     3789   1 H                                       1.0802125
  3626   6 C     3790   1 H                                       1.0798383
  3627   6 C     3791   1 H                                       1.0815409
  3628   6 C     3792   1 H                                       1.0802578
  3629   6 C     3793   1 H                                       1.0806168
  3630   6 C     3794   1 H                                       1.0814338
  3634   6 C     3795   1 H                                       1.0794154
  3635   6 C     3796   1 H                                       1.0794894
  3636   6 C     3797   1 H                                       1.0804366
  3637   6 C     3798   1 H                                       1.0803281
  3638   6 C     3799   1 H                                       1.0812356
  3642   6 C     3800   1 H                                       1.0814502
  3643   6 C     3801   1 H                                       1.0798717
  3644   6 C     3802   1 H                                       1.0807678
  3645   6 C     3803   1 H                                       1.0807770
  3646   6 C     3804   1 H                                       1.0799318
  3650   6 C     3805   1 H                                       1.0816309
  3651   6 C     3806   1 H                                       1.0804610
  3652   6 C     3807   1 H                                       1.0803380
  3653   6 C     3808   1 H                                       1.0809900
  3654   6 C     3809   1 H                                       1.0796960
  3658   6 C     3810   1 H                                       1.0809086
  3659   6 C     3811   1 H                                       1.0818088
  3660   6 C     3812   1 H                                       1.0801205
  3661   6 C     3813   1 H                                       1.0794773
  3662   6 C     3814   1 H                                       1.0808282
  3666   6 C     3815   1 H                                       1.0816420
  3667   6 C     3816   1 H                                       1.0800389
  3668   6 C     3817   1 H                                       1.0802857
  3669   6 C     3818   1 H                                       1.0798846
  3670   6 C     3819   1 H                                       1.0794917
  3674   6 C     3820   1 H                                       1.0810267
  3675   6 C     3821   1 H                                       1.0798362
  3676   6 C     3822   1 H                                       1.0792920
  3677   6 C     3823   1 H                                       1.0808616
  3678   6 C     3824   1 H                                       1.0804314
  3686   6 C     3825   1 H                                       1.0807289
  3685   6 C     3826   1 H                                       1.0802957
  3684   6 C     3827   1 H                                       1.0778443
  3683   6 C     3828   1 H                                       1.0815509
  3682   6 C     3829   1 H                                       1.0807412
  3550   6 C     3830   1 H                                       1.0871141
  3550   6 C     3831   1 H                                       1.0874187
  3550   6 C     3832   1 H                                       1.0882653
  3680   6 C     3833   1 H                                       1.0955866
  3687   6 C     3834   1 H                                       1.0930391
  3687   6 C     3835   1 H                                       1.0908805
  3688   6 C     3836   6 C                                       1.5368013
  3837   6 C     3838   6 C                                       1.3907637
  3838   6 C     3839   6 C                                       1.3831611
  3839   6 C     3840   6 C                                       1.3841575
  3840   6 C     3841   6 C                                       1.3846591
  3837   6 C     3842   6 C                                       1.3900017
  3841   6 C     3842   6 C                                       1.3842982
  3838   6 C     3843   1 H                                       1.0792362
  3839   6 C     3844   1 H                                       1.0806209
  3840   6 C     3845   1 H                                       1.0800004
  3841   6 C     3846   1 H                                       1.0817824
  3842   6 C     3847   1 H                                       1.0813101
  3836   6 C     3848   6 C                                       1.5327900
  3836   6 C     3849   1 H                                       1.0923799
  3836   6 C     3850   1 H                                       1.0904038
  3851   6 C     3852   6 C                                       1.3914237
  3852   6 C     3853   6 C                                       1.3826230
  3853   6 C     3854   6 C                                       1.3842784
  3854   6 C     3855   6 C                                       1.3839482
  3851   6 C     3856   6 C                                       1.3877579
  3855   6 C     3856   6 C                                       1.3844130
  3852   6 C     3857   1 H                                       1.0814374
  3853   6 C     3858   1 H                                       1.0806363
  3854   6 C     3859   1 H                                       1.0800529
  3855   6 C     3860   1 H                                       1.0811898
  3856   6 C     3861   1 H                                       1.0811972
  3688   6 C     3862   1 H                                       1.0943820
  3848   6 C     3863   1 H                                       1.0946656
  3848   6 C     3864   1 H                                       1.0913005

 * 2 distinct bonds (by element types)

   Z      Z             #   av. dist./Å        max./Å        min./Å
   1 H    6 C        1944     1.0851114     1.0997065     1.0772658
   6 C    6 C        1858     1.4194523     1.5405804     1.3809116


optimized geometry written to: xtbopt.xyz


           -------------------------------------------------
          | TOTAL ENERGY            -5104.084493204018 Eh   |
          | GRADIENT NORM               0.000748011293 Eh/α |
          | HOMO-LUMO GAP               4.081312826338 eV   |
           -------------------------------------------------

------------------------------------------------------------------------
 * finished run on 2024/10/08 at 08:45:11.650     
------------------------------------------------------------------------
 total:
 * wall-time:     3 d, 12 h, 56 min, 34.289 sec
 *  cpu-time:    22 d, 13 h, 30 min, 17.384 sec
 * ratio c/w:     6.375 speedup
 SCF:
 * wall-time:     0 d,  0 h, 44 min, 42.299 sec
 *  cpu-time:     0 d,  5 h, 27 min,  4.328 sec
 * ratio c/w:     7.316 speedup
 ANC optimizer:
 * wall-time:     3 d, 12 h, 10 min, 41.153 sec
 *  cpu-time:    22 d,  8 h,  1 min, 40.804 sec
 * ratio c/w:     6.368 speedup

