3864
 energy: -5104.084493204018 gnorm: 0.000748011293 xtb: 6.6.1 (8d0f1dd)
C           30.26923057799352       55.49362825519225       40.13996742179707
C           30.30186285635266       55.13717690896674       41.48216026249840
C           30.40592845123116       53.79046662262390       41.80788948080323
C           30.46898405417381       52.82447989637152       40.82012774171889
C           30.42961263603320       53.19288718565906       39.48618799092851
C           30.33376936354032       54.53133286381979       39.14780485488210
C           30.17449781179580       56.19504914961897       42.54855743829965
C           28.79641469709499       56.09011300742849       43.21017377802673
C           31.27252613811133       56.10606464570407       43.61845025442845
C           32.69596658075785       56.03121771872693       43.04111716997878
C           32.87095692742709       56.99751222836440       41.89434727632506
C           33.20600843659008       56.53961557550978       40.62766395690230
C           33.36565502502289       57.42297924933939       39.57362424815281
C           33.18147011654887       58.78003733964631       39.76686959896922
C           32.84671948577658       59.24875179641176       41.02612791862788
C           32.69498997479219       58.36494202019747       42.07876322638138
C           33.76788828708914       56.34348240268684       44.09966496264550
C           33.72389306457663       55.48509814095287       45.37434304672841
C           34.37683542911007       56.24813061970801       46.50145791144855
C           35.68470082202441       56.70922240894037       46.39846226419182
C           36.24557560362020       57.46834665259237       47.40890324493899
C           35.51571819650678       57.76644866943092       48.54652553844345
C           34.21999843941686       57.29729325319706       48.66933008361524
C           33.65611074774004       56.54933247878705       47.65030925594436
C           34.38547256365643       54.11700872485451       45.16710974425330
C           34.06144865417284       53.16071680938075       46.32159716300467
C           32.57170736180439       52.94437256475794       46.44949886485887
C           31.93603079025105       53.15828731554527       47.66649569475112
C           30.57387264874875       52.95660379621650       47.80569551541907
C           29.82164880748641       52.53476806939746       46.72354443496184
C           30.44419709843736       52.30809356831525       45.50814405516552
C           31.80627561431756       52.50704958884527       45.37399146258119
C           34.73661380848792       51.78758996253200       46.16708574572998
C           36.26930242300002       51.78637465244387       46.28239966626835
C           36.79215189097459       50.42845215824438       45.87585022462969
C           37.54927380193987       50.27665318672786       44.72111738938300
C           38.07553932400157       49.04736517094540       44.36533717016359
C           37.85276441988677       47.94017782190350       45.16446306729982
C           37.07595970287900       48.07149896757355       46.30314636458071
C           36.54586834677792       49.30066070905582       46.65073714023998
C           36.75473738476450       52.14683468785002       47.69418430717923
C           38.28661313285212       52.10516905807977       47.78533018448410
C           38.90732150669067       53.21727053694172       46.97556722506219
C           39.75423042056837       52.92503492927571       45.91410164103466
C           40.38238860169923       53.93605016843537       45.20726657912819
C           40.17271184291742       55.25668612878114       45.56172315454135
C           39.32147018735686       55.56042990339417       46.60982720160462
C           38.68698295059047       54.55012257609099       47.30540699477874
C           38.81303753737600       52.22017204209970       49.22549183654570
C           38.44745117031491       51.06863989380720       50.17703362823362
C           38.88248707189167       51.45827249573531       51.57131648479299
C           37.93502274014510       51.83039140450646       52.51669703673403
C           38.31228276008819       52.24945004131549       53.78030976030220
C           39.65049786665837       52.29430625744508       54.12686637305336
C           40.60551367187384       51.91988471288612       53.19690158665733
C           40.22451559989680       51.51326664740752       51.93101497303321
C           39.04969281040228       49.73288964193204       49.73111434416141
C           38.54439364385294       48.54138553946657       50.56471107318441
C           39.49295348947709       47.37944551052554       50.40361480273229
C           39.72879163168567       46.81915942651845       49.15286193562699
C           40.60227626462230       45.75744676740827       49.00400825740374
C           41.24420280778094       45.22102658823148       50.10772104761546
C           41.02782730502609       45.77709131561460       51.35556975895007
C           40.17353604339350       46.85716238649120       51.49490269299330
C           37.12497191193304       48.15487460635780       50.12817922076828
C           36.42895062024929       47.12228404278798       51.02494614615610
C           35.25116177627742       46.51904724295056       50.29476229864260
C           35.08664158490076       45.14262709981305       50.23197019544337
C           33.98356895057267       44.58493556330224       49.60991231933133
C           33.02777245419149       45.39860947726858       49.02989363213160
C           33.17788721343400       46.77367819160505       49.08425898924857
C           34.27705965132927       47.32576590343477       49.71519860671652
C           35.93009724728027       47.72701131834716       52.35596881637448
C           36.76236263042824       47.36284894739167       53.59537491399026
C           36.30720767894958       48.23836980762085       54.73894826206153
C           37.10776873037379       49.28395011760829       55.17855230670793
C           36.69766572925952       50.10553883749360       56.21332675126515
C           35.47553641437185       49.89557362458140       56.82527274288248
C           34.66258029506221       48.86359490905251       56.38774097668698
C           35.07351629289939       48.04602354133358       55.35148431252195
C           36.65697003872718       45.87423205882267       53.94938093849305
C           37.46727052055052       45.53134106668731       55.21095976988568
C           36.93762167327451       44.29530337987379       55.89170027624247
C           36.85772517139777       43.08260490079064       55.21643101826140
C           36.40796943024107       41.94268613412105       55.85712203723389
C           36.03015619763354       41.99609296721214       57.18800189351214
C           36.09530266619970       43.19923260284946       57.86837064232538
C           36.54307860544588       44.33820932761469       57.22235388138504
C           38.95628971001413       45.34410359070253       54.88955002905199
C           39.83044132393690       45.46358630353456       56.14667894678271
C           39.83850957461438       46.89437839581660       56.62094094527005
C           39.20732874398956       47.24259986201155       57.80817008416538
C           39.15138227911474       48.56029101991290       58.22381426614828
C           39.73494783832763       49.55306975312732       57.45720190718875
C           40.37995380839292       49.21928570398073       56.27949545520427
C           40.42680111553744       47.90091299123014       55.86452277333979
C           41.23949010214206       44.93370462083283       55.85935850448497
C           42.18220079759121       45.02116269015936       57.06883790639159
C           41.55477572476524       44.35807929823762       58.26811772475902
C           41.25522686513591       43.00005471106157       58.25980946204788
C           40.66015187516771       42.40015083262816       59.35453719191326
C           40.35474688279933       43.15002730359721       60.47821826176031
C           40.65139938077089       44.50242385062747       60.49823227710327
C           41.24834024924642       45.10043853099244       59.40125639530538
C           43.54958023380905       44.38937616639387       56.72912769771819
C           44.67554255300411       45.41405532943831       56.50348013912779
C           44.24735400584563       46.53333422688651       55.58630734051900
C           44.10494521780209       47.82325347841484       56.08320562294586
C           43.68483074620627       48.86095505604457       55.27016571243962
C           43.41227383850257       48.62959552125983       53.93322748851604
C           43.55565927500632       47.35241610931701       53.41963697174275
C           43.95883638561497       46.31589922349640       54.24335996706228
C           45.92350678311830       44.68730284416539       55.97908613565212
C           47.15762498663111       45.59647538009946       55.91408348066783
C           47.57230187946791       46.02213624945450       57.29778383756935
C           47.56347861147618       47.36542198517537       57.65091148736678
C           47.99644243674949       47.77065437318562       58.89979218970488
C           48.44517817902149       46.83748992046913       59.81840010686591
C           48.42541199244049       45.49479994487348       59.48693437122255
C           47.98926739021600       45.08963305238969       58.23970054571898
C           48.31972350240138       44.89167372525807       55.19398087230075
C           49.58740342664009       45.75882325263387       55.14097691534901
C           49.33845647596106       47.04044724143072       54.38662906401477
C           49.02852270301448       47.02392073734643       53.03213430241276
C           48.80001434958193       48.20259886651930       52.34776544189290
C           48.87144984053430       49.41895567381742       53.00542188403575
C           49.20713558434801       49.44924544984391       54.34727289560091
C           49.44305398732228       48.26805842993386       55.02813059350071
C           50.78866970826171       44.99477633904390       54.53748710491199
C           51.76961668218242       44.54946333887528       55.62800387558357
C           51.15107830096435       43.51917081338157       56.54032431309485
C           51.05283398939051       43.74844666249577       57.90628750847534
C           50.55961988465471       42.77244014521541       58.75577686411923
C           50.14387554977201       41.55645034480906       58.24591942491506
C           50.22634640628223       41.31764978920564       56.88392284390798
C           50.72632984799437       42.29163307539300       56.04081097447423
C           53.08230371458571       43.96035677558654       55.08220369566718
C           53.92946163627330       44.86948667839965       54.17764267911817
C           55.30293612640324       44.26675194918382       53.98677604804949
C           56.13706153117500       44.03708063598454       55.07724173978588
C           57.43648352799146       43.60060969717892       54.89519661035690
C           57.92812024907312       43.39018910711198       53.61839021453921
C           57.10031969213035       43.58140099394820       52.52535091138200
C           55.79874117522949       44.01534895015001       52.71242223593421
C           54.10284137550843       46.28799431505782       54.73932151189608
C           54.93540932418756       47.17001592832339       53.80155645083792
H           30.24495145578346       57.17352871822325       42.06158917932324
H           31.18796800138441       56.98207431902197       44.26578022378595
H           31.09133345709574       55.22359501066837       44.23461748482103
H           32.85948591823151       55.01943000001942       42.65628178331114
H           34.74829911496899       56.23358554412207       43.62917937848004
H           33.65857386700419       57.38842097673877       44.39943621653640
H           32.67929848504484       55.32077068954701       45.65100000540229
H           34.04364722018524       53.69096914343120       44.22275933262171
H           35.46481307347995       54.25415197018184       45.09263160428452
H           34.41356980484126       53.62393549148250       47.24888748750507
H           34.46398722156335       51.37229596806159       45.19295270931518
H           36.67181481745492       52.52788926337332       45.58769985175164
H           36.40682107990990       53.14701578710542       47.95566836433345
H           36.32332525967449       51.44530994384495       48.40865869836680
H           38.62918328691651       51.15540964898279       47.36392660989804
H           39.90191244890426       52.30571975854703       49.17824675382144
H           38.43534791365084       53.14655402557239       49.66170214584729
H           37.35780925703370       50.97423162893155       50.19068239235614
H           38.80133868163559       49.55525396874816       48.68381611223772
H           40.13705063835324       49.78124964534814       49.80905630996318
H           38.52887462991767       48.84425937371392       51.61656971508629
H           37.14669641653703       46.32346276142034       51.23262232938954
H           35.91169878994688       48.81655317013257       52.27237315882498
H           34.90163579107982       47.40215427190095       52.53178641952835
H           37.81048719202543       47.59831501026165       53.39023176647931
H           35.60978877005201       45.61321987680643       54.11305946261919
H           37.01375686078736       45.27362706517896       53.11129274074079
H           37.37251218642689       46.37174828025631       55.90675469984081
H           39.10461615413000       44.36171625598817       54.43529906442242
H           39.27246713803021       46.09319066294552       54.16475438466703
H           39.38713402578234       44.83902578642842       56.93063211610741
H           41.15109946436624       43.88741697281149       55.55620925802515
H           41.68042821451861       45.48894445467698       55.02968094207144
H           42.32745925860758       46.07927889556996       57.30854529808569
H           43.86005088495079       43.73153390443770       57.54471574640655
H           43.44812537877584       43.76859069530023       55.83656956050202
H           44.92453022748948       45.85256824851681       57.47684376107702
H           46.12983571083483       43.83717926591179       56.63408593193061
H           45.72194350966373       44.29586130671066       54.98115242662562
H           46.89483464506556       46.49102883858962       55.33722513295121
H           48.55675665282316       43.95848300628298       55.70947041265237
H           48.00233440788493       44.64529363950205       54.17827606048672
H           49.83768237185059       46.02876531880680       56.17237855407066
H           50.44479570190642       44.12707210089768       53.97190564241254
H           51.31179821014043       45.65180462000094       53.84056576850907
H           52.01513797013693       45.42722285404804       56.23512021484273
H           53.68346112577876       43.67347771732813       55.94790935464456
H           52.86190315908978       43.04814432339841       54.52370411980856
H           30.19185930866074       56.53738353469051       39.86910038189428
H           30.30195965720215       54.82789409836849       38.10888120787999
H           30.46222938456149       52.43360461580601       38.71874191220608
H           30.53976219994130       51.78010780542267       41.08730741092203
H           30.43199936376448       53.49112390105518       42.84469470125018
H           33.33344701108287       55.47963768213768       40.46209693370943
H           33.63157859222788       57.04991834933831       38.59521876433850
H           33.29726524207336       59.47063418786333       38.94619772504360
H           32.70202804606883       60.30788180452312       41.18412218460104
H           32.42222863737368       58.74674078626537       43.05250942133598
H           36.26671032469245       56.48298999619062       45.51705600403383
H           37.25425408406309       57.83835113951731       47.30903932235134
H           35.95513969118014       58.36637823047388       49.33001830884996
H           33.64243746508523       57.52168843182579       49.55493902418792
H           32.63739402123731       56.19809464658569       47.74432660537337
H           32.51663217967572       53.49133444086380       48.51590357345932
H           30.09869321781795       53.13123198152919       48.76023656118505
H           28.75712951582572       52.38298161907156       46.82674701874343
H           29.86336309162201       51.97376679022578       44.66034184023566
H           32.27496397054724       52.32336760035783       44.41830675369037
H           34.32744538534445       51.11963532337254       46.92976032910427
H           37.74131289948286       51.13664689956845       44.09773399810742
H           38.67188900923193       48.95858776492433       43.46925151913155
H           38.28385846903770       46.98469285659169       44.89909447075025
H           36.87937122992005       47.21236358276302       46.92825809893121
H           35.94468210842216       49.37747974491076       47.54448370840726
H           39.93490779421500       51.89490453104234       45.64141089977322
H           41.04326994917303       53.68396692876860       44.38932228330676
H           40.67709284932951       56.05941966041312       45.04433928822660
H           39.17100047259606       56.59052089280690       46.89428726436037
H           38.02697194534945       54.81220609213768       48.11905993619060
H           36.88433066903313       51.79587457769575       52.26188024047013
H           37.55588385496677       52.53950343539208       54.49409046896184
H           39.95257662796752       52.62215703478095       55.10980024951574
H           41.65333025374670       51.95260511254141       53.46303431484639
H           40.98529956181556       51.23669150144313       51.21588690823567
H           39.23277697833939       47.21871024743557       48.28018929784668
H           40.78052990265077       45.35316148856124       48.01687971838385
H           41.90993503766424       44.37629484851503       50.00032410710039
H           41.52576919566251       45.36734631307731       52.22213003333725
H           40.03710079932888       47.30950508476262       52.46752964437356
H           36.51251057697848       49.05618119795464       50.08819183362125
H           37.17591655417616       47.74450755405618       49.11874139288604
H           35.82833324095613       44.49767871852725       50.68002549409648
H           33.87173031357670       43.51157919804189       49.58116591046734
H           32.16399548295963       44.96930034518277       48.54373096613906
H           32.43353674979424       47.41479570029713       48.63531423925994
H           34.36719069779834       48.40076153733175       49.76884394650774
H           38.06671646523456       49.45907982292198       54.71217855666002
H           37.34011430114205       50.90824018866399       56.54209683274208
H           35.15467815796379       50.53231884197103       57.63689038382452
H           33.70326030985633       48.69486261921781       56.85570512037594
H           34.42493336143981       47.24763691980388       55.02246066600657
H           37.14738658293403       43.02794317257455       54.17680176256313
H           36.35335532863587       41.00794315965378       55.31713971321739
H           35.68284350032823       41.10508507100856       57.69042970141714
H           35.79769030810713       43.25117360519198       58.90573010873075
H           36.58598704852248       45.27751026036930       57.75591316482643
H           38.75589855663064       46.46918139510802       58.41374478140407
H           38.64653635681415       48.80974438765801       59.14581100106655
H           39.68623183704538       50.58575720251533       57.76958750171023
H           40.83661791188420       49.99068616669891       55.67601912924342
H           40.93270541413840       47.65976128461007       54.94071469848149
H           41.49109611469706       42.40161181614118       57.39152469214127
H           40.43647866856875       41.34320182929073       59.33165816512898
H           39.89203518318752       42.68091676541916       61.33435753705775
H           40.41873614453871       45.09698619590463       61.37078585377587
H           41.47500268833264       46.15750338133036       59.42564122036349
H           44.32332192123579       48.01668262240410       57.12437406122957
H           43.56954929091157       49.85327334393737       55.68006798798410
H           43.08649113264720       49.43489022615767       53.29199551802836
H           43.34172911822024       47.16799714371194       52.37604882261525
H           44.04031882920427       45.32148491701901       53.82956368568527
H           47.22580965121430       48.09761817165291       56.93085396638082
H           47.98848627267244       48.82078864330992       59.15216877222764
H           48.80439789712002       47.15643610839145       60.78632195443612
H           48.75660133405362       44.75329579030481       60.19743812080859
H           47.98916918324829       44.03668688719245       58.00060436089991
H           48.97582616870535       46.08001330238545       52.50859286230534
H           48.57756661209906       48.17822935328570       51.29030747047113
H           48.67338721419389       50.33665590104800       52.47230793248546
H           49.28933187097767       50.39265565912707       54.86603436301710
H           49.71420974955422       48.30264218669147       56.07377626543143
H           51.36537507615880       44.70030344998034       58.31344587389324
H           50.51328901450731       42.96193597167879       59.81863757343164
H           49.76320756770404       40.78841984290116       58.90285847078276
H           49.91597086190363       40.36556064575003       56.48001404823825
H           50.80225289877760       42.08341513278507       54.98329870123651
H           55.16665766953236       44.18504094127862       51.85141605753451
H           57.47054928221328       43.40170895823065       51.52611135836425
H           58.95599514375966       43.08903738128404       53.47917788120894
H           58.07538492257842       43.43867904813337       55.75251885623648
H           55.78355737285070       44.21452836376712       56.08337650948501
H           28.68266437147104       55.12880590737151       43.70657654723215
H           28.66955634743548       56.87740978549942       43.95027461052017
H           28.01054241539049       56.18593818445797       42.46409048101777
H           53.44510539233346       44.94854595038896       53.19826602105769
H           53.12688082156269       46.74569442167001       54.89121215786623
H           54.59866533252525       46.21819777779471       55.70821391059897
C           55.60263472781239       48.33490183809794       54.55021612209381
C           54.14277450185205       47.72768862308886       52.64290022825055
C           54.70103300860642       47.70057819768458       51.36849846198528
C           54.05000342982657       48.27343726893005       50.29113906817756
C           52.82037776667767       48.88375752332893       50.46954887056484
C           52.25416860559478       48.91880004785776       51.73145824746297
C           52.91023766916727       48.34858227980266       52.80836390404553
H           55.66519115965147       47.23358043845324       51.22247468779054
H           54.50726059797619       48.24881375789352       49.31209005899493
H           52.30992528379144       49.33162388806384       49.62852419695196
H           51.29631731354704       49.39156808442671       51.89090734095540
H           52.44456846702094       48.40613236796894       53.78106501255758
C           56.79401774697762       47.87891582188220       55.39113632316721
H           55.95908878541041       49.04258866041572       53.80202225795237
H           54.87168270799685       48.84728762969220       55.17822978424136
C           57.59014081021767       49.01278204619687       55.97648815100670
C           58.00442697078828       48.95183225320086       57.30029750177007
C           58.77959915762253       49.95308191552611       57.85457669247637
C           59.16201507780384       51.03904465074452       57.08886154872802
C           58.74065883237593       51.12256827783617       55.77333316729019
C           57.96366645549959       50.11999114035220       55.22255591349798
H           57.72376939145776       48.09828694040696       57.90011159686751
H           59.08201539797361       49.87827361856397       58.88903014740206
H           59.79355902985107       51.80914431606312       57.50284318668992
H           59.03155333562301       51.97029153681794       55.16993959821157
H           57.65772489145824       50.20068318229273       54.19063793190770
H           55.74530097289624       46.56317102933149       53.38161252888445
H           56.45864658470331       47.22801796707344       56.20112061435034
H           57.45549015528567       47.28311840575580       54.75514630185506
C           58.82507837621745       54.64183038564086       37.56725580386338
C           58.73934004665438       53.29789408941654       37.21562702314168
C           58.74980437367993       52.96475617752451       35.86657210614734
C           58.85191290576557       53.94766779790555       34.89675178907255
C           58.94475407985032       55.28083908722767       35.25944264049325
C           58.92399550051853       55.62704405497265       36.60058713278871
C           58.67954258873502       52.24824624058439       38.30106674488753
C           57.82363055677143       51.04791013287400       37.90656034617793
C           60.11678464040100       51.83969712936872       38.66629981999283
C           60.21126541299729       50.97775094647048       39.93696694257646
C           59.93682772206013       49.51266460622804       39.69864683727987
C           59.00985481954396       48.83813959930318       40.48547352505280
C           58.83086741644734       47.47149749952279       40.36521643275656
C           59.56155929951497       46.75462501294783       39.43407282884378
C           60.46937295636654       47.41744607446493       38.62753775034701
C           60.66253792688098       48.78033246978485       38.76671540904494
C           61.60767136328906       51.11194430532140       40.57126267201073
C           61.71437793587771       50.38649993475028       41.92034718049729
C           60.93667583237596       51.09158343047343       43.00239639490365
C           61.25716756098351       52.38608133152684       43.39543692245654
C           60.53456303854042       53.01836892487795       44.38973787498730
C           59.48881647163064       52.36751268303516       45.01852205943512
C           59.16831967303227       51.07362521850384       44.64704046411816
C           59.88810571255384       50.44586571060609       43.64522293682747
C           63.18431013029672       50.22554636918149       42.32904685956436
C           63.35389802790034       49.39202061385988       43.60783552761531
C           62.58381464071809       48.09696936663361       43.49250083810632
C           62.76044970340602       47.24452526904194       42.40773725145382
C           61.97518061336536       46.11665710314973       42.25025417399485
C           61.01205123885450       45.80380559532257       43.19522281872594
C           60.85379941576574       46.62019675001245       44.30103991630803
C           61.62845237329941       47.75859339726293       44.44323795440360
C           64.84097590913304       49.12204686038017       43.89393852611156
C           65.62193057958761       50.36090918807901       44.37114476417752
C           67.09539838395922       50.17230466690621       44.11086918472419
C           67.81793017506108       49.16900400063065       44.74679244529670
C           69.17051701138566       49.01337196608679       44.50318111587976
C           69.82274143600826       49.85556923210866       43.61816097097584
C           69.11009493012391       50.84582837062167       42.96445208168342
C           67.75707418969589       50.99656095223066       43.20959622358158
C           65.34957703257312       50.64458654856166       45.85341528705970
C           65.98659325903245       51.95045175420876       46.35618492976567
C           65.55249942390277       53.12541479381274       45.52188748115235
C           66.49147307222712       53.85710869134439       44.80591500541439
C           66.11023627587478       54.95581558891108       44.05684201931201
C           64.78235909923559       55.34326768181568       44.01837183932047
C           63.83861224032800       54.61980101090202       44.72444920661250
C           64.21955167869642       53.51512104508860       45.46346086621661
C           65.61646296693432       52.14721316708936       47.83585836575054
C           65.94407266516677       53.53353234857687       48.41077075025112
C           67.39677719883359       53.89477942930741       48.25146796299524
C           68.40387923876148       53.12786313689729       48.82290655687147
C           69.73079101106127       53.49164910609585       48.68885731580892
C           70.07386315936304       54.62730011900777       47.97601556324175
C           69.08110269244071       55.39536240718886       47.39412688710433
C           67.75476297486084       55.02820169722163       47.53265765043227
C           65.49569208252871       53.57343203910122       49.88026048357855
C           65.68549546349176       54.94443339690086       50.55221835244529
C           67.10430453672929       55.14388030205794       51.02281740082987
C           67.87653114879164       56.18282545916859       50.52161442501248
C           69.17932594281581       56.37594023474498       50.94199981336245