3795
 energy: -5103.674908596551 gnorm: 0.000934183159 xtb: 6.6.1 (8d0f1dd)
C          129.10905398915381      121.54988218074342      130.45887675488643
C          128.46138328777386      122.81106544299389      129.95982152273422
C          129.05744568758260      120.47549476714805      129.36355459303817
C          129.67358369431227      119.16515459939059      129.84650466814847
H          128.01756898332536      120.31142171214532      129.07453281955125
H          129.59565682221304      120.83400113162719      128.48562956893042
C          129.48019499479958      118.05111595203701      128.81751762422346
H          130.73925642142743      119.30771766664751      130.03408731609250
H          129.20912436021067      118.86010336245144      130.78526188151207
C          129.96346017476006      116.71565683008602      129.34930260827792
H          128.41210558028502      117.95420621559323      128.60920458520030
H          130.00467461750995      118.28703027456801      127.89306207014140
N          130.81415754018920      116.07006634015190      128.54744866076888
O          129.20387125655211      123.48359144799520      129.11952012999851
O          127.34067837823190      123.16739915038231      130.29160279372775
H          128.74687870681203      124.30095389639932      128.75888251004775
H          128.57892271080965      121.20755404673889      131.34753171843815
H          130.14806662148720      121.76437032484064      130.70828595869511
C          131.45064451856700      114.82175873559378      128.90675142752551
H          131.11864207334168      116.51830494897474      127.68999434080267
C          131.44189114713328      113.81440161283292      127.75754284067307
H          132.48817195067707      115.01913341357789      129.20320321338355
H          130.92136390703192      114.42431074610282      129.77609981728131
C          132.22853935601077      112.56173404954028      128.14482325613722
H          130.41273730821106      113.55555717011843      127.50803013172784
H          131.90993747840670      114.28255915885391      126.88883554608182
C          132.54761723380446      111.62918307817799      126.97494143835473
H          133.17555218910391      112.87839560496458      128.58733167747553
H          131.68115842010937      112.00721174216822      128.90861073710408
C          131.35673351558495      110.81625174075286      126.46879122662450
H          132.97010016587259      112.20890759372487      126.15139620298980
H          133.31855734132503      110.92796721509492      127.30155156738917
C          131.80879983186705      109.83093049460862      125.39805630153521
H          130.91519195988164      110.25615014873399      127.29492327362202
H          130.58829364007795      111.46765677671802      126.05443535024033
N          130.75372978623281      108.90325715350954      125.03649787559736
H          132.12095108936882      110.35483565739392      124.48778509788414
H          132.67853492257666      109.26292735554178      125.75470389953770
C          130.92871821606306      108.01840661027731      124.04353545804864
H          129.98036296236123      108.81626857204876      125.68926270343118
O          129.57990351318892      116.26141947267362      130.42719622467436
C          129.80025951688415      107.02041383667186      123.85593633778247
C          129.77740353831911      105.99895041420828      124.99431201804521
H          128.84942025057791      107.54871786332923      123.82420670752218
H          129.95384263737449      106.51224109625483      122.90413972042352
C          128.54940102592852      105.08831708206976      124.96019079463748
H          130.68575828110932      105.39333672377465      124.94584570032261
H          129.77812167341651      106.52591199560459      125.95119052000310
C          128.42243271492663      104.24775676811035      123.68327389969259
H          128.62433848067784      104.40561000696255      125.80900721878092
H          127.65040138898199      105.68665801043191      125.10600378996639
C          127.71650210857140      104.91908325294364      122.51675035938261
H          129.41053775387269      103.93235608449132      123.34375994889504
H          127.84066622305782      103.35164328222203      123.91305412540571
N          126.46806977632762      105.31368803893314      122.76685906196917
C          125.57793792534488      105.87194239675003      121.76610969397971
H          126.08537907694047      105.21111163345356      123.69940264047125
O          131.92869727153490      108.02443649280549      123.33015827499256
C          124.41392503256046      106.58304570108577      122.44398618529989
H          126.14950321646924      106.56163387938504      121.13721207263048
H          125.20758768207881      105.06303726887052      121.12622086539064
C          123.38262231589755      107.13998223406379      121.46088443438114
H          123.93243632808411      105.88201119709035      123.12531805879793
H          124.81668921426285      107.39681389941322      123.04732728540300
C          122.47533828912086      106.08984606985211      120.81700462827227
H          122.74716294224979      107.85204020927337      121.99070152839694
H          123.89949031418946      107.68565292021765      120.66911431332181
C          121.59608390851420      105.36031585730781      121.83368836157204
H          121.83366482329252      106.60294069586043      120.09761831018204
H          123.07312883039306      105.36223120876204      120.26550602869527
C          120.48154157569138      104.55721977103417      121.17337901511634
N          119.48015525397679      105.44114492191842      120.61423909982240
H          120.87218740478598      103.93289667339386      120.36535178494699
H          120.01656010632148      103.89480640002265      121.91283090275776
C          118.61956435356916      105.07764575139512      119.66383089031369
H          119.39553328408661      106.35627628717366      121.04928950405598
O          128.24170296242383      105.02410922580671      121.40646234340865
C          117.67513496126870      106.17778137704870      119.21482162867412
C          117.81080152528573      106.42273375712297      117.70879369989885
H          116.65190742592134      105.86842783813051      119.43755463467345
H          117.89810502847698      107.08391266481601      119.77539144261364
C          119.25631574893785      106.69496008403063      117.29959890561543
H          117.45746858983058      105.53947507239209      117.17352260929674
H          117.17518682205773      107.26161300533256      117.41905680171938
C          119.42837172072625      106.69970396120171      115.77751561374646
H          119.60997788706842      107.64204832135130      117.71288570975088
H          119.88969854856853      105.90267249644974      117.70502353144957
C          118.86102060026336      107.94576779252937      115.13913028139191
H          120.49085964894728      106.66667871305839      115.53843034936646
H          118.95163165057156      105.82067578620645      115.34443992861215
N          117.63252550129296      107.81545944408577      114.63248903245950
C          116.98202187706039      108.87650292713020      113.88853980915458
H          117.17895051603965      106.91422663160286      114.66230272332524
H          122.20026772938742      104.67554730007855      122.43040399787506
H          121.13850918246024      106.08811009229301      122.50723147747132
O          118.59372592407708      103.94535634388495      119.17485456743051
O          119.47065592767105      109.01467523838747      115.10577881494811
C          115.73453598771260      108.35643053670482      113.18941495200946
H          116.71888485960031      109.69206306961038      114.57361532647879
H          117.69682842711309      109.27386201028477      113.15892028358725
C          114.66391649047435      107.96086734268378      114.20328399505006
H          115.34788541655821      109.13168736184278      112.52624302713495
H          116.01210783827203      107.49452744922385      112.58108001878453
C          113.35263620737133      107.52066714309582      113.56194087557699
H          115.04111781407759      107.14606715936955      114.81845956274996
H          114.46747932438589      108.81251460557370      114.85420332217505
C          113.51560180191640      106.27022796400399      112.70537581496249
H          112.62840430736090      107.30935344809043      114.34960966680579
H          112.94747055860168      108.32657224495912      112.94766617434499
C          112.16800046174414      105.67814382106948      112.31193858151708
H          114.05669509635649      106.51503641959606      111.79187491753179
H          114.09683439038918      105.52355197819509      113.24732549609587
N          112.34918861863812      104.69869743982493      111.26163672308671
H          111.68717996525672      105.17914908370240      113.15738234310186
H          111.49834660438901      106.47897531098673      111.97394795465367
C          111.60440787346532      103.60183395421518      111.13392047436783
H          113.06603584906776      104.91943813115279      110.57415631482522
C          112.02771225936326      102.65381490000875      110.03412326146848
C          112.64767675754193      101.40220969468717      110.66220646328620
H          111.14208119549190      102.37311807752606      109.46320918355366
H          112.73996269360482      103.13866401677868      109.36839827201217
C          112.92669125881362      100.32295576426269      109.62123018420863
H          113.57688267194426      101.67694374737752      111.16717590571361
H          111.96017024146437      101.00641260131272      111.41235204796760
C          113.63336036644490       99.11439114097615      110.23383020303238
H          111.98253660406077       99.99811936287458      109.18195985132265
H          113.54783177558691      100.73499513231734      108.82366101521542
C          112.81503976604053       98.44106099770211      111.32118260267777
H          113.80628729720611       98.36610469295175      109.45599094726806
H          114.59818122323314       99.40300243535464      110.64912351076971
N          113.52331764953819       98.09622753272359      112.40163319700714
C          112.97513333301222       97.32635620151518      113.49452092065799
H          114.53172720059840       98.20874171013384      112.38841276815303
O          110.66470224273520      103.34485018705621      111.88812296090873
C          113.33076809465727       97.90235453232160      114.86424509821393
H          111.89205118446741       97.31238215025542      113.35353406526923
H          113.35269358581135       96.29817936531320      113.43010455555743
C          112.66098832654961       99.24631367891193      115.16666620788723
H          113.01344058723942       97.17613456687894      115.61475160100341
H          114.41463116670404       97.99958085340164      114.93853823912356
C          112.51978586019339       99.44741659075912      116.67628443322288
H          113.24156007935065      100.05723055822322      114.72577150558342
H          111.67106149426414       99.26648415792165      114.70743891734713
C          111.79881924472903      100.73971334975759      117.06432168947032
H          111.95232153407498       98.60492397650478      117.08030381773105
H          113.50696559129238       99.42391213630225      117.14282706109394
C          111.49486331489469      100.72687864656341      118.56157561314787
H          112.41382904270597      101.60576838663481      116.81624722086703
H          110.86512777933531      100.81962174943961      116.50577444571489
N          110.60528777014854      101.78670976916951      118.99234742540685
H          111.03725644540356       99.76419018917032      118.81941840094878
H          112.41739524311691      100.83520831758575      119.13428133355607
O          111.60960358233751       98.22287425335607      111.21000227297473
C          110.82091587627170      102.51445975104846      120.10222745296412
H          109.68872624267553      101.81244625187649      118.57027179070808
C          109.65022090862695      103.36800205694428      120.55603672561344
C          109.48322132518879      103.20466895672692      122.06991104465935
H          109.86592578377126      104.41383493502734      120.32209097446874
H          108.73535096859933      103.08935781842617      120.03359900139266
C          108.21542952570462      103.85592001382294      122.60871392183986
H          109.46596168935028      102.13904566649356      122.31463396218196
H          110.35081188413326      103.64316632020683      122.56604336292317
C          108.17995507860138      103.78101055748314      124.14150803309359
H          108.18680328975471      104.90025272704329      122.29928929015304
H          107.34187296783442      103.35633430409571      122.18409151295833
C          107.02385721573445      104.60622918088910      124.67163267019298
H          108.08676896439997      102.74193182740112      124.46045697065529
H          109.11178729614069      104.18485421004580      124.54127017224272
N          105.84750007067332      103.96639747899020      124.68004301697948
O          111.88085056982131      102.48589058039236      120.71684942066595
C          104.57974433486999      104.60907772528307      124.95857928996021
H          105.80513826440341      103.03068961538240      124.30737580100525
C          103.77369805601342      104.84645252149448      123.67989680545345
H          104.01454204489514      103.98276826567739      125.65274031836849
H          104.81093970935585      105.56213017926936      125.43689815655844
C          103.33829457654357      103.53509637333148      123.02737776256309
H          102.89782492243550      105.44772937176823      123.92877683977845
H          104.39474497365602      105.41863445801019      122.98988741763421
C          102.48336254037775      103.73333021307705      121.77584509162423
H          104.20960004303696      102.93771919210819      122.75456374136459
H          102.75632338462243      102.95561632119426      123.74693459917634
C          103.15421372737872      104.55566401797340      120.67359547773238
H          102.23699202575072      102.74618775620655      121.37900703710173
H          101.54903267758606      104.22540513243950      122.05118993585762
C          104.53626301022409      104.03939934392477      120.29152322063591
H          102.51741983113121      104.52689777685721      119.78658054215599
H          103.23691963769647      105.59834262737765      120.98306765965042
N          104.99317674422343      104.68943697810028      119.07850632132539
H          105.26025650466958      104.24337536181649      121.08863765533457
H          104.52268502867540      102.95606797448940      120.13591579316875
C          106.12352531283953      104.35866644491007      118.44704421946255
H          104.45405765659871      105.47385966183468      118.73367157825753
O          107.15533290400735      105.76665792174465      125.04654708903671
C          106.41687197984197      105.22965928642876      117.23831451477400
C          107.90975875057440      105.32609084146686      116.94090060302962
H          105.88947532674140      104.81177321392087      116.37705794819146
H          106.00578684012429      106.22113368442120      117.42450251749136
C          108.22822649374321      106.52883595197066      116.05921159897635
H          108.45765666532321      105.42822399674290      117.87992364387702
H          108.24657060927545      104.40969028724096      116.45693222825912
C          109.69716865357367      106.50262521930655      115.62349969083918
H          107.57805792701376      106.53671255347749      115.18375529856067
H          108.03196601707353      107.43477901961687      116.63605673669244
C          110.20936127151583      107.88539718409129      115.26950580342219
H          110.29402423880717      106.10626885587023      116.44538846914219
H          109.80614759564838      105.85574174241343      114.75153498628426
N          110.84263043538368      108.50347442758328      116.27320765626156
C          111.60344617788965      109.73265292923257      116.12759539783882
H          110.72475175354707      108.14050279667026      117.21333386463182
O          106.85621816564675      103.44393934785121      118.81374574557547
C          112.67200139318363      109.78070273165993      117.21796374922994
H          112.05710490292110      109.71621809562342      115.13347418712333
H          110.94798073588663      110.60603212526907      116.18750737755708
C          113.80066058311250      110.77741587781971      116.95209685112799
H          112.19522679751149      110.00315106597417      118.17229971649758
H          113.11910731677762      108.78785857388529      117.29638913442172
C          113.37624075757957      112.23513959507309      116.78601895525905
H          114.50584596637545      110.70648321056338      117.78163511833587
H          114.32957792540250      110.47672493155571      116.04607268476680
C          112.83234065607331      112.85979111857543      118.06628145273376
H          114.25317029547205      112.80866413768575      116.47506611977524
H          112.62737247655818      112.31425700504461      115.99773219381500
C          112.43319845011661      114.31162750779632      117.83093997787395
H          111.95555337256472      112.31298995342006      118.41484161290683
H          113.59159418580208      112.81611148479200      118.84922678827476
N          111.72844243005581      114.85440939373258      118.97262627227958
H          113.31034446404425      114.93715794469297      117.64689408378688
H          111.78269131034581      114.36972609419013      116.94885865727065
C          111.94625447128008      116.07640800274908      119.46090196239513
H          111.13819001952460      114.20547942958795      119.48124730926044
O          110.07564951297860      108.38382949524869      114.15417966433853
C          111.02287074148722      116.47818717498023      120.59525445101409
C          110.13454255172228      117.63824924048539      120.13081601483536
H          110.41204782131619      115.62502015253533      120.88739304928113
H          111.61709823630663      116.78350104231909      121.45625464360016
C          109.01655136015866      117.93808701728550      121.12491547828947
H          110.74736309590108      118.52740694410586      119.98087962103936
H          109.69008875474468      117.38107965705063      119.16756272494490
C          108.03587425785508      118.99192446373794      120.59963769634432
H          108.46152714355524      117.01718934568493      121.31792840196088
H          109.43195775900445      118.28110471033837      122.07505535826031
C          108.68105605736027      120.36143996625788      120.48409510529575
H          107.65034287986792      118.69440584597868      119.62505450542797
H          107.20276257828283      119.08184987724329      121.29997811266203
N          108.99058492529275      120.73295711124270      119.24067596381869
O          112.78139751684816      116.84660983517641      118.98890010692401
C          109.48801490307395      122.05026813821637      118.89211977953272
H          108.70112697843982      120.13933008821444      118.46731280813114
C          110.14204256925899      122.02081513708373      117.51643324954117
H          108.65579263913631      122.76671684277883      118.89546280039109
H          110.19691497435649      122.36680404772078      119.66160815016757
C          110.34763479711474      123.41436248245161      116.92787425649071
H          111.10569671553255      121.51432739598377      117.57307753481376
H          109.49331747523367      121.44878063834030      116.84996403574930
C          110.94924104586502      123.31156163521167      115.52589133700570
H          109.38556311844167      123.93069925046258      116.88680743710795
H          111.00437510362677      123.99175838163092      117.57822139470272
C          110.87047039632294      124.60233343652516      114.71105370149006
H          111.98688631277814      122.98421076682953      115.60529546144328
H          110.40146343153552      122.54277122013019      114.97561430562277
C          111.84944598586129      125.69395881750160      115.12469435893426
H          111.06962150450580      124.36371893602794      113.66472859660044
H          109.85902914781329      125.00521259583134      114.76737215494738
N          111.45079587103049      126.36326807504845      116.34729071664000
H          112.85039639415695      125.28192928675617      115.28940101693898
H          111.92601689396581      126.42401536306720      114.30743441832657
C          112.28512712668957      127.16084721028416      117.01635039912470
H          110.47692299625668      126.30803189507299      116.63364842397462
O          108.91600115499146      121.05424762665525      121.47332791080490
C          111.77675833808998      127.67368158193359      118.34525486409940
C          111.61321491588247      129.19597584119623      118.36007022611786
H          110.82887088038967      127.19858244857166      118.58386017231302
H          112.52018719594021      127.39447585650825      119.09257333048340
C          110.30685839581230      129.63414266161595      117.70749942472982
H          111.62240810604877      129.54241585060637      119.39537710001132
H          112.45650535851493      129.65657760865744      117.84249212861774
C          110.05378753007042      131.13046819167772      117.91035408260018
H          110.31794419628058      129.40753166543018      116.64057426338796
H          109.47755228109462      129.06857916860434      118.13766632250503
C          108.68758861585492      131.49751598886596      117.37182055925082
H          110.10484695275173      131.37558674083624      118.96948051782505
H          110.81334879951267      131.70684755882414      117.37794967571797
N          107.81086455456582      131.91170141876358      118.28553618028695
C          106.42757552005096      132.21903080704749      117.99408407660201
H          108.08290973035344      131.99278047337347      119.26179736923422
O          113.41611226512484      127.43432131920915      116.61217086929605
C          105.54285815091959      131.87187545967993      119.18801542761882
H          106.32738168558041      133.28854597392376      117.76846543113179
H          106.13666557963350      131.65543893827541      117.10344176939125
C          105.60498788329151      130.39625381794644      119.58266154266752
H          105.87656106061782      132.46997089082186      120.03815986732067
H          104.51424357268489      132.15117247950937      118.95576262808319
C          104.91194403526060      129.46130667008060      118.59362595581990
H          106.65038419317877      130.10775922177407      119.69656394567929
H          105.12787391828832      130.28345495136156      120.55850661055580
C          105.02034286754409      127.99771360862349      119.02953043837005
H          103.85932778624617      129.74185869157776      118.52343866767342
H          105.35214647530496      129.56761506492094      117.60092735383270
C          106.36209392802630      127.37398767283004      118.67002026022817
H          104.87684644559435      127.92690504566079      120.10825792967447
H          104.23691871389225      127.40473722431760      118.55594101742525
N          106.44676373476467      127.16343400226359      117.23789982303924
H          107.18836828842686      128.02572726192622      118.96611952931188
H          106.48561569858187      126.41694357682216      119.19116308032721
C          107.57397003600403      126.83612192000108      116.60808082782751
H          105.56779304787918      127.05881238746137      116.74778119698009
O          108.41327382730361      131.39227342416979      116.17479382792857
C          107.41408395823446      126.53321093047371      115.12711315143930
C          108.19764462024322      127.52509085860849      114.26056243956826
H          107.80068930829943      125.52477796787596      114.96532555964390
H          106.35904225799172      126.53782086946369      114.85922638794199
C          107.45193762284126      128.84395051034392      114.05735252911910
H          109.16064004310273      127.72513917656629      114.73443456996286
H          108.39160326425964      127.07676634776770      113.28334062004680
C          108.29572617772811      129.81601808407575      113.22566979717676
H          106.50641837901144      128.64904811848763      113.54590254828300
H          107.23125446239776      129.29470402775698      115.02592556257144
C          107.51879019800090      131.01678113298792      112.72913121042875
H          109.12017833720489      130.17824303448162      113.84019921974503
H          108.69312435086857      129.29824089478245      112.35017322271129
N          107.05143280854946      131.82657320311893      113.67917888098744
O          108.66964389974423      126.79127390943324      117.16722208849671
C          106.35028352381551      133.05607852655038      113.37081662344269
H          107.34791134331130      131.67631549032848      114.63884605094376
C          106.61346512118232      134.14158717541054      114.40742052944655
H          106.68000188379254      133.38713214037767      112.38037814238713
H          105.27230404984380      132.85668495366494      113.31221073768515
C          108.09860375096623      134.46022535658273      114.57774241538904
H          106.08058650705165      135.04039494765669      114.09210627128631
H          106.20268973786645      133.82736072018534      115.36825021809378
C          108.30002854422294      135.71636633432499      115.42348059704516
H          108.59343364851050      133.61178760229348      115.05161932906076
H          108.56155332935761      134.60949965062363      113.59896722043079
C          109.77185345415135      136.01267269405633      115.71460181014827
H          107.86360777094939      136.56540088984363      114.89233791806593
H          107.76457056297903      135.60808654329827      116.36969836799368
C          110.33630655737070      135.15997090206929      116.85902030216069
H          110.36287592045542      135.84421966895911      114.80893099769311
H          109.87900983430525      137.06619843082802      115.98864391509601
N          111.73399637978831      135.41374202844372      117.16863350816399
H          109.75939796842967      135.35101555373546      117.76908389987470
H          110.23603120113644      134.09860429671738      116.61918639760431
H          111.85681497973606      136.39766679546270      117.38611417828622
H          112.31135932917179      135.21451371843335      116.35684219924903
O          107.32857426739507      131.21914915416417      111.52677447782013
C           98.95643611392869      114.58093923685095      102.70093047247634
C          100.42921824894742      114.81267207708569      102.46864935379685
C           98.40381972580857      115.64996934401927      103.66032176417690
C           98.37344634736797      117.04181367743345      103.03255581063929
H           97.38719579110192      115.36668229991642      103.93954939602597
H           99.00572356995494      115.65328143841626      104.57194654831150
C           97.71412202064496      118.08206086165650      103.94775819403108
H           99.38849101644259      117.35974872936254      102.78424765102974
H           97.80774376104016      116.99159061758263      102.09998838541205
C           98.59123655671485      118.37756123711438      105.14951697501435
H           97.57428077512158      119.00742178437585      103.38753743116622
H           96.74562061462835      117.71279228644411      104.28177321582716
N           98.27777587555320      117.68258152196090      106.24199205916682
O          101.19410058492394      114.05544359224905      103.23288028372710
O          100.87728199000703      115.63053106022234      101.69026636623407
H          102.15995501522019      114.33979886781233      103.18790352568686
H           98.82951394958181      113.59534336519192      103.14642244158107
H           98.43014366809433      114.63681215223561      101.74817991741796
C           99.00070614687652      117.75084974364326      107.49343610099197
H           97.45169594968566      117.09407704053451      106.21080173131165
C           98.04900638567595      118.01075618854537      108.66098105887346
H           99.54027324183113      116.80877683173111      107.63654847943310
H           99.72998733927584      118.56136402704284      107.40994130676741
C           98.77345204684615      118.28299405440751      109.98448642801519
H           97.44904336439770      118.88640835189521      108.40410208447680
H           97.36325107017566      117.16821353812131      108.77360241898347
C           98.93576220968903      117.08366324902978      110.92086932963925
H           99.75242663715032      118.71223585335562      109.76511775715738
H           98.19939845428883      119.03111644781517      110.53503539444748
C           99.92455832799273      116.00354329875081      110.47458517877610
H           99.28154547218308      117.47549070985853      111.87705783618121
H           97.95780303983399      116.62924859701847      111.08988295209602
C           99.25187635033716      114.84425938506153      109.74407940375640
H          100.69215425317505      116.44443296530285      109.83777490700756
H          100.41756601153278      115.58072475856795      111.35307045700114
N          100.19022358499826      113.76818104263519      109.51738330248391
H           98.40691485102445      114.47392613778217      110.33529266384789
H           98.87807095684640      115.14897465240733      108.76575072846090