      -----------------------------------------------------------      
     |                   =====================                   |     
     |                           x T B                           |     
     |                   =====================                   |     
     |                         S. Grimme                         |     
     |          Mulliken Center for Theoretical Chemistry        |     
     |                    University of Bonn                     |     
      -----------------------------------------------------------      

   * xtb version 6.6.1 (8d0f1dd) compiled by 'stahn@M-Bot' on 2023-08-01

   xtb is free software: you can redistribute it and/or modify it under
   the terms of the GNU Lesser General Public License as published by
   the Free Software Foundation, either version 3 of the License, or
   (at your option) any later version.
   
   xtb is distributed in the hope that it will be useful,
   but WITHOUT ANY WARRANTY; without even the implied warranty of
   MERCHANTABILITY or FITNESS FOR A PARTICULAR PURPOSE.  See the
   GNU Lesser General Public License for more details.
   
   Cite this work as:
   * C. Bannwarth, E. Caldeweyher, S. Ehlert, A. Hansen, P. Pracht,
     J. Seibert, S. Spicher, S. Grimme, WIREs Comput. Mol. Sci., 2020, 11,
     e01493. DOI: 10.1002/wcms.1493
   
   for GFN2-xTB:
   * C. Bannwarth, S. Ehlert and S. Grimme., J. Chem. Theory Comput., 2019,
     15, 1652-1671. DOI: 10.1021/acs.jctc.8b01176
   for GFN1-xTB:
   * S. Grimme, C. Bannwarth, P. Shushkov, J. Chem. Theory Comput., 2017,
     13, 1989-2009. DOI: 10.1021/acs.jctc.7b00118
   for GFN0-xTB:
   * P. Pracht, E. Caldeweyher, S. Ehlert, S. Grimme, ChemRxiv, 2019, preprint.
     DOI: 10.26434/chemrxiv.8326202.v1
   for GFN-FF:
   * S. Spicher and S. Grimme, Angew. Chem. Int. Ed., 2020, 59, 15665-15673.
     DOI: 10.1002/anie.202004239
   
   for ALPB and GBSA implicit solvation:
   * S. Ehlert, M. Stahn, S. Spicher, S. Grimme, J. Chem. Theory Comput.,
     2021, 17, 4250-4261. DOI: 10.1021/acs.jctc.1c00471
   
   for DFT-D4:
   * E. Caldeweyher, C. Bannwarth and S. Grimme, J. Chem. Phys., 2017,
     147, 034112. DOI: 10.1063/1.4993215
   * E. Caldeweyher, S. Ehlert, A. Hansen, H. Neugebauer, S. Spicher,
     C. Bannwarth and S. Grimme, J. Chem. Phys., 2019, 150, 154122.
     DOI: 10.1063/1.5090222
   * E. Caldeweyher, J.-M. Mewes, S. Ehlert and S. Grimme, Phys. Chem. Chem. Phys.
     2020, 22, 8499-8512. DOI: 10.1039/D0CP00502A
   
   for sTDA-xTB:
   * S. Grimme and C. Bannwarth, J. Chem. Phys., 2016, 145, 054103.
     DOI: 10.1063/1.4959605
   
   in the mass-spec context:
   * V. Asgeirsson, C. Bauer and S. Grimme, Chem. Sci., 2017, 8, 4879.
     DOI: 10.1039/c7sc00601b
   * J. Koopman and S. Grimme, ACS Omega 2019, 4, 12, 15120-15133.
     DOI: 10.1021/acsomega.9b02011
   
   for metadynamics refer to:
   * S. Grimme, J. Chem. Theory Comput., 2019, 155, 2847-2862
     DOI: 10.1021/acs.jctc.9b00143
   
   for SPH calculations refer to:
   * S. Spicher and S. Grimme, J. Chem. Theory Comput., 2021, 17, 1701-1714
     DOI: 10.1021/acs.jctc.0c01306
   
   with help from (in alphabetical order)
   P. Atkinson, C. Bannwarth, F. Bohle, G. Brandenburg, E. Caldeweyher
   M. Checinski, S. Dohm, S. Ehlert, S. Ehrlich, I. Gerasimov, C. Hölzer
   A. Katbashev, J. Koopman, C. Lavigne, S. Lehtola, F. März, M. Müller,
   F. Musil, H. Neugebauer, J. Pisarek, C. Plett, P. Pracht, F. Pultar,
   J. Seibert, P. Shushkov, S. Spicher, M. Stahn, M. Steiner, T. Strunk,
   J. Stückrath, T. Rose, and J. Unsleber
   
 * started run on 2024/06/20 at 21:13:49.336     

           -------------------------------------------------
          |                Calculation Setup                |
           -------------------------------------------------

          program call               : /home/abt-grimme/AK-bin/xtb input.xyz --input input.inp --opt --gbsa water
          hostname                   : boar048.thch.uni-bonn.de
          coordinate file            : input.xyz
          omp threads                :                     8

   ID    Z sym.   atoms
    1    6 C      1-90, 273-362, 545-634, 817-906, 1089-1178, 1361-1450,
                  1633-1722, 1905-1994, 2177-2266, 2449-2538, 2721-2810,
                  2993-3082, 3265-3354
    2    1 H      91-272, 363-544, 635-816, 907-1088, 1179-1360, 1451-1632,
                  1723-1904, 1995-2176, 2267-2448, 2539-2720, 2811-2992,
                  3083-3264, 3355-3536

molecular fragmentation (1/2 indicates fragments):
111111111111111111111111111111111111111111111111111111111111111111111111
111111111111111111111111111111111111111111111111111111111111111111111111
111111111111111111111111111111111111111111111111111111111111111111111111
111111111111111111111111111111111111111111111111111111112222222222222222
222222222222222222222222222222222222222222222222222222222222222222222222
222222222222222222222222222222222222222222222222222222222222222222222222
222222222222222222222222222222222222222222222222222222222222222222222222
222222222222222222222222222222222222222222222222222222222222222222222222
222222222222222222222222222222222222222222222222222222222222222222222222
222222222222222222222222222222222222222222222222222222222222222222222222
222222222222222222222222222222222222222222222222222222222222222222222222
222222222222222222222222222222222222222222222222222222222222222222222222
222222222222222222222222222222222222222222222222222222222222222222222222
222222222222222222222222222222222222222222222222222222222222222222222222
222222222222222222222222222222222222222222222222222222222222222222222222
222222222222222222222222222222222222222222222222222222222222222222222222
222222222222222222222222222222222222222222222222222222222222222222222222
222222222222222222222222222222222222222222222222222222222222222222222222
222222222222222222222222222222222222222222222222222222222222222222222222
222222222222222222222222222222222222222222222222222222222222222222222222
222222222222222222222222222222222222222222222222222222222222222222222222
222222222222222222222222222222222222222222222222222222222222222222222222
222222222222222222222222222222222222222222222222222222222222222222222222
222222222222222222222222222222222222222222222222222222222222222222222222
222222222222222222222222222222222222222222222222222222222222222222222222
222222222222222222222222222222222222222222222222222222222222222222222222
222222222222222222222222222222222222222222222222222222222222222222222222
222222222222222222222222222222222222222222222222222222222222222222222222
222222222222222222222222222222222222222222222222222222222222222222222222
222222222222222222222222222222222222222222222222222222222222222222222222
222222222222222222222222222222222222222222222222222222222222222222222222
222222222222222222222222222222222222222222222222222222222222222222222222
222222222222222222222222222222222222222222222222222222222222222222222222
222222222222222222222222222222222222222222222222222222222222222222222222
222222222222222222222222222222222222222222222222222222222222222222222222
222222222222222222222222222222222222222222222222222222222222222222222222
222222222222222222222222222222222222222222222222222222222222222222222222
222222222222222222222222222222222222222222222222222222222222222222222222
222222222222222222222222222222222222222222222222222222222222222222222222
222222222222222222222222222222222222222222222222222222222222222222222222
222222222222222222222222222222222222222222222222222222222222222222222222
222222222222222222222222222222222222222222222222222222222222222222222222
222222222222222222222222222222222222222222222222222222222222222222222222
222222222222222222222222222222222222222222222222222222222222222222222222
222222222222222222222222222222222222222222222222222222222222222222222222
222222222222222222222222222222222222222222222222222222222222222222222222
222222222222222222222222222222222222222222222222222222222222222222222222
222222222222222222222222222222222222222222222222222222222222222222222222
222222222222222222222222222222222222222222222222222222222222222222222222
22222222
# atoms in fragment 1/2:   272  3264
 fragment masses (1/2) :     1264.41    15172.94
CMA distance (Bohr)    :  13.529
constraining FC (au)   :  0.0500

           -------------------------------------------------
          |                 G F N 2 - x T B                 |
           -------------------------------------------------

        Reference                      10.1021/acs.jctc.8b01176
      * Hamiltonian:
        H0-scaling (s, p, d)           1.850000    2.230000    2.230000
        zeta-weighting                 0.500000
      * Dispersion:
        s8                             2.700000
        a1                             0.520000
        a2                             5.000000
        s9                             5.000000
      * Repulsion:
        kExp                           1.500000    1.000000
        rExp                           1.000000
      * Coulomb:
        alpha                          2.000000
        third order                    shell-resolved
        anisotropic                    true
        a3                             3.000000
        a5                             4.000000
        cn-shift                       1.200000
        cn-exp                         4.000000
        max-rad                        5.000000

      * Solvation model:               GBSA
        Solvent                        water
        Parameter file                 internal GFN2-xTB/GBSA
        Dielectric constant                8.0200E+01
        Reference state                gsolv [1 M gas/solution]
        Free energy shift                  1.8574E-03 Eh       1.1656E+00 kcal/mol
        Temperature                        2.9815E+02 K
        Density                            1.0000E+00 kg/L
        Solvent mass                       1.8000E+01 g/mol
        Interaction kernel             Still
        Born radius scaling (c1)           1.5524E+00
        Born radii integrator          GBOBC
        Born offset                        2.4628E-02 a0       4.6540E-02 AA
        H-bond correction              true
        Ion screening                  false
        Surface tension                    1.0000E-05 Eh       1.5569E+01 dyn/cm
        Grid points                               230 per atom
q/qsh data taken from xtbrestart
CAMM data taken from xtbrestart

          ...................................................
          :                      SETUP                      :
          :.................................................:
          :  # basis functions                7046          :
          :  # atomic orbitals                7046          :
          :  # shells                         4706          :
          :  # electrons                      7046          :
          :  max. iterations                   250          :
          :  Hamiltonian                  GFN2-xTB          :
          :  restarted?                       true          :
          :  GBSA solvation                   true          :
          :  PC potential                    false          :
          :  electronic temp.          300.0000000     K    :
          :  accuracy                    1.0000000          :
          :  -> integral cutoff          0.2500000E+02      :
          :  -> integral neglect         0.1000000E-07      :
          :  -> SCF convergence          0.1000000E-05 Eh   :
          :  -> wf. convergence          0.1000000E-03 e    :
          :  Broyden damping             0.4000000          :
          ...................................................

 iter      E             dE          RMSdq      gap      omega  full diag
   1  -3764.2259411 -0.376423E+04  0.599E-05   10.56       0.0  T
   2  -3764.2259411 -0.278260E-08  0.463E-05   10.56      36.4  T
   3  -3764.2259411 -0.281761E-08  0.294E-05   10.56      57.2  T

   *** convergence criteria satisfied after 3 iterations ***

         #    Occupation            Energy/Eh            Energy/eV
      -------------------------------------------------------------
         1        2.0000           -0.6185939             -16.8328
       ...           ...                  ...                  ...
      3517        2.0000           -0.3769163             -10.2564
      3518        2.0000           -0.3766284             -10.2486
      3519        2.0000           -0.3760204             -10.2320
      3520        2.0000           -0.3758848             -10.2283
      3521        2.0000           -0.3758023             -10.2261
      3522        2.0000           -0.3747994             -10.1988
      3523        2.0000           -0.3726104             -10.1392 (HOMO)
      3524                          0.0153120               0.4167 (LUMO)
      3525                          0.0159772               0.4348
      3526                          0.0160818               0.4376
      3527                          0.0163261               0.4443
      3528                          0.0167930               0.4570
       ...                                ...                  ...
      7046                          0.3669510               9.9852
      -------------------------------------------------------------
                  HL-Gap            0.3879224 Eh           10.5559 eV
             Fermi-level           -0.1786492 Eh           -4.8613 eV

 SCC (total)                   0 d,  0 h,  9 min,  6.027 sec
 SCC setup                      ...        0 min,  1.911 sec (  0.350%)
 Dispersion                     ...        0 min,  4.170 sec (  0.764%)
 classical contributions        ...        0 min,  0.160 sec (  0.029%)
 integral evaluation            ...        0 min,  7.117 sec (  1.303%)
 iterations                     ...        3 min, 54.313 sec ( 42.912%)
 molecular gradient             ...        4 min, 47.384 sec ( 52.632%)
 printout                       ...        0 min, 10.972 sec (  2.009%)

         :::::::::::::::::::::::::::::::::::::::::::::::::::::
         ::                     SUMMARY                     ::
         :::::::::::::::::::::::::::::::::::::::::::::::::::::
         :: total energy           -3715.364296647648 Eh    ::
         :: total w/o Gsasa/hb     -3715.249277464694 Eh    ::
         :: gradient norm              0.664535111909 Eh/a0 ::
         :: HOMO-LUMO gap             10.555905845203 eV    ::
         ::.................................................::
         :: SCC energy             -3764.225941126086 Eh    ::
         :: -> isotropic ES            0.440656171062 Eh    ::
         :: -> anisotropic ES          1.495467472989 Eh    ::
         :: -> anisotropic XC          2.301861370120 Eh    ::
         :: -> dispersion             -4.672339295808 Eh    ::
         :: -> Gsolv                  -0.051440707105 Eh    ::
         ::    -> Gelec                0.063578475848 Eh    ::
         ::    -> Gsasa               -0.110070103281 Eh    ::
         ::    -> Ghb                 -0.006806522799 Eh    ::
         ::    -> Gshift               0.001857443127 Eh    ::
         :: repulsion energy          48.147520993693 Eh    ::
         :: add. restraining           0.000000000000 Eh    ::
         :: total charge              -0.000000000008 e     ::
         :::::::::::::::::::::::::::::::::::::::::::::::::::::

      ----------------------------------------------------------- 
     |              Fast Inertial Relaxation Engine              |
      ----------------------------------------------------------- 

          ...................................................
          :                      SETUP                      :
          :.................................................:
          :   energy convergence        0.5000000E-05 Eh    :
          :   grad. convergence         0.1000000E-02 Eh/a0 :
          :   optimization log               true           :
          :   writing optlog all                1     steps :
          :   Hessian reset                    20     steps :
          :   time step scaling                 5     steps :
          :   maximium step len.        1.0000000     a0    :
          :   initial time step         0.2500000     fs    :
          :   maximum time step         1.2500000     fs    :
          :   power reset thr           0.0000000     au    :
          :   alpha parameter           0.1000000           :
          :   BFGS update                   false           :
          :   preconditioning               false           :
          ...................................................

........................................................................
.............................. CYCLE    1 ..............................
........................................................................

 iter      E             dE          RMSdq      gap      omega  full diag
   1  -3764.4882084 -0.376449E+04  0.761E-03   10.57       0.0  T
   2  -3764.4882523 -0.439544E-04  0.413E-03   10.56       1.0  T
   3  -3764.4882530 -0.677261E-06  0.179E-03   10.56       1.0  T
   4  -3764.4882535 -0.510355E-06  0.439E-04   10.56       3.8  T
   5  -3764.4882538 -0.268715E-06  0.171E-04   10.56       9.8  T
     SCC iter.                  ...        6 min, 12.922 sec
     gradient                   ...        4 min, 47.692 sec
 * total energy  : -3715.4146859 Eh     change    :  -0.5038927E-01 Eh
   gradient norm :     0.6321992 Eh/a0  converged?    E=F G=F D=F
   time step     :     0.2500000 fs     power     :   0.2607682E-05
   step length   :     0.0778821 a0     speed     :   0.7535511E-02

........................................................................
.............................. CYCLE    2 ..............................
........................................................................

 iter      E             dE          RMSdq      gap      omega  full diag
   1  -3764.8748564 -0.376487E+04  0.112E-02   10.58       0.0  T
   2  -3764.8749508 -0.943379E-04  0.607E-03   10.58       1.0  T
   3  -3764.8749523 -0.149510E-05  0.263E-03   10.58       1.0  T
   4  -3764.8749534 -0.109956E-05  0.649E-04   10.57       2.6  T
   5  -3764.8749540 -0.581242E-06  0.262E-04   10.57       6.4  T
   6  -3764.8749540 -0.373143E-07  0.117E-04   10.57      14.4  T
     SCC iter.                  ...        7 min, 30.151 sec
     gradient                   ...        4 min, 49.980 sec
 * total energy  : -3715.4845446 Eh     change    :  -0.6985867E-01 Eh
   gradient norm :     0.5858768 Eh/a0  converged?    E=F G=F D=F
   time step     :     0.2500000 fs     power     :   0.3562955E-05
   step length   :     0.1148684 a0     speed     :   0.1111414E-01

........................................................................
.............................. CYCLE    3 ..............................
........................................................................

 iter      E             dE          RMSdq      gap      omega  full diag
   1  -3765.3760290 -0.376538E+04  0.144E-02   10.59       0.0  T
   2  -3765.3761832 -0.154241E-03  0.782E-03   10.59       1.0  T
   3  -3765.3761857 -0.247754E-05  0.335E-03   10.59       1.0  T
   4  -3765.3761875 -0.178206E-05  0.832E-04   10.59       2.0  T
   5  -3765.3761884 -0.953838E-06  0.340E-04   10.59       4.9  T
   6  -3765.3761885 -0.599780E-07  0.147E-04   10.59      11.5  T
     SCC iter.                  ...        7 min, 22.347 sec
     gradient                   ...        4 min, 48.929 sec
 * total energy  : -3715.5672853 Eh     change    :  -0.8274074E-01 Eh
   gradient norm :     0.5275794 Eh/a0  converged?    E=F G=F D=F
   time step     :     0.2500000 fs     power     :   0.4149362E-05
   step length   :     0.1491190 a0     speed     :   0.1442806E-01

........................................................................
.............................. CYCLE    4 ..............................
........................................................................

 iter      E             dE          RMSdq      gap      omega  full diag
   1  -3765.9790491 -0.376598E+04  0.172E-02   10.60       0.0  T
   2  -3765.9792637 -0.214588E-03  0.932E-03   10.60       1.0  T
   3  -3765.9792672 -0.355990E-05  0.394E-03   10.60       1.0  T
   4  -3765.9792696 -0.243037E-05  0.981E-04   10.60       1.7  T
   5  -3765.9792710 -0.131015E-05  0.412E-04   10.60       4.1  T
   6  -3765.9792710 -0.853379E-07  0.173E-04   10.60       9.7  T
   7  -3765.9792711 -0.411810E-07  0.111E-04   10.60      15.2  T
     SCC iter.                  ...        8 min, 49.362 sec
     gradient                   ...        4 min, 50.039 sec
 * total energy  : -3715.6553622 Eh     change    :  -0.8807687E-01 Eh
   gradient norm :     0.4610000 Eh/a0  converged?    E=F G=F D=F
   time step     :     0.2500000 fs     power     :   0.4327832E-05
   step length   :     0.1798185 a0     speed     :   0.1739840E-01

........................................................................
.............................. CYCLE    5 ..............................
........................................................................

 iter      E             dE          RMSdq      gap      omega  full diag
   1  -3766.6685000 -0.376667E+04  0.195E-02   10.62       0.0  T
   2  -3766.6687651 -0.265074E-03  0.105E-02   10.61       1.0  T
   3  -3766.6687697 -0.459104E-05  0.437E-03   10.61       1.0  T
   4  -3766.6687725 -0.285631E-05  0.108E-03   10.61       1.6  T
   5  -3766.6687741 -0.154767E-05  0.463E-04   10.61       3.6  T
   6  -3766.6687742 -0.895843E-07  0.179E-04   10.61       9.4  T
   7  -3766.6687742 -0.413156E-07  0.113E-04   10.61      14.9  T
     SCC iter.                  ...        8 min, 45.940 sec
     gradient                   ...        4 min, 47.914 sec
 * total energy  : -3715.7412337 Eh     change    :  -0.8587151E-01 Eh
   gradient norm :     0.3915947 Eh/a0  converged?    E=F G=F D=F
   time step     :     0.2500000 fs     power     :   0.4113725E-05
   step length   :     0.2062545 a0     speed     :   0.1995623E-01

........................................................................
.............................. CYCLE    6 ..............................
........................................................................

 iter      E             dE          RMSdq      gap      omega  full diag
   1  -3767.5093410 -0.376751E+04  0.236E-02   10.63       0.0  T
   2  -3767.5097044 -0.363414E-03  0.127E-02   10.63       1.0  T
   3  -3767.5097114 -0.698115E-05  0.511E-03   10.63       1.0  T
   4  -3767.5097151 -0.370339E-05  0.124E-03   10.62       1.4  T
   5  -3767.5097170 -0.196196E-05  0.569E-04   10.62       3.0  T
   6  -3767.5097171 -0.122373E-06  0.202E-04   10.62       8.3  T
   7  -3767.5097172 -0.515902E-07  0.130E-04   10.62      13.0  T
     SCC iter.                  ...        8 min, 35.344 sec
     gradient                   ...        4 min, 48.297 sec
 * total energy  : -3715.8258431 Eh     change    :  -0.8460934E-01 Eh
   gradient norm :     0.3205779 Eh/a0  converged?    E=F G=F D=F
   time step     :     0.2750000 fs     power     :   0.3501581E-05
   step length   :     0.2530052 a0     speed     :   0.2225419E-01

........................................................................
.............................. CYCLE    7 ..............................
........................................................................

 iter      E             dE          RMSdq      gap      omega  full diag
   1  -3768.4976576 -0.376850E+04  0.274E-02   10.64       0.0  T
   2  -3768.4981028 -0.445212E-03  0.147E-02   10.64       1.0  T
   3  -3768.4981131 -0.103204E-04  0.565E-03   10.64       1.0  T
   4  -3768.4981173 -0.416203E-05  0.133E-03   10.64       1.3  T
   5  -3768.4981192 -0.198490E-05  0.675E-04   10.64       2.5  T
   6  -3768.4981194 -0.156621E-06  0.213E-04   10.64       7.9  T
   7  -3768.4981195 -0.563750E-07  0.141E-04   10.64      12.0  T
     SCC iter.                  ...        8 min, 34.708 sec
     gradient                   ...        4 min, 47.407 sec
 * total energy  : -3715.8998004 Eh     change    :  -0.7395731E-01 Eh
   gradient norm :     0.2643571 Eh/a0  converged?    E=F G=F D=F
   time step     :     0.3025000 fs     power     :   0.2549156E-05
   step length   :     0.3010185 a0     speed     :   0.2407038E-01

........................................................................
.............................. CYCLE    8 ..............................
........................................................................

 iter      E             dE          RMSdq      gap      omega  full diag
   1  -3769.5986512 -0.376960E+04  0.305E-02   10.66       0.0  T
   2  -3769.5991132 -0.461956E-03  0.163E-02   10.65       1.0  T
   3  -3769.5991278 -0.146699E-04  0.578E-03   10.65       1.0  T
   4  -3769.5991317 -0.383103E-05  0.131E-03   10.65       1.3  T
   5  -3769.5991329 -0.120409E-05  0.745E-04   10.65       2.3  T
   6  -3769.5991331 -0.186643E-06  0.199E-04   10.65       8.5  T
   7  -3769.5991331 -0.483046E-07  0.138E-04   10.65      12.2  T
     SCC iter.                  ...        8 min, 33.139 sec
     gradient                   ...        4 min, 48.945 sec
 * total energy  : -3715.9550481 Eh     change    :  -0.5524779E-01 Eh
   gradient norm :     0.2428446 Eh/a0  converged?    E=F G=F D=F
   time step     :     0.3327500 fs     power     :   0.1464788E-05
   step length   :     0.3448441 a0     speed     :   0.2506801E-01

........................................................................
.............................. CYCLE    9 ..............................
........................................................................

 iter      E             dE          RMSdq      gap      omega  full diag
   1  -3770.7297309 -0.377073E+04  0.324E-02   10.67       0.0  T
   2  -3770.7301103 -0.379395E-03  0.174E-02   10.67       1.0  T
   3  -3770.7301288 -0.184510E-04  0.538E-03   10.67       1.0  T
   4  -3770.7301320 -0.323840E-05  0.128E-03   10.67       1.3  T
   5  -3770.7301324 -0.453622E-06  0.734E-04   10.67       2.3  T
   6  -3770.7301326 -0.179184E-06  0.152E-04   10.67      11.1  T
     SCC iter.                  ...        7 min, 23.962 sec
     gradient                   ...        4 min, 49.434 sec
 * total energy  : -3715.9891844 Eh     change    :  -0.3413626E-01 Eh
   gradient norm :     0.2516721 Eh/a0  converged?    E=F G=F D=F
   time step     :     0.3660250 fs     power     :   0.5518710E-06
   step length   :     0.3769312 a0     speed     :   0.2490958E-01

........................................................................
.............................. CYCLE   10 ..............................
........................................................................

 iter      E             dE          RMSdq      gap      omega  full diag
   1  -3771.7783253 -0.377178E+04  0.332E-02   10.69       0.0  T
   2  -3771.7785694 -0.244172E-03  0.184E-02   10.69       1.0  T
   3  -3771.7785851 -0.156361E-04  0.473E-03   10.69       1.0  T
   4  -3771.7785933 -0.823302E-05  0.144E-03   10.69       1.2  T
   5  -3771.7785944 -0.106710E-05  0.808E-04   10.69       2.1  T
   6  -3771.7785945 -0.111489E-06  0.123E-04   10.69      13.6  T
   7  -3771.7785945 -0.172918E-07  0.898E-05   10.69      18.7  T
     SCC iter.                  ...        8 min, 39.729 sec
     gradient                   ...        4 min, 49.888 sec
 * total energy  : -3716.0060735 Eh     change    :  -0.1688911E-01 Eh
   gradient norm :     0.2614451 Eh/a0  converged?    E=F G=F D=F
   time step     :     0.4026275 fs     power     :  -0.3792825E-07
   step length   :     0.3949183 a0     speed     :   0.2372569E-01

........................................................................
.............................. CYCLE   11 ..............................
........................................................................
 * reset velocities

 iter      E             dE          RMSdq      gap      omega  full diag
   1  -3771.7597509 -0.377176E+04  0.105E-03   10.69       0.0  T
   2  -3771.7597518 -0.847598E-06  0.645E-04   10.69       2.6  T
   3  -3771.7597518 -0.114019E-07  0.271E-04   10.69       6.2  T
     SCC iter.                  ...        3 min, 42.618 sec
     gradient                   ...        4 min, 47.431 sec
 * total energy  : -3716.0086395 Eh     change    :  -0.2565958E-02 Eh
   gradient norm :     0.2551994 Eh/a0  converged?    E=F G=F D=F
   time step     :     0.2013138 fs     power     :   0.1671017E-06
   step length   :     0.0099343 a0     speed     :   0.1193655E-02

........................................................................
.............................. CYCLE   12 ..............................
........................................................................

 iter      E             dE          RMSdq      gap      omega  full diag
   1  -3771.7225393 -0.377172E+04  0.211E-03   10.69       0.0  T
   2  -3771.7225425 -0.317724E-05  0.129E-03   10.69       1.3  T
   3  -3771.7225425 -0.284449E-07  0.524E-04   10.69       3.2  T
   4  -3771.7225426 -0.808495E-07  0.135E-04   10.69      12.5  T
     SCC iter.                  ...        5 min,  0.159 sec
     gradient                   ...        4 min, 48.174 sec
 * total energy  : -3716.0135289 Eh     change    :  -0.4889467E-02 Eh
   gradient norm :     0.2429983 Eh/a0  converged?    E=F G=F D=F
   time step     :     0.2013138 fs     power     :   0.3143512E-06
   step length   :     0.0196311 a0     speed     :   0.2358771E-02

........................................................................
.............................. CYCLE   13 ..............................
........................................................................

 iter      E             dE          RMSdq      gap      omega  full diag
   1  -3771.6679080 -0.377167E+04  0.304E-03   10.69       0.0  T
   2  -3771.6679151 -0.714813E-05  0.187E-03   10.69       1.0  T
   3  -3771.6679152 -0.102078E-06  0.789E-04   10.69       2.1  T
   4  -3771.6679154 -0.181849E-06  0.206E-04   10.69       8.2  T
     SCC iter.                  ...        4 min, 56.721 sec
     gradient                   ...        4 min, 48.689 sec
 * total energy  : -3716.0202845 Eh     change    :  -0.6755552E-02 Eh
   gradient norm :     0.2253287 Eh/a0  converged?    E=F G=F D=F
   time step     :     0.2013138 fs     power     :   0.4282493E-06
   step length   :     0.0288626 a0     speed     :   0.3467989E-02

........................................................................
.............................. CYCLE   14 ..............................
........................................................................

 iter      E             dE          RMSdq      gap      omega  full diag
   1  -3771.5972924 -0.377160E+04  0.392E-03   10.69       0.0  T
   2  -3771.5973044 -0.119527E-04  0.241E-03   10.69       1.0  T
   3  -3771.5973046 -0.175768E-06  0.102E-03   10.69       1.6  T
   4  -3771.5973049 -0.302550E-06  0.267E-04   10.69       6.3  T
   5  -3771.5973049 -0.889463E-07  0.644E-05   10.69      26.1  T
     SCC iter.                  ...        6 min, 10.222 sec
     gradient                   ...        4 min, 48.853 sec
 * total energy  : -3716.0282843 Eh     change    :  -0.7999801E-02 Eh
   gradient norm :     0.2029612 Eh/a0  converged?    E=F G=F D=F
   time step     :     0.2013138 fs     power     :   0.4990348E-06
   step length   :     0.0374166 a0     speed     :   0.4495789E-02

........................................................................
.............................. CYCLE   15 ..............................
........................................................................

 iter      E             dE          RMSdq      gap      omega  full diag
   1  -3771.5126346 -0.377151E+04  0.469E-03   10.69       0.0  T
   2  -3771.5126518 -0.172520E-04  0.289E-03   10.69       1.0  T
   3  -3771.5126521 -0.258477E-06  0.122E-03   10.69       1.4  T
   4  -3771.5126525 -0.421833E-06  0.320E-04   10.69       5.3  T
   5  -3771.5126527 -0.126969E-06  0.766E-05   10.69      22.0  T
     SCC iter.                  ...        6 min,  9.264 sec
     gradient                   ...        4 min, 47.110 sec
 * total energy  : -3716.0368117 Eh     change    :  -0.8527425E-02 Eh
   gradient norm :     0.1769495 Eh/a0  converged?    E=F G=F D=F
   time step     :     0.2013138 fs     power     :   0.5216933E-06
   step length   :     0.0451025 a0     speed     :   0.5419293E-02

........................................................................
.............................. CYCLE   16 ..............................
........................................................................

 iter      E             dE          RMSdq      gap      omega  full diag
   1  -3771.4164410 -0.377142E+04  0.533E-03   10.69       0.0  T
   2  -3771.4164634 -0.223749E-04  0.328E-03   10.69       1.0  T
   3  -3771.4164637 -0.339866E-06  0.139E-03   10.69       1.2  T
   4  -3771.4164643 -0.536112E-06  0.364E-04   10.69       4.6  T
   5  -3771.4164644 -0.163721E-06  0.873E-05   10.69      19.3  T
     SCC iter.                  ...        6 min, 13.723 sec
     gradient                   ...        4 min, 49.848 sec
 * total energy  : -3716.0451375 Eh     change    :  -0.8325763E-02 Eh
   gradient norm :     0.1488767 Eh/a0  converged?    E=F G=F D=F
   time step     :     0.2013138 fs     power     :   0.4969055E-06
   step length   :     0.0517532 a0     speed     :   0.6218401E-02

........................................................................
.............................. CYCLE   17 ..............................
........................................................................

 iter      E             dE          RMSdq      gap      omega  full diag
   1  -3771.3004094 -0.377130E+04  0.644E-03   10.70       0.0  T
   2  -3771.3004423 -0.328551E-04  0.398E-03   10.70       1.0  T
   3  -3771.3004428 -0.502887E-06  0.168E-03   10.70       1.0  T
   4  -3771.3004435 -0.767507E-06  0.441E-04   10.70       3.8  T
   5  -3771.3004438 -0.238195E-06  0.104E-04   10.70      16.1  T
     SCC iter.                  ...        6 min,  9.307 sec
     gradient                   ...        4 min, 49.207 sec
 * total energy  : -3716.0533266 Eh     change    :  -0.8189133E-02 Eh
   gradient norm :     0.1183171 Eh/a0  converged?    E=F G=F D=F
   time step     :     0.2214451 fs     power     :   0.4222023E-06
   step length   :     0.0635558 a0     speed     :   0.6942307E-02

........................................................................
.............................. CYCLE   18 ..............................
........................................................................

 iter      E             dE          RMSdq      gap      omega  full diag
   1  -3771.1667569 -0.377117E+04  0.748E-03   10.70       0.0  T
   2  -3771.1668013 -0.444120E-04  0.464E-03   10.70       1.0  T
   3  -3771.1668020 -0.680356E-06  0.195E-03   10.70       1.0  T
   4  -3771.1668030 -0.101460E-05  0.513E-04   10.70       3.3  T
   5  -3771.1668033 -0.319718E-06  0.121E-04   10.70      13.9  T
   6  -3771.1668033 -0.106265E-07  0.818E-05   10.70      20.6  T
     SCC iter.                  ...        7 min, 28.340 sec
     gradient                   ...        4 min, 49.804 sec
 * total energy  : -3716.0603835 Eh     change    :  -0.7056867E-02 Eh
   gradient norm :     0.0914563 Eh/a0  converged?    E=F G=F D=F
   time step     :     0.2435896 fs     power     :   0.3011666E-06
   step length   :     0.0757896 a0     speed     :   0.7526025E-02

........................................................................
.............................. CYCLE   19 ..............................
........................................................................

 iter      E             dE          RMSdq      gap      omega  full diag
   1  -3771.0239746 -0.377102E+04  0.820E-03   10.70       0.0  T
   2  -3771.0240273 -0.527236E-04  0.512E-03   10.71       1.0  T
   3  -3771.0240281 -0.769924E-06  0.212E-03   10.71       1.0  T
   4  -3771.0240293 -0.119824E-05  0.559E-04   10.71       3.0  T
   5  -3771.0240297 -0.376335E-06  0.125E-04   10.71      13.5  T
   6  -3771.0240297 -0.933096E-08  0.799E-05   10.71      21.0  T
     SCC iter.                  ...        7 min, 24.272 sec
     gradient                   ...        4 min, 51.038 sec
 * total energy  : -3716.0653854 Eh     change    :  -0.5001870E-02 Eh
   gradient norm :     0.0816625 Eh/a0  converged?    E=F G=F D=F
   time step     :     0.2679486 fs     power     :   0.1586082E-06
   step length   :     0.0870551 a0     speed     :   0.7858831E-02

........................................................................
.............................. CYCLE   20 ..............................
........................................................................

 iter      E             dE          RMSdq      gap      omega  full diag
   1  -3770.8904525 -0.377089E+04  0.822E-03   10.71       0.0  T
   2  -3770.8905028 -0.502141E-04  0.518E-03   10.71       1.0  T
   3  -3770.8905034 -0.625069E-06  0.207E-03   10.71       1.0  T
   4  -3770.8905046 -0.123513E-05  0.550E-04   10.71       3.1  T
   5  -3770.8905050 -0.360888E-06  0.125E-04   10.71      13.5  T
   6  -3770.8905050 -0.770660E-08  0.743E-05   10.71      22.6  T
     SCC iter.                  ...        7 min, 26.537 sec
     gradient                   ...        4 min, 58.586 sec
 * total energy  : -3716.0681448 Eh     change    :  -0.2759488E-02 Eh
   gradient norm :     0.0952174 Eh/a0  converged?    E=F G=F D=F
   time step     :     0.2947435 fs     power     :   0.4644318E-07
   step length   :     0.0947270 a0     speed     :   0.7774005E-02
 * RMSD in coord.:     0.0373201 a0     energy gain  -0.7038482E+00 Eh

........................................................................
.............................. CYCLE   21 ..............................
........................................................................

 iter      E             dE          RMSdq      gap      omega  full diag
   1  -3770.8095112 -0.377081E+04  0.584E-03   10.72       0.0  T
   2  -3770.8095329 -0.217555E-04  0.372E-03   10.72       1.0  T
   3  -3770.8095331 -0.138645E-06  0.135E-03   10.72       1.2  T
   4  -3770.8095338 -0.691051E-06  0.364E-04   10.72       4.6  T
   5  -3770.8095339 -0.159647E-06  0.911E-05   10.72      18.5  T
     SCC iter.                  ...        6 min,  7.421 sec
     gradient                   ...        4 min, 47.574 sec
 * total energy  : -3716.0694390 Eh     change    :  -0.1294180E-02 Eh
   gradient norm :     0.1117678 Eh/a0  converged?    E=F G=F D=F
   time step     :     0.2500000 fs     power     :   0.2666826E-07
   step length   :     0.0750974 a0     speed     :   0.7266075E-02

........................................................................
.............................. CYCLE   22 ..............................
........................................................................

 iter      E             dE          RMSdq      gap      omega  full diag
   1  -3770.7636951 -0.377076E+04  0.482E-03   10.73       0.0  T
   2  -3770.7637053 -0.101704E-04  0.307E-03   10.73       1.0  T
   3  -3770.7637052  0.998029E-07  0.875E-04   10.73       1.9  T
   4  -3770.7637057 -0.534969E-06  0.249E-04   10.73       6.7  T
     SCC iter.                  ...        4 min, 56.021 sec
     gradient                   ...        4 min, 49.484 sec
 * total energy  : -3716.0710201 Eh     change    :  -0.1581053E-02 Eh
   gradient norm :     0.1237371 Eh/a0  converged?    E=F G=F D=F
   time step     :     0.2500000 fs     power     :   0.6036897E-07
   step length   :     0.0698535 a0     speed     :   0.6758702E-02

........................................................................
.............................. CYCLE   23 ..............................
........................................................................

 iter      E             dE          RMSdq      gap      omega  full diag
   1  -3770.7523163 -0.377075E+04  0.421E-03   10.73       0.0  T
   2  -3770.7523194 -0.311453E-05  0.263E-03   10.73       1.0  T
   3  -3770.7523193  0.111484E-06  0.398E-04   10.73       4.2  T
   4  -3770.7523196 -0.323683E-06  0.148E-04   10.74      11.3  T
     SCC iter.                  ...        4 min, 54.908 sec
     gradient                   ...        4 min, 50.291 sec
 * total energy  : -3716.0735613 Eh     change    :  -0.2541266E-02 Eh
   gradient norm :     0.1286418 Eh/a0  converged?    E=F G=F D=F
   time step     :     0.2500000 fs     power     :   0.1218939E-06
   step length   :     0.0662617 a0     speed     :   0.6411177E-02

........................................................................
.............................. CYCLE   24 ..............................
........................................................................

 iter      E             dE          RMSdq      gap      omega  full diag
   1  -3770.7729561 -0.377077E+04  0.412E-03   10.74       0.0  T
   2  -3770.7729566 -0.502974E-06  0.248E-03   10.74       1.0  T
   3  -3770.7729567 -0.924838E-07  0.182E-04   10.74       9.3  T
   4  -3770.7729568 -0.452433E-07  0.100E-04   10.74      16.8  T
     SCC iter.                  ...        4 min, 56.211 sec
     gradient                   ...        4 min, 47.946 sec
 * total energy  : -3716.0772689 Eh     change    :  -0.3707511E-02 Eh
   gradient norm :     0.1264180 Eh/a0  converged?    E=F G=F D=F
   time step     :     0.2500000 fs     power     :   0.1871159E-06
   step length   :     0.0649013 a0     speed     :   0.6279552E-02

........................................................................
.............................. CYCLE   25 ..............................
........................................................................

 iter      E             dE          RMSdq      gap      omega  full diag
   1  -3770.8222686 -0.377082E+04  0.446E-03   10.75       0.0  T
   2  -3770.8222699 -0.132434E-05  0.259E-03   10.75       1.0  T
   3  -3770.8222699 -0.216673E-07  0.363E-04   10.75       4.6  T
   4  -3770.8222700 -0.151324E-06  0.113E-04   10.75      14.8  T
     SCC iter.                  ...        5 min,  1.843 sec
     gradient                   ...        4 min, 48.565 sec
 * total energy  : -3716.0819790 Eh     change    :  -0.4710165E-02 Eh
   gradient norm :     0.1180406 Eh/a0  converged?    E=F G=F D=F
   time step     :     0.2500000 fs     power     :   0.2382752E-06
   step length   :     0.0655945 a0     speed     :   0.6346620E-02

........................................................................
.............................. CYCLE   26 ..............................
........................................................................

 iter      E             dE          RMSdq      gap      omega  full diag
   1  -3770.9053577 -0.377091E+04  0.554E-03   10.76       0.0  T
   2  -3770.9053632 -0.557505E-05  0.316E-03   10.76       1.0  T
   3  -3770.9053631  0.116883E-06  0.760E-04   10.76       2.2  T
   4  -3770.9053636 -0.459879E-06  0.168E-04   10.76      10.0  T
     SCC iter.                  ...        5 min,  5.728 sec
     gradient                   ...        4 min, 48.051 sec
 * total energy  : -3716.0878673 Eh     change    :  -0.5888308E-02 Eh
   gradient norm :     0.1036139 Eh/a0  converged?    E=F G=F D=F
   time step     :     0.2750000 fs     power     :   0.2648908E-06
   step length   :     0.0750564 a0     speed     :   0.6601921E-02

........................................................................
.............................. CYCLE   27 ..............................
........................................................................

 iter      E             dE          RMSdq      gap      omega  full diag
   1  -3771.0237677 -0.377102E+04  0.684E-03   10.77       0.0  T
   2  -3771.0237810 -0.132266E-04  0.387E-03   10.77       1.0  T
   3  -3771.0237808  0.170482E-06  0.113E-03   10.77       1.5  T
   4  -3771.0237816 -0.774177E-06  0.242E-04   10.77       6.9  T
   5  -3771.0237817 -0.928694E-07  0.112E-04   10.77      15.0  T
     SCC iter.                  ...        6 min,  9.162 sec
     gradient                   ...        4 min, 50.440 sec
 * total energy  : -3716.0944007 Eh     change    :  -0.6533408E-02 Eh
   gradient norm :     0.0855112 Eh/a0  converged?    E=F G=F D=F
   time step     :     0.3025000 fs     power     :   0.2567075E-06
   step length   :     0.0872741 a0     speed     :   0.6978711E-02

........................................................................
.............................. CYCLE   28 ..............................
........................................................................

 iter      E             dE          RMSdq      gap      omega  full diag
   1  -3771.1751168 -0.377118E+04  0.812E-03   10.78       0.0  T
   2  -3771.1751393 -0.225485E-04  0.457E-03   10.78       1.0  T
   3  -3771.1751392  0.160827E-06  0.143E-03   10.78       1.2  T
   4  -3771.1751402 -0.100925E-05  0.310E-04   10.78       5.4  T
   5  -3771.1751403 -0.154088E-06  0.125E-04   10.78      13.5  T
   6  -3771.1751403 -0.145878E-07  0.747E-05   10.78      22.5  T
     SCC iter.                  ...        7 min, 22.978 sec
     gradient                   ...        4 min, 48.880 sec
 * total energy  : -3716.1007764 Eh     change    :  -0.6375626E-02 Eh
   gradient norm :     0.0703017 Eh/a0  converged?    E=F G=F D=F
   time step     :     0.3327500 fs     power     :   0.2142631E-06
   step length   :     0.1015675 a0     speed     :   0.7383320E-02

........................................................................
.............................. CYCLE   29 ..............................
........................................................................

 iter      E             dE          RMSdq      gap      omega  full diag
   1  -3771.3481925 -0.377135E+04  0.898E-03   10.79       0.0  T
   2  -3771.3482203 -0.278529E-04  0.504E-03   10.79       1.0  T
   3  -3771.3482202  0.127532E-06  0.154E-03   10.79       1.1  T
   4  -3771.3482212 -0.104544E-05  0.342E-04   10.79       4.9  T
   5  -3771.3482214 -0.186055E-06  0.126E-04   10.79      13.3  T
   6  -3771.3482214 -0.118589E-07  0.712E-05   10.79      23.6  T
     SCC iter.                  ...        7 min, 27.659 sec
     gradient                   ...        4 min, 49.506 sec
 * total energy  : -3716.1063118 Eh     change    :  -0.5535411E-02 Eh
   gradient norm :     0.0676398 Eh/a0  converged?    E=F G=F D=F
   time step     :     0.3660250 fs     power     :   0.1574320E-06
   step length   :     0.1164090 a0     speed     :   0.7692913E-02

........................................................................
.............................. CYCLE   30 ..............................
........................................................................

 iter      E             dE          RMSdq      gap      omega  full diag
   1  -3771.5191700 -0.377152E+04  0.905E-03   10.80       0.0  T
   2  -3771.5191927 -0.226279E-04  0.506E-03   10.80       1.0  T
   3  -3771.5191927 -0.114551E-07  0.134E-03   10.80       1.3  T
   4  -3771.5191934 -0.711712E-06  0.300E-04   10.80       5.6  T
   5  -3771.5191935 -0.135858E-06  0.122E-04   10.80      13.7  T
     SCC iter.                  ...        6 min,  9.376 sec
     gradient                   ...        4 min, 48.899 sec
 * total energy  : -3716.1110773 Eh     change    :  -0.4765553E-02 Eh
   gradient norm :     0.0759365 Eh/a0  converged?    E=F G=F D=F
   time step     :     0.4026275 fs     power     :   0.1212254E-06
   step length   :     0.1295797 a0     speed     :   0.7784820E-02

........................................................................
.............................. CYCLE   31 ..............................
........................................................................

 iter      E             dE          RMSdq      gap      omega  full diag
   1  -3771.6606496 -0.377166E+04  0.844E-03   10.81       0.0  T
   2  -3771.6606600 -0.103891E-04  0.475E-03   10.81       1.0  T
   3  -3771.6606603 -0.282640E-06  0.861E-04   10.81       2.0  T
   4  -3771.6606605 -0.216452E-06  0.196E-04   10.81       8.6  T
     SCC iter.                  ...        4 min, 53.585 sec
     gradient                   ...        4 min, 49.100 sec
 * total energy  : -3716.1159939 Eh     change    :  -0.4916624E-02 Eh
   gradient norm :     0.0821189 Eh/a0  converged?    E=F G=F D=F
   time step     :     0.4428903 fs     power     :   0.1221564E-06
   step length   :     0.1415898 a0     speed     :   0.7733054E-02

........................................................................
.............................. CYCLE   32 ..............................
........................................................................

 iter      E             dE          RMSdq      gap      omega  full diag
   1  -3771.7498038 -0.377175E+04  0.781E-03   10.82       0.0  T
   2  -3771.7498066 -0.276055E-05  0.458E-03   10.82       1.0  T
   3  -3771.7498064  0.133043E-06  0.621E-04   10.82       2.7  T
   4  -3771.7498071 -0.683637E-06  0.186E-04   10.82       9.0  T
     SCC iter.                  ...        4 min, 56.772 sec
     gradient                   ...        4 min, 49.119 sec
 * total energy  : -3716.1219679 Eh     change    :  -0.5974000E-02 Eh
   gradient norm :     0.0778813 Eh/a0  converged?    E=F G=F D=F
   time step     :     0.4871793 fs     power     :   0.1410568E-06
   step length   :     0.1557207 a0     speed     :   0.7731658E-02

........................................................................
.............................. CYCLE   33 ..............................
........................................................................

 iter      E             dE          RMSdq      gap      omega  full diag
   1  -3771.7719798 -0.377177E+04  0.781E-03   10.83       0.0  T
   2  -3771.7719902 -0.104760E-04  0.489E-03   10.83       1.0  T
   3  -3771.7719888  0.139107E-05  0.113E-03   10.83       1.5  T
   4  -3771.7719914 -0.257084E-05  0.223E-04   10.83       7.6  T
   5  -3771.7719914 -0.338000E-07  0.124E-04   10.83      13.5  T
   6  -3771.7719915 -0.782893E-08  0.527E-05   10.83      31.9  T
     SCC iter.                  ...        7 min, 27.144 sec
     gradient                   ...        4 min, 49.449 sec
 * total energy  : -3716.1288541 Eh     change    :  -0.6886152E-02 Eh
   gradient norm :     0.0648784 Eh/a0  converged?    E=F G=F D=F
   time step     :     0.5358972 fs     power     :   0.1418662E-06
   step length   :     0.1743289 a0     speed     :   0.7868699E-02

........................................................................
.............................. CYCLE   34 ..............................
........................................................................

 iter      E             dE          RMSdq      gap      omega  full diag
   1  -3771.7299737 -0.377173E+04  0.841E-03   10.84       0.0  T
   2  -3771.7300039 -0.301580E-04  0.547E-03   10.84       1.0  T
   3  -3771.7300032  0.633345E-06  0.167E-03   10.84       1.0  T
   4  -3771.7300056 -0.233960E-05  0.391E-04   10.84       4.3  T
   5  -3771.7300058 -0.209889E-06  0.151E-04   10.84      11.1  T
   6  -3771.7300058 -0.149116E-07  0.787E-05   10.84      21.4  T
     SCC iter.                  ...        7 min, 27.970 sec
     gradient                   ...        4 min, 49.651 sec
 * total energy  : -3716.1354267 Eh     change    :  -0.6572579E-02 Eh
   gradient norm :     0.0576514 Eh/a0  converged?    E=F G=F D=F
   time step     :     0.5894869 fs     power     :   0.1103629E-06
   step length   :     0.1966100 a0     speed     :   0.8067642E-02

........................................................................
.............................. CYCLE   35 ..............................
........................................................................

 iter      E             dE          RMSdq      gap      omega  full diag
   1  -3771.6623311 -0.377166E+04  0.894E-03   10.86       0.0  T
   2  -3771.6623660 -0.348366E-04  0.573E-03   10.86       1.0  T
   3  -3771.6623659  0.115449E-06  0.160E-03   10.86       1.1  T
   4  -3771.6623674 -0.155985E-05  0.484E-04   10.86       3.5  T
   5  -3771.6623677 -0.287504E-06  0.168E-04   10.86      10.0  T
   6  -3771.6623677 -0.135151E-07  0.726E-05   10.86      23.2  T
     SCC iter.                  ...        7 min, 23.792 sec
     gradient                   ...        4 min, 48.346 sec
 * total energy  : -3716.1411291 Eh     change    :  -0.5702439E-02 Eh
   gradient norm :     0.0638580 Eh/a0  converged?    E=F G=F D=F
   time step     :     0.6484356 fs     power     :   0.8292551E-07
   step length   :     0.2182777 a0     speed     :   0.8142497E-02

........................................................................
.............................. CYCLE   36 ..............................
........................................................................

 iter      E             dE          RMSdq      gap      omega  full diag
   1  -3771.6308116 -0.377163E+04  0.997E-03   10.88       0.0  T
   2  -3771.6308270 -0.154226E-04  0.600E-03   10.88       1.0  T
   3  -3771.6308278 -0.780460E-06  0.887E-04   10.88       1.9  T
   4  -3771.6308282 -0.430931E-06  0.316E-04   10.88       5.3  T
     SCC iter.                  ...        5 min,  7.623 sec
     gradient                   ...        4 min, 47.913 sec
 * total energy  : -3716.1471366 Eh     change    :  -0.6007487E-02 Eh
   gradient norm :     0.0638198 Eh/a0  converged?    E=F G=F D=F
   time step     :     0.7132792 fs     power     :   0.8606913E-07
   step length   :     0.2388350 a0     speed     :   0.8099413E-02

........................................................................
.............................. CYCLE   37 ..............................
........................................................................

 iter      E             dE          RMSdq      gap      omega  full diag
   1  -3771.6812302 -0.377168E+04  0.121E-02   10.91       0.0  T
   2  -3771.6812384 -0.818259E-05  0.699E-03   10.91       1.0  T
   3  -3771.6812382  0.180974E-06  0.123E-03   10.91       1.4  T
   4  -3771.6812402 -0.206316E-05  0.347E-04   10.91       4.8  T
   5  -3771.6812403 -0.161886E-07  0.124E-04   10.91      13.5  T
   6  -3771.6812403 -0.643468E-08  0.350E-05   10.91      48.1  T
     SCC iter.                  ...        7 min, 27.289 sec
     gradient                   ...        4 min, 48.841 sec
 * total energy  : -3716.1537430 Eh     change    :  -0.6606420E-02 Eh
   gradient norm :     0.0518957 Eh/a0  converged?    E=F G=F D=F
   time step     :     0.7846071 fs     power     :   0.7989932E-07
   step length   :     0.2638603 a0     speed     :   0.8134614E-02

........................................................................
.............................. CYCLE   38 ..............................
........................................................................

 iter      E             dE          RMSdq      gap      omega  full diag
   1  -3771.8122741 -0.377181E+04  0.133E-02   10.94       0.0  T
   2  -3771.8122979 -0.237197E-04  0.769E-03   10.94       1.0  T
   3  -3771.8122968  0.106435E-05  0.171E-03   10.94       1.0  T
   4  -3771.8123001 -0.330670E-05  0.361E-04   10.94       4.7  T
   5  -3771.8123002 -0.107242E-06  0.180E-04   10.94       9.3  T
   6  -3771.8123002 -0.113250E-07  0.628E-05   10.94      26.8  T
     SCC iter.                  ...        7 min, 25.964 sec
     gradient                   ...        4 min, 49.471 sec
 * total energy  : -3716.1591878 Eh     change    :  -0.5444758E-02 Eh
   gradient norm :     0.0534318 Eh/a0  converged?    E=F G=F D=F
   time step     :     0.8630678 fs     power     :   0.4511359E-07
   step length   :     0.2917568 a0     speed     :   0.8176946E-02

........................................................................
.............................. CYCLE   39 ..............................
........................................................................

 iter      E             dE          RMSdq      gap      omega  full diag
   1  -3771.9471963 -0.377195E+04  0.119E-02   10.97       0.0  T
   2  -3771.9472107 -0.143827E-04  0.689E-03   10.97       1.0  T
   3  -3771.9472111 -0.374562E-06  0.103E-03   10.97       1.6  T
   4  -3771.9472119 -0.792447E-06  0.274E-04   10.97       6.1  T
   5  -3771.9472119 -0.449377E-07  0.145E-04   10.97      11.6  T
     SCC iter.                  ...        6 min, 12.123 sec
     gradient                   ...        4 min, 49.038 sec
 * total energy  : -3716.1641043 Eh     change    :  -0.4916516E-02 Eh
   gradient norm :     0.0585570 Eh/a0  converged?    E=F G=F D=F
   time step     :     0.9493746 fs     power     :   0.4148284E-07
   step length   :     0.3149122 a0     speed     :   0.8023557E-02

........................................................................
.............................. CYCLE   40 ..............................
........................................................................

 iter      E             dE          RMSdq      gap      omega  full diag
   1  -3772.0167348 -0.377202E+04  0.115E-02   10.99       0.0  T
   2  -3772.0167502 -0.154215E-04  0.686E-03   10.99       1.0  T
   3  -3772.0167483  0.191460E-05  0.157E-03   10.99       1.1  T
   4  -3772.0167528 -0.448743E-05  0.333E-04   10.99       5.1  T
   5  -3772.0167528 -0.349232E-07  0.177E-04   10.99       9.5  T
   6  -3772.0167528 -0.154919E-07  0.666E-05   10.99      25.2  T
     SCC iter.                  ...        7 min, 23.731 sec
     gradient                   ...        4 min, 49.989 sec
 * total energy  : -3716.1699864 Eh     change    :  -0.5882057E-02 Eh
   gradient norm :     0.0495129 Eh/a0  converged?    E=F G=F D=F
   time step     :     1.0443120 fs     power     :   0.4468988E-07
   step length   :     0.3425008 a0     speed     :   0.7933164E-02

........................................................................
.............................. CYCLE   41 ..............................
........................................................................

 iter      E             dE          RMSdq      gap      omega  full diag
   1  -3772.0382400 -0.377204E+04  0.126E-02   11.01       0.0  T
   2  -3772.0382711 -0.311215E-04  0.777E-03   11.01       1.0  T
   3  -3772.0382692  0.186812E-05  0.177E-03   11.01       1.0  T
   4  -3772.0382741 -0.485852E-05  0.425E-04   11.01       4.0  T
   5  -3772.0382743 -0.164688E-06  0.225E-04   11.01       7.5  T
   6  -3772.0382743 -0.333016E-07  0.102E-04   11.01      16.4  T
     SCC iter.                  ...        7 min, 22.518 sec
     gradient                   ...        4 min, 49.181 sec
 * total energy  : -3716.1750048 Eh     change    :  -0.5018467E-02 Eh
   gradient norm :     0.0499640 Eh/a0  converged?    E=F G=F D=F
   time step     :     1.1487432 fs     power     :   0.2147151E-07
   step length   :     0.3751352 a0     speed     :   0.7899143E-02

........................................................................
.............................. CYCLE   42 ..............................
........................................................................

 iter      E             dE          RMSdq      gap      omega  full diag
   1  -3772.1062361 -0.377211E+04  0.140E-02   11.04       0.0  T
   2  -3772.1062443 -0.819317E-05  0.814E-03   11.05       1.0  T
   3  -3772.1062446 -0.309562E-06  0.992E-04   11.05       1.7  T
   4  -3772.1062457 -0.116418E-05  0.323E-04   11.05       5.2  T
   5  -3772.1062458 -0.295486E-07  0.159E-04   11.05      10.6  T
     SCC iter.                  ...        6 min,  7.820 sec
     gradient                   ...        4 min, 48.387 sec
 * total energy  : -3716.1790699 Eh     change    :  -0.4065122E-02 Eh
   gradient norm :     0.0474457 Eh/a0  converged?    E=F G=F D=F
   time step     :     1.2500000 fs     power     :   0.9364756E-08
   step length   :     0.3988873 a0     speed     :   0.7718898E-02
 * RMSD in coord.:     0.0597205 a0     energy gain  -0.1109251E+00 Eh

........................................................................
.............................. CYCLE   43 ..............................
........................................................................

 iter      E             dE          RMSdq      gap      omega  full diag
   1  -3772.1201759 -0.377212E+04  0.236E-03   11.05       0.0  T
   2  -3772.1201761 -0.269712E-06  0.136E-03   11.05       1.2  T
   3  -3772.1201761  0.859245E-08  0.201E-04   11.05       8.4  T
   4  -3772.1201762 -0.559876E-07  0.556E-05   11.05      30.2  T
     SCC iter.                  ...        4 min, 57.961 sec
     gradient                   ...        4 min, 48.792 sec
 * total energy  : -3716.1796596 Eh     change    :  -0.5896301E-03 Eh
   gradient norm :     0.0476718 Eh/a0  converged?    E=F G=F D=F
   time step     :     0.2500000 fs     power     :   0.2706897E-07
   step length   :     0.0730954 a0     speed     :   0.7072377E-02

........................................................................
.............................. CYCLE   44 ..............................
........................................................................

 iter      E             dE          RMSdq      gap      omega  full diag
   1  -3772.1333690 -0.377213E+04  0.227E-03   11.06       0.0  T
   2  -3772.1333696 -0.543551E-06  0.133E-03   11.06       1.3  T
   3  -3772.1333695  0.231535E-07  0.241E-04   11.06       7.0  T
   4  -3772.1333696 -0.707460E-07  0.501E-05   11.06      33.6  T
     SCC iter.                  ...        4 min, 59.623 sec
     gradient                   ...        4 min, 48.525 sec
 * total energy  : -3716.1805187 Eh     change    :  -0.8591591E-03 Eh
   gradient norm :     0.0441422 Eh/a0  converged?    E=F G=F D=F
   time step     :     0.2500000 fs     power     :   0.4128338E-07
   step length   :     0.0680029 a0     speed     :   0.6579651E-02

........................................................................
.............................. CYCLE   45 ..............................
........................................................................

 iter      E             dE          RMSdq      gap      omega  full diag
   1  -3772.1441919 -0.377214E+04  0.243E-03   11.07       0.0  T
   2  -3772.1441928 -0.868768E-06  0.146E-03   11.07       1.2  T
   3  -3772.1441928  0.124169E-07  0.271E-04   11.07       6.2  T
   4  -3772.1441929 -0.749969E-07  0.610E-05   11.07      27.6  T
     SCC iter.                  ...        4 min, 56.164 sec
     gradient                   ...        4 min, 49.915 sec
 * total energy  : -3716.1815223 Eh     change    :  -0.1003583E-02 Eh
   gradient norm :     0.0379596 Eh/a0  converged?    E=F G=F D=F
   time step     :     0.2500000 fs     power     :   0.4737779E-07
   step length   :     0.0642775 a0     speed     :   0.6219194E-02

........................................................................
.............................. CYCLE   46 ..............................
........................................................................

 iter      E             dE          RMSdq      gap      omega  full diag
   1  -3772.1509395 -0.377215E+04  0.268E-03   11.07       0.0  T
   2  -3772.1509406 -0.106677E-05  0.163E-03   11.07       1.0  T
   3  -3772.1509406 -0.476894E-08  0.283E-04   11.07       5.9  T
   4  -3772.1509407 -0.790455E-07  0.724E-05   11.07      23.2  T
     SCC iter.                  ...        5 min,  2.143 sec
     gradient                   ...        4 min, 50.038 sec
 * total energy  : -3716.1825075 Eh     change    :  -0.9851790E-03 Eh
   gradient norm :     0.0308496 Eh/a0  converged?    E=F G=F D=F
   time step     :     0.2500000 fs     power     :   0.4449184E-07
   step length   :     0.0615440 a0     speed     :   0.5954716E-02

........................................................................
.............................. CYCLE   47 ..............................
........................................................................

 iter      E             dE          RMSdq      gap      omega  full diag
   1  -3772.1518998 -0.377215E+04  0.287E-03   11.08       0.0  T
   2  -3772.1519008 -0.104341E-05  0.174E-03   11.08       1.0  T
   3  -3772.1519009 -0.196746E-07  0.277E-04   11.08       6.1  T
   4  -3772.1519009 -0.854161E-07  0.814E-05   11.08      20.7  T
     SCC iter.                  ...        4 min, 52.634 sec
     gradient                   ...        4 min, 51.407 sec
 * total energy  : -3716.1833379 Eh     change    :  -0.8304223E-03 Eh
   gradient norm :     0.0253525 Eh/a0  converged?    E=F G=F D=F
   time step     :     0.2500000 fs     power     :   0.3506324E-07
   step length   :     0.0593366 a0     speed     :   0.5741131E-02

........................................................................
.............................. CYCLE   48 ..............................
........................................................................

 iter      E             dE          RMSdq      gap      omega  full diag
   1  -3772.1451388 -0.377215E+04  0.320E-03   11.08       0.0  T
   2  -3772.1451398 -0.100193E-05  0.192E-03   11.08       1.0  T
   3  -3772.1451398 -0.228101E-07  0.295E-04   11.08       5.7  T
   4  -3772.1451399 -0.122055E-06  0.964E-05   11.08      17.4  T
     SCC iter.                  ...        5 min,  2.011 sec
     gradient                   ...        4 min, 47.460 sec
 * total energy  : -3716.1840044 Eh     change    :  -0.6665156E-03 Eh
   gradient norm :     0.0240574 Eh/a0  converged?    E=F G=F D=F
   time step     :     0.2750000 fs     power     :   0.2256547E-07
   step length   :     0.0628454 a0     speed     :   0.5527847E-02

........................................................................
.............................. CYCLE   49 ..............................
........................................................................

 iter      E             dE          RMSdq      gap      omega  full diag
   1  -3772.1299164 -0.377213E+04  0.328E-03   11.08       0.0  T
   2  -3772.1299173 -0.849386E-06  0.194E-03   11.08       1.0  T
   3  -3772.1299173 -0.256478E-09  0.320E-04   11.08       5.2  T
   4  -3772.1299174 -0.169609E-06  0.103E-04   11.08      16.3  T
     SCC iter.                  ...        5 min,  2.206 sec
     gradient                   ...        4 min, 49.413 sec
 * total energy  : -3716.1844987 Eh     change    :  -0.4942435E-03 Eh
   gradient norm :     0.0271737 Eh/a0  converged?    E=F G=F D=F
   time step     :     0.3025000 fs     power     :   0.1361593E-07
   step length   :     0.0655907 a0     speed     :   0.5244840E-02

........................................................................
.............................. CYCLE   50 ..............................
........................................................................

 iter      E             dE          RMSdq      gap      omega  full diag
   1  -3772.1083893 -0.377211E+04  0.316E-03   11.09       0.0  T
   2  -3772.1083901 -0.812908E-06  0.183E-03   11.09       1.0  T
   3  -3772.1083901  0.162900E-07  0.334E-04   11.09       5.0  T
   4  -3772.1083903 -0.178443E-06  0.971E-05   11.09      17.3  T
     SCC iter.                  ...        5 min,  0.026 sec
     gradient                   ...        4 min, 48.979 sec
 * total energy  : -3716.1849341 Eh     change    :  -0.4353796E-03 Eh
   gradient norm :     0.0309617 Eh/a0  converged?    E=F G=F D=F
   time step     :     0.3327500 fs     power     :   0.1171107E-07
   step length   :     0.0675077 a0     speed     :   0.4907386E-02

........................................................................
.............................. CYCLE   51 ..............................
........................................................................

 iter      E             dE          RMSdq      gap      omega  full diag
   1  -3772.0839633 -0.377208E+04  0.303E-03   11.09       0.0  T
   2  -3772.0839643 -0.943101E-06  0.173E-03   11.09       1.0  T
   3  -3772.0839643  0.129126E-07  0.331E-04   11.09       5.1  T
   4  -3772.0839644 -0.141023E-06  0.836E-05   11.09      20.1  T
     SCC iter.                  ...        5 min,  3.607 sec
     gradient                   ...        4 min, 48.502 sec
 * total energy  : -3716.1854619 Eh     change    :  -0.5278731E-03 Eh
   gradient norm :     0.0326216 Eh/a0  converged?    E=F G=F D=F
   time step     :     0.3660250 fs     power     :   0.1523819E-07
   step length   :     0.0694857 a0     speed     :   0.4591975E-02

........................................................................
.............................. CYCLE   52 ..............................
........................................................................

 iter      E             dE          RMSdq      gap      omega  full diag
   1  -3772.0605913 -0.377206E+04  0.309E-03   11.09       0.0  T
   2  -3772.0605924 -0.112450E-05  0.177E-03   11.09       1.0  T
   3  -3772.0605924  0.508408E-08  0.319E-04   11.09       5.3  T
   4  -3772.0605925 -0.973914E-07  0.700E-05   11.09      24.0  T
     SCC iter.                  ...        4 min, 58.069 sec
     gradient                   ...        4 min, 50.045 sec
 * total energy  : -3716.1861761 Eh     change    :  -0.7142065E-03 Eh
   gradient norm :     0.0312564 Eh/a0  converged?    E=F G=F D=F
   time step     :     0.4026275 fs     power     :   0.2007281E-07
   step length   :     0.0723891 a0     speed     :   0.4348957E-02

........................................................................
.............................. CYCLE   53 ..............................
........................................................................

 iter      E             dE          RMSdq      gap      omega  full diag
   1  -3772.0428003 -0.377204E+04  0.339E-03   11.09       0.0  T
   2  -3772.0428015 -0.116281E-05  0.197E-03   11.09       1.0  T
   3  -3772.0428015 -0.423506E-08  0.296E-04   11.09       5.7  T
   4  -3772.0428016 -0.755263E-07  0.624E-05   11.09      27.0  T
     SCC iter.                  ...        4 min, 54.605 sec
     gradient                   ...        4 min, 49.850 sec
 * total energy  : -3716.1870571 Eh     change    :  -0.8809721E-03 Eh
   gradient norm :     0.0274989 Eh/a0  converged?    E=F G=F D=F
   time step     :     0.4428903 fs     power     :   0.2214524E-07
   step length   :     0.0767215 a0     speed     :   0.4190211E-02

........................................................................
.............................. CYCLE   54 ..............................
........................................................................

 iter      E             dE          RMSdq      gap      omega  full diag
   1  -3772.0354623 -0.377204E+04  0.378E-03   11.10       0.0  T
   2  -3772.0354633 -0.949395E-06  0.222E-03   11.10       1.0  T
   3  -3772.0354633 -0.524142E-08  0.277E-04   11.10       6.1  T
   4  -3772.0354634 -0.991849E-07  0.763E-05   11.10      22.0  T
     SCC iter.                  ...        4 min, 58.805 sec
     gradient                   ...        4 min, 47.227 sec
 * total energy  : -3716.1879782 Eh     change    :  -0.9210899E-03 Eh
   gradient norm :     0.0235330 Eh/a0  converged?    E=F G=F D=F
   time step     :     0.4871793 fs     power     :   0.1957794E-07
   step length   :     0.0824350 a0     speed     :   0.4092962E-02

........................................................................
.............................. CYCLE   55 ..............................
........................................................................

 iter      E             dE          RMSdq      gap      omega  full diag
   1  -3772.0422032 -0.377204E+04  0.400E-03   11.10       0.0  T
   2  -3772.0422039 -0.770437E-06  0.236E-03   11.10       1.0  T
   3  -3772.0422039  0.226851E-07  0.312E-04   11.10       5.4  T
   4  -3772.0422041 -0.181137E-06  0.101E-04   11.10      16.6  T
     SCC iter.                  ...        5 min,  3.155 sec
     gradient                   ...        4 min, 48.059 sec
 * total energy  : -3716.1887955 Eh     change    :  -0.8173154E-03 Eh
   gradient norm :     0.0221684 Eh/a0  converged?    E=F G=F D=F
   time step     :     0.5358972 fs     power     :   0.1410206E-07
   step length   :     0.0887751 a0     speed     :   0.4007050E-02

........................................................................
.............................. CYCLE   56 ..............................
........................................................................

 iter      E             dE          RMSdq      gap      omega  full diag
   1  -3772.0616667 -0.377206E+04  0.387E-03   11.10       0.0  T
   2  -3772.0616679 -0.116733E-05  0.228E-03   11.10       1.0  T
   3  -3772.0616679  0.218356E-07  0.369E-04   11.10       4.6  T
   4  -3772.0616681 -0.205114E-06  0.115E-04   11.10      14.7  T
     SCC iter.                  ...        4 min, 57.862 sec
     gradient                   ...        4 min, 49.210 sec
 * total energy  : -3716.1894804 Eh     change    :  -0.6848736E-03 Eh
   gradient norm :     0.0237540 Eh/a0  converged?    E=F G=F D=F
   time step     :     0.5894869 fs     power     :   0.9923794E-08
   step length   :     0.0946241 a0     speed     :   0.3882781E-02

........................................................................
.............................. CYCLE   57 ..............................
........................................................................

 iter      E             dE          RMSdq      gap      omega  full diag
   1  -3772.0862989 -0.377209E+04  0.355E-03   11.11       0.0  T
   2  -3772.0863007 -0.173418E-05  0.209E-03   11.11       1.0  T
   3  -3772.0863007 -0.202454E-07  0.396E-04   11.11       4.2  T
   4  -3772.0863008 -0.134301E-06  0.109E-04   11.11      15.4  T
     SCC iter.                  ...        5 min,  2.374 sec
     gradient                   ...        4 min, 48.490 sec
 * total energy  : -3716.1901669 Eh     change    :  -0.6864749E-03 Eh
   gradient norm :     0.0259525 Eh/a0  converged?    E=F G=F D=F
   time step     :     0.6484356 fs     power     :   0.9899671E-08
   step length   :     0.1000069 a0     speed     :   0.3730597E-02

........................................................................
.............................. CYCLE   58 ..............................
........................................................................

 iter      E             dE          RMSdq      gap      omega  full diag
   1  -3772.1058466 -0.377211E+04  0.340E-03   11.11       0.0  T
   2  -3772.1058481 -0.145359E-05  0.200E-03   11.11       1.0  T
   3  -3772.1058481 -0.435707E-07  0.342E-04   11.11       4.9  T
   4  -3772.1058482 -0.804143E-07  0.931E-05   11.11      18.1  T
     SCC iter.                  ...        5 min,  8.890 sec
     gradient                   ...        4 min, 48.242 sec
 * total energy  : -3716.1910574 Eh     change    :  -0.8905356E-03 Eh
   gradient norm :     0.0260624 Eh/a0  converged?    E=F G=F D=F
   time step     :     0.7132792 fs     power     :   0.1334784E-07
   step length   :     0.1065043 a0     speed     :   0.3611792E-02

........................................................................
.............................. CYCLE   59 ..............................
........................................................................

 iter      E             dE          RMSdq      gap      omega  full diag
   1  -3772.1108118 -0.377211E+04  0.371E-03   11.11       0.0  T
   2  -3772.1108125 -0.750394E-06  0.217E-03   11.11       1.0  T
   3  -3772.1108126 -0.669334E-07  0.283E-04   11.11       5.9  T
   4  -3772.1108127 -0.798636E-07  0.995E-05   11.11      16.9  T
     SCC iter.                  ...        4 min, 54.687 sec
     gradient                   ...        4 min, 48.137 sec
 * total energy  : -3716.1922199 Eh     change    :  -0.1162454E-02 Eh
   gradient norm :     0.0226600 Eh/a0  converged?    E=F G=F D=F
   time step     :     0.7846071 fs     power     :   0.1591125E-07
   step length   :     0.1159194 a0     speed     :   0.3573708E-02

........................................................................
.............................. CYCLE   60 ..............................
........................................................................

 iter      E             dE          RMSdq      gap      omega  full diag
   1  -3772.0957389 -0.377210E+04  0.436E-03   11.11       0.0  T
   2  -3772.0957404 -0.148816E-05  0.253E-03   11.11       1.0  T
   3  -3772.0957405 -0.864234E-07  0.409E-04   11.11       4.1  T
   4  -3772.0957406 -0.138346E-06  0.121E-04   11.11      13.9  T
     SCC iter.                  ...        4 min, 59.466 sec
     gradient                   ...        4 min, 47.290 sec
 * total energy  : -3716.1934340 Eh     change    :  -0.1214118E-02 Eh
   gradient norm :     0.0200361 Eh/a0  converged?    E=F G=F D=F
   time step     :     0.8630678 fs     power     :   0.1337325E-07
   step length   :     0.1284473 a0     speed     :   0.3599938E-02

........................................................................
.............................. CYCLE   61 ..............................
........................................................................

 iter      E             dE          RMSdq      gap      omega  full diag
   1  -3772.0656815 -0.377207E+04  0.453E-03   11.11       0.0  T
   2  -3772.0656841 -0.259684E-05  0.261E-03   11.11       1.0  T
   3  -3772.0656842 -0.914638E-07  0.515E-04   11.11       3.3  T
   4  -3772.0656843 -0.152074E-06  0.123E-04   11.11      13.7  T
     SCC iter.                  ...        4 min, 56.876 sec
     gradient                   ...        4 min, 49.469 sec
 * total energy  : -3716.1945587 Eh     change    :  -0.1124755E-02 Eh
   gradient norm :     0.0228595 Eh/a0  converged?    E=F G=F D=F
   time step     :     0.9493746 fs     power     :   0.1102145E-07
   step length   :     0.1415245 a0     speed     :   0.3605863E-02

........................................................................
.............................. CYCLE   62 ..............................
........................................................................

 iter      E             dE          RMSdq      gap      omega  full diag
   1  -3772.0389675 -0.377204E+04  0.421E-03   11.12       0.0  T
   2  -3772.0389692 -0.174502E-05  0.242E-03   11.12       1.0  T
   3  -3772.0389693 -0.953683E-07  0.438E-04   11.12       3.8  T
   4  -3772.0389694 -0.120569E-06  0.117E-04   11.12      14.3  T
     SCC iter.                  ...        4 min, 59.174 sec
     gradient                   ...        4 min, 50.386 sec
 * total energy  : -3716.1959175 Eh     change    :  -0.1358738E-02 Eh
   gradient norm :     0.0217450 Eh/a0  converged?    E=F G=F D=F
   time step     :     1.0443120 fs     power     :   0.1373833E-07
   step length   :     0.1553248 a0     speed     :   0.3597705E-02

........................................................................
.............................. CYCLE   63 ..............................
........................................................................

[...]
  3284   6 C     3286   6 C                                       1.5361639
  3286   6 C     3287   6 C                                       1.5371406
  3287   6 C     3288   6 C                                       1.5267697
  3287   6 C     3289   6 C                                       1.5352211
  3289   6 C     3290   6 C                                       1.5362060
  3290   6 C     3291   6 C                                       1.5299505
  3290   6 C     3292   6 C                                       1.5343787
  3293   6 C     3294   6 C                                       1.5303328
  3293   6 C     3295   6 C                                       1.5346699
  3295   6 C     3296   6 C                                       1.5311527
  3296   6 C     3297   6 C                                       1.5292544
  3296   6 C     3298   6 C                                       1.5348263
  3298   6 C     3299   6 C                                       1.5332340
  3299   6 C     3300   6 C                                       1.5285888
  3299   6 C     3301   6 C                                       1.5359268
  3301   6 C     3302   6 C                                       1.5326973
  3302   6 C     3303   6 C                                       1.5280407
  3302   6 C     3304   6 C                                       1.5361973
  3304   6 C     3305   6 C                                       1.5320315
  3305   6 C     3306   6 C                                       1.5284663
  3305   6 C     3307   6 C                                       1.5347651
  3307   6 C     3308   6 C                                       1.5322326
  3308   6 C     3309   6 C                                       1.5281509
  3308   6 C     3310   6 C                                       1.5347218
  3310   6 C     3311   6 C                                       1.5347212
  3311   6 C     3312   6 C                                       1.5245448
  3311   6 C     3313   6 C                                       1.5352194
  3313   6 C     3314   6 C                                       1.5358135
  3314   6 C     3315   6 C                                       1.5273386
  3314   6 C     3316   6 C                                       1.5312565
  3316   6 C     3317   6 C                                       1.5358565
  3317   6 C     3318   6 C                                       1.5305856
  3317   6 C     3319   6 C                                       1.5382066
  3319   6 C     3320   6 C                                       1.5357939
  3320   6 C     3321   6 C                                       1.5268514
  3322   6 C     3323   6 C                                       1.5344022
  3323   6 C     3324   6 C                                       1.5272215
  3323   6 C     3325   6 C                                       1.5313589
  3325   6 C     3326   6 C                                       1.5345587
  3326   6 C     3327   6 C                                       1.5280151
  3326   6 C     3328   6 C                                       1.5327760
  3329   6 C     3330   6 C                                       1.5279172
  3329   6 C     3331   6 C                                       1.5333936
  3331   6 C     3332   6 C                                       1.5332072
  3332   6 C     3333   6 C                                       1.5286597
  3332   6 C     3334   6 C                                       1.5364875
  3334   6 C     3335   6 C                                       1.5307227
  3335   6 C     3336   6 C                                       1.5274491
  3335   6 C     3337   6 C                                       1.5365293
  3337   6 C     3338   6 C                                       1.5343312
  3338   6 C     3339   6 C                                       1.5277204
  3338   6 C     3340   6 C                                       1.5383958
  3340   6 C     3341   6 C                                       1.5378064
  3341   6 C     3342   6 C                                       1.5269780
  3341   6 C     3343   6 C                                       1.5352773
  3343   6 C     3344   6 C                                       1.5365911
  3344   6 C     3345   6 C                                       1.5291604
  3344   6 C     3346   6 C                                       1.5322196
  3346   6 C     3347   6 C                                       1.5349145
  3347   6 C     3348   6 C                                       1.5292709
  3349   6 C     3350   6 C                                       1.5335517
  3350   6 C     3351   6 C                                       1.5284842
  3350   6 C     3352   6 C                                       1.5339960
  3352   6 C     3353   6 C                                       1.5267290
  3353   6 C     3354   6 C                                       1.5223266
  3265   6 C     3355   1 H                                       1.0878073
  3265   6 C     3356   1 H                                       1.0882205
  3265   6 C     3357   1 H                                       1.0878800
  3354   6 C     3358   1 H                                       1.0870196
  3354   6 C     3359   1 H                                       1.0880044
  3354   6 C     3360   1 H                                       1.0885135
  3352   6 C     3361   1 H                                       1.0933896
  3352   6 C     3362   1 H                                       1.0933650
  3349   6 C     3363   1 H                                       1.0903819
  3349   6 C     3364   1 H                                       1.0928042
  3347   6 C     3365   1 H                                       1.0938002
  3348   6 C     3366   1 H                                       1.0882235
  3348   6 C     3367   1 H                                       1.0876906
  3348   6 C     3368   1 H                                       1.0880779
  3346   6 C     3369   1 H                                       1.0914713
  3346   6 C     3370   1 H                                       1.0938286
  3343   6 C     3371   1 H                                       1.0939434
  3343   6 C     3372   1 H                                       1.0933797
  3350   6 C     3373   1 H                                       1.0951178
  3351   6 C     3374   1 H                                       1.0883106
  3351   6 C     3375   1 H                                       1.0886432
  3351   6 C     3376   1 H                                       1.0873873
  3344   6 C     3377   1 H                                       1.0931052
  3345   6 C     3378   1 H                                       1.0870323
  3345   6 C     3379   1 H                                       1.0875219
  3345   6 C     3380   1 H                                       1.0871827
  3341   6 C     3381   1 H                                       1.0927194
  3342   6 C     3382   1 H                                       1.0870395
  3342   6 C     3383   1 H                                       1.0885107
  3342   6 C     3384   1 H                                       1.0870233
  3340   6 C     3385   1 H                                       1.0930685
  3340   6 C     3386   1 H                                       1.0922596
  3338   6 C     3387   1 H                                       1.0945265
  3339   6 C     3388   1 H                                       1.0870204
  3339   6 C     3389   1 H                                       1.0866837
  3339   6 C     3390   1 H                                       1.0880967
  3337   6 C     3391   1 H                                       1.0923477
  3337   6 C     3392   1 H                                       1.0942368
  3335   6 C     3393   1 H                                       1.0936196
  3336   6 C     3394   1 H                                       1.0887508
  3336   6 C     3395   1 H                                       1.0864111
  3336   6 C     3396   1 H                                       1.0871605
  3334   6 C     3397   1 H                                       1.0912559
  3334   6 C     3398   1 H                                       1.0924595
  3332   6 C     3399   1 H                                       1.0933319
  3333   6 C     3400   1 H                                       1.0879206
  3333   6 C     3401   1 H                                       1.0885893
  3333   6 C     3402   1 H                                       1.0872080
  3331   6 C     3403   1 H                                       1.0923381
  3331   6 C     3404   1 H                                       1.0933144
  3329   6 C     3405   1 H                                       1.0927255
  3330   6 C     3406   1 H                                       1.0884281
  3330   6 C     3407   1 H                                       1.0881164
  3330   6 C     3408   1 H                                       1.0878146
  3328   6 C     3409   1 H                                       1.0911966
  3328   6 C     3410   1 H                                       1.0922884
  3326   6 C     3411   1 H                                       1.0957230
  3327   6 C     3412   1 H                                       1.0864805
  3327   6 C     3413   1 H                                       1.0872676
  3327   6 C     3414   1 H                                       1.0863942
  3325   6 C     3415   1 H                                       1.0916386
  3325   6 C     3416   1 H                                       1.0939777
  3323   6 C     3417   1 H                                       1.0952481
  3324   6 C     3418   1 H                                       1.0878660
  3324   6 C     3419   1 H                                       1.0863113
  3324   6 C     3420   1 H                                       1.0890159
  3322   6 C     3421   1 H                                       1.0932873
  3322   6 C     3422   1 H                                       1.0917817
  3320   6 C     3423   1 H                                       1.0932253
  3321   6 C     3424   1 H                                       1.0882342
  3321   6 C     3425   1 H                                       1.0873438
  3321   6 C     3426   1 H                                       1.0862254
  3319   6 C     3427   1 H                                       1.0936788
  3319   6 C     3428   1 H                                       1.0939790
  3317   6 C     3429   1 H                                       1.0908343
  3318   6 C     3430   1 H                                       1.0879258
  3318   6 C     3431   1 H                                       1.0881309
  3318   6 C     3432   1 H                                       1.0880501
  3316   6 C     3433   1 H                                       1.0928308
  3316   6 C     3434   1 H                                       1.0945581
  3314   6 C     3435   1 H                                       1.0927343
  3315   6 C     3436   1 H                                       1.0885379
  3315   6 C     3437   1 H                                       1.0882655
  3315   6 C     3438   1 H                                       1.0856161
  3313   6 C     3439   1 H                                       1.0940808
  3313   6 C     3440   1 H                                       1.0944630
  3311   6 C     3441   1 H                                       1.0940998
  3312   6 C     3442   1 H                                       1.0866671
  3312   6 C     3443   1 H                                       1.0885219
  3312   6 C     3444   1 H                                       1.0864887
  3310   6 C     3445   1 H                                       1.0936299
  3310   6 C     3446   1 H                                       1.0934176
  3308   6 C     3447   1 H                                       1.0930979
  3309   6 C     3448   1 H                                       1.0888784
  3309   6 C     3449   1 H                                       1.0875801
  3309   6 C     3450   1 H                                       1.0868495
  3307   6 C     3451   1 H                                       1.0924976
  3307   6 C     3452   1 H                                       1.0934265
  3305   6 C     3453   1 H                                       1.0926504
  3306   6 C     3454   1 H                                       1.0873647
  3306   6 C     3455   1 H                                       1.0886153
  3306   6 C     3456   1 H                                       1.0891469
  3304   6 C     3457   1 H                                       1.0912439
  3304   6 C     3458   1 H                                       1.0940561
  3302   6 C     3459   1 H                                       1.0935864
  3303   6 C     3460   1 H                                       1.0890043
  3303   6 C     3461   1 H                                       1.0880801
  3303   6 C     3462   1 H                                       1.0874674
  3301   6 C     3463   1 H                                       1.0917616
  3301   6 C     3464   1 H                                       1.0941390
  3299   6 C     3465   1 H                                       1.0946222
  3300   6 C     3466   1 H                                       1.0860661
  3300   6 C     3467   1 H                                       1.0877849
  3300   6 C     3468   1 H                                       1.0878344
  3298   6 C     3469   1 H                                       1.0915676
  3298   6 C     3470   1 H                                       1.0932052
  3296   6 C     3471   1 H                                       1.0916931
  3297   6 C     3472   1 H                                       1.0885360
  3297   6 C     3473   1 H                                       1.0867371
  3297   6 C     3474   1 H                                       1.0881517
  3295   6 C     3475   1 H                                       1.0917478
  3295   6 C     3476   1 H                                       1.0940695
  3293   6 C     3477   1 H                                       1.0926217
  3294   6 C     3478   1 H                                       1.0883343
  3294   6 C     3479   1 H                                       1.0879966
  3294   6 C     3480   1 H                                       1.0882868
  3292   6 C     3481   1 H                                       1.0907231
  3292   6 C     3482   1 H                                       1.0929820
  3290   6 C     3483   1 H                                       1.0919465
  3291   6 C     3484   1 H                                       1.0882217
  3291   6 C     3485   1 H                                       1.0869491
  3291   6 C     3486   1 H                                       1.0885525
  3289   6 C     3487   1 H                                       1.0940101
  3289   6 C     3488   1 H                                       1.0938819
  3287   6 C     3489   1 H                                       1.0940056
  3288   6 C     3490   1 H                                       1.0861864
  3288   6 C     3491   1 H                                       1.0885347
  3288   6 C     3492   1 H                                       1.0869455
  3286   6 C     3493   1 H                                       1.0931339
  3286   6 C     3494   1 H                                       1.0930804
  3284   6 C     3495   1 H                                       1.0952117
  3285   6 C     3496   1 H                                       1.0876648
  3285   6 C     3497   1 H                                       1.0884865
  3285   6 C     3498   1 H                                       1.0863972
  3283   6 C     3499   1 H                                       1.0907936
  3283   6 C     3500   1 H                                       1.0929923
  3281   6 C     3501   1 H                                       1.0938206
  3282   6 C     3502   1 H                                       1.0862259
  3282   6 C     3503   1 H                                       1.0890292
  3282   6 C     3504   1 H                                       1.0872010
  3280   6 C     3505   1 H                                       1.0924076
  3280   6 C     3506   1 H                                       1.0938937
  3278   6 C     3507   1 H                                       1.0936111
  3279   6 C     3508   1 H                                       1.0878520
  3279   6 C     3509   1 H                                       1.0877346
  3279   6 C     3510   1 H                                       1.0864903
  3277   6 C     3511   1 H                                       1.0914095
  3277   6 C     3512   1 H                                       1.0926665
  3275   6 C     3513   1 H                                       1.0930010
  3276   6 C     3514   1 H                                       1.0881323
  3276   6 C     3515   1 H                                       1.0887045
  3276   6 C     3516   1 H                                       1.0865680
  3274   6 C     3517   1 H                                       1.0923515
  3274   6 C     3518   1 H                                       1.0944340
  3272   6 C     3519   1 H                                       1.0932832
  3273   6 C     3520   1 H                                       1.0885480
  3273   6 C     3521   1 H                                       1.0883551
  3273   6 C     3522   1 H                                       1.0862490
  3271   6 C     3523   1 H                                       1.0923889
  3271   6 C     3524   1 H                                       1.0938393
  3269   6 C     3525   1 H                                       1.0939586
  3270   6 C     3526   1 H                                       1.0866644
  3270   6 C     3527   1 H                                       1.0877931
  3270   6 C     3528   1 H                                       1.0884384
  3268   6 C     3529   1 H                                       1.0939087
  3268   6 C     3530   1 H                                       1.0941103
  3266   6 C     3531   1 H                                       1.0950455
  3267   6 C     3532   1 H                                       1.0868231
  3267   6 C     3533   1 H                                       1.0879372
  3267   6 C     3534   1 H                                       1.0881652
  3353   6 C     3535   1 H                                       1.0928543
  3353   6 C     3536   1 H                                       1.0914725

 * 2 distinct bonds (by element types)

   Z      Z             #   av. dist./Å        max./Å        min./Å
   1 H    6 C        2366     1.0903075     1.0974689     1.0838989
   6 C    6 C        1114     1.5324320     1.5400880     1.5223266


optimized geometry written to: xtbopt.xyz


           -------------------------------------------------
          | TOTAL ENERGY            -3716.258491386732 Eh   |
          | GRADIENT NORM               0.000724570917 Eh/α |
          | HOMO-LUMO GAP              11.219649484806 eV   |
           -------------------------------------------------

------------------------------------------------------------------------
 * finished run on 2024/06/24 at 23:24:46.940     
------------------------------------------------------------------------
 total:
 * wall-time:     4 d,  2 h, 10 min, 57.603 sec
 *  cpu-time:    21 d,  2 h, 16 min, 58.596 sec
 * ratio c/w:     5.157 speedup
 SCF:
 * wall-time:     0 d,  0 h,  9 min,  6.217 sec
 *  cpu-time:     0 d,  0 h, 46 min, 50.480 sec
 * ratio c/w:     5.145 speedup
 ANC optimizer:
 * wall-time:     4 d,  2 h,  0 min, 23.909 sec
 *  cpu-time:    21 d,  1 h, 28 min, 23.756 sec
 * ratio c/w:     5.158 speedup

