3258
 energy: -3427.546686764477 gnorm: 0.000996403233 xtb: 6.6.1 (8d0f1dd)
C          124.48469317427288      120.34643953239176      112.85039664751235
C          125.38673684405092      120.00147092116960      114.02890709767628
C          124.87674245076256      118.78864650558870      114.80469360677144
C          125.80513013159099      118.42043056334725      115.96030021037514
C          125.23111874556920      117.35168294930531      116.89125517889954
C          125.10176788873713      115.96980930124589      116.25230528610622
C          124.66269462134966      114.92271977929461      117.27414154779827
C          124.43710267640812      113.54602106774756      116.65194878390787
C          124.08726242947792      112.50483132870247      117.71315019665495
C          123.72000565765134      111.14664923917846      117.11845991766836
C          123.38208119552360      110.13856453901280      118.21604525762373
C          122.78744716436232      108.82452924041539      117.70631510362010
C          121.37320491666736      108.98265444994099      117.15076836677896
C          120.69994372133466      107.64112742260039      116.87301081940325
C          119.33175119182177      107.82309437280659      116.21998566709148
C          118.65357645671767      106.49136955505278      115.91243281765007
C          117.28743537104930      106.68014965398072      115.25580805454958
C          116.55577956137134      105.35369002374247      115.06622718579426
C          115.25755584704731      105.47770089453624      114.26853924803513
C          114.14875627589964      106.25262653097269      114.98128058623907
C          112.83949984471474      106.14403146869515      114.20271747913522
C          111.65413184268571      106.88314763934238      114.82859052933441
C          111.64150057043440      108.37027409558803      114.48708369686932
C          110.45688076509686      109.12821112576222      115.08797688487377
C          109.09962372080660      108.66733969523659      114.55600738915193
C          107.98454475793343      109.65064148813801      114.90809638685148
C          106.60073684653935      109.12688294792935      114.52965084452165
C          105.50853932534454      110.16407994246910      114.77928693644915
C          104.12484125968939      109.68153591102327      114.34938368008854
C          103.05549010426392      110.74503885502249      114.58684474418892
C          101.64600994170846      110.24235085083730      114.27848535302610
C          100.58478163460897      111.33070936291800      114.45644046605909
C          100.53007451783570      112.30193662954221      113.27957781910963
C           99.59822956490069      113.49079137805874      113.51364912298165
C          100.06866620985936      114.39240831839012      114.65404813590837
C           99.42633111994533      115.77746291515469      114.60857479746007
C           99.74512869955130      116.61496420264332      115.84748112889822
C          101.22154317954643      116.98748882604573      115.96513906059755
C          101.52882619076938      117.69666327918907      117.28153877506131
C          103.02971589661357      117.88960540968083      117.48888936881313
C          103.35517186827589      118.40900894679937      118.88951765378644
C          104.81519304361042      118.19442241483540      119.28878278809536
C          105.79706454480150      119.07183840840018      118.51759972254494
C          107.24426817394173      118.71821008048180      118.84962984958418
C          108.24544200112963      119.55870334700471      118.06327097166357
C          109.68702302056138      119.11784872746087      118.30124990943752
C          110.67774771705020      119.96627505151120      117.50970763975440
C          112.11260418828758      119.46168664077250      117.63074694612929
C          113.09693219149415      120.35088858561851      116.87544587414276
C          114.51515904557905      119.78929106555789      116.90133988322418
C          115.51815257440732      120.71244143878461      116.21528334416774
C          116.90431513945229      120.07998134710958      116.13867726070744
C          117.95176275011843      121.02208133193945      115.55233783983050
C          119.30368941785360      120.32990720653525      115.39990914638966
C          120.37496305523516      121.20388047058556      114.75090733908645
C          120.79830744541917      122.38924287233441      115.61719873060295
C          122.03230934464216      123.11192617089119      115.07474110515516
C          121.78674458020822      123.76133834805822      113.71540604894855
C          123.00719882771519      124.52647883025337      113.20989993967457
C          122.71565425752387      125.33609199110683      111.94587307479048
C          122.34613050697772      124.47331652454899      110.74220939326995
C          122.01954186423401      125.31740832725112      109.51342465891980
C          121.55797198639371      124.45344502881626      108.34377432569666
C          121.11599327896576      125.28434031329628      107.14377069583394
C          120.65647673805577      124.39934748450179      105.98850795257952
C          120.24316090846875      125.19149542635508      104.74972815219736
C          118.93727686012863      125.96009263119973      104.92927074013623
C          118.53354445495734      126.69069351820143      103.65177377104602
C          117.14027610322887      127.30174855485288      103.76147129368047
C          116.71429891184020      128.01455091043911      102.48060788009104
C          115.24814605347734      128.43388738177592      102.53091379695672
C          114.79434076236826      129.09102057105403      101.23071349177276
C          113.34955308885580      129.58700831436539      101.28215931717614
C          112.32185414184295      128.45963722825121      101.35461466117840
C          110.89488907008506      128.99827952388731      101.29414183478912
C          109.85157522982142      127.88440864664777      101.30593234066660
C          108.43672425582334      128.42966297899071      101.13011519324121
C          107.39903930201129      127.31496496484885      101.02993602036921
C          106.00309408662110      127.86257971654949      100.74072756247222
C          104.95506318579174      126.77388631283971      100.50608053433010
C          105.14173449527134      126.02409097130398       99.18745119266156
C          103.98949652241308      125.05592637758376       98.93238057041043
C          104.13808013207399      124.25383816954479       97.63820438520391
C          105.15762180005076      123.12095124818248       97.74487552202419
C          105.17390656869888      122.25335742268089       96.48644187781862
C          105.93024626211620      120.93516324059514       96.66442066502024
C          107.45083650592437      121.08725390800387       96.68225015992759
C          108.16148190857504      119.81970922530175       97.16024096684798
C          107.96962315857976      118.61480308322670       96.24040021641082
C          108.57442498603464      117.35101609495176       96.84575039975606
C          108.31432695741101      116.10313107515073       96.00407258369900
C          108.71493931806474      114.83531117005481       96.75466498146307
C          108.34124756360642      113.55236220341247       96.01548419410780
C          108.63974663365119      112.31874482298386       96.86535192044167
C          108.20344173448585      111.01417794199385       96.20218174405632
C          108.44731051899906      109.81660049278508       97.11796854941343
C          108.03991274769828      108.48645179354028       96.48813907645399
C          108.24514401755860      107.32420753211998       97.45754836595380
C          107.86581968813563      105.97018949190469       96.86191292932743
C          108.03260292340383      104.84478659917755       97.88106297413229
C          107.64528412752627      103.47478858180263       97.32889481112203
C          107.80974231708582      102.37895013171477       98.37987736576844
C          107.44671530424398      100.99152186069510       97.85636539948381
C          107.59167554379552       99.92520696273245       98.94084118909429
C          107.26881817869078       98.52442500349895       98.42520912792955
C          107.35919753317305       97.43974848361270       99.50215448375150
C          106.23089479565522       97.52187677835430      100.52873939772813
C          106.24089278023045       96.35688119989126      101.51871863441671
C          105.01034601086016       96.39630346013345      102.42214874264582
C          104.92352543042500       95.22743065061118      103.40246498253346
C          103.59043564037111       95.25417587413034      104.14954701789962
C          103.39058079775847       94.10705239455109      105.14126107754318
C          104.25745407352719       94.23166227852239      106.39214528400605
C          103.85958012570190       93.23467177402179      107.47740505352287
C          104.73328933888989       93.36686353241326      108.72321849071047
C          104.27232717182470       92.44084742646270      109.84593701164222
C          105.15484074851483       92.54737748803342      111.08731481743033
C          104.65812782980795       91.65088513001962      112.21869686430459
C          105.55691748160929       91.72107989885623      113.45032241098053
C          105.03982196010497       90.83911847826697      114.57961027010163
H          106.56641900747277       91.40622243083602      113.17677743163546
H          105.61573961585471       92.75446471297363      113.79722775219486
H          103.64426090956538       91.94920793919010      112.49688535032004
H          104.61113768571109       90.61757834653217      111.86622353190687
H          106.17886366937938       92.26820343168401      110.82749893546583
H          105.17238254366234       93.58362881255583      111.43168091117947
H          103.24207442450989       92.68831015762960      110.11487023967926
H          104.27744650833507       91.40860530856953      109.48770741382781
H          105.76954789931494       93.13621539850202      108.46421800273697
H          104.70315624295816       94.40026903398005      109.07587614489702
H          102.81471635502373       93.40130133603233      107.75256824379539
H          103.93713455526920       92.21772374138442      107.08570026831099
H          105.30521123439809       94.07360510768021      106.13151050991796
H          104.15814416153033       95.24262918912895      106.79404464425879
H          102.34088587509709       94.09856628040885      105.44767913339861
H          103.59448215378710       93.15479622301254      104.64650724832632
H          103.50210511637380       96.20204620998672      104.68380668255313
H          102.78441530852675       95.21856829108847      103.41164598959500
H          105.01347704067015       94.28600212212375      102.85555339571918
H          105.75293723551513       95.28300656850310      104.10883147537385
H          105.01464823731760       97.33325262318401      102.98473944851598
H          104.11576418551007       96.39498683566600      101.79360279593605
H          106.25318638781516       95.41318200496265      100.96831570583502
H          107.14807093194504       96.39710178923586      102.12634270419603
H          106.30135221928927       98.45849850604110      101.08478685107494
H          105.27477743762074       97.52442370976247       99.99919192533532
H          107.31428024842943       96.46221107529182       99.01525978740347
H          108.32319695076430       97.50965187394719      100.00976041503115
H          106.26303672731395       98.51879500241188       97.99765364509400
H          107.96621260105667       98.27919883359417       97.61975553120885
H          108.61451550360383       99.93844206250041       99.32225022317618
H          106.92487963787850      100.17520898136318       99.76752115408514
H          106.41614310021228      100.99970715001858       97.49338430530135
H          108.09110996866266      100.74389036767626       97.01024395312676
H          108.84429729891683      102.36990430974164       98.73071567603540
H          107.17464520727604      102.61162433672732       99.23785344424807
H          106.60618676897951      103.50028411706022       96.99404053862526
H          108.26478013907150      103.24361831787320       96.45902494891659
H          109.07106693062516      104.81729599411274       98.21987572311473
H          107.40973724488185      105.06108983822806       98.75231659453728
H          106.82755831237633      106.00127144524278       96.52507066786768
H          108.49131209675967      105.76797651068496       95.98921413527511
H          109.29128315711070      107.29693468868534       97.76991026234322
H          107.64180888040990      107.49845324887919       98.35169829307078
H          106.98941751244928      108.53153069113607       96.19334087620636
H          108.63076499428233      108.31784246268214       95.58540288002679
H          109.50691925832331      109.77654404347825       97.38108107398983
H          107.88832549939966      109.95917088918202       98.04600349789500
H          107.14074982559059      111.07169912865336       95.95788563755787
H          108.75186819820716      110.87899288850795       95.26820539143128
H          109.71173650741696      112.27535445623849       97.07559325373033
H          108.12505134671284      112.41781288594605       97.82443618650781
H          107.27570109375868      113.57367892189208       95.77794341524367
H          108.88967955670135      113.49473973969715       95.07329677069525
H          109.79181911501571      114.85014520570263       96.93908725911209
H          108.21622896845727      114.83373579471130       97.72755515527570
H          107.25157644980546      116.05392146815508       95.75993348155617
H          108.86291239238733      116.16537255149291       95.06182818036186
H          109.64986166659945      117.48398269459017       96.98289586738544
H          108.13730728053592      117.20123394446233       97.83636272762934
H          106.90439481612312      118.44218243528786       96.08067801552954
H          108.42592920119763      118.81698477000182       95.26927059788501
H          109.23094519206958      120.02438604520741       97.25471483364157
H          107.78927748848788      119.56654631673015       98.15646745481334
H          107.80298635863473      121.35151750978005       95.68253087526597
H          107.72130842992115      121.90234733434590       97.35595362978148
H          105.60981936573215      120.46984061394897       97.59903868983601
H          105.65028947827464      120.26661674832660       95.84798275907910
H          104.13961036029512      122.01930499826189       96.21865425150202
H          105.60544889258395      122.81548820215032       95.65524985632378
H          106.15039069439271      123.53345648698055       97.92545680086013
H          104.89614959827050      122.49561505782214       98.60137396143740
H          103.16667850544593      123.81967443775591       97.38552641275901
H          104.41713465901708      124.92521889496308       96.82288170982497
H          103.91109050828965      124.36411060580147       99.77328506851781
H          103.05916285077720      125.62844448536318       98.88884237733259
H          105.19435622493110      126.74487072804067       98.36792661817258
H          106.08116540377655      125.47083052917520       99.20375344211040
H          104.97863752100339      126.06137650126828      101.33424868457051
H          103.96539605709151      127.23809024751333      100.50417873709699
H          105.68854348266537      128.48241071069452      101.58423431692704
H          106.04500184080692      128.50783989824896       99.85945955152565
H          107.69738168522056      126.63204732110457      100.23277779275514
H          107.38267522365983      126.74691175634334      101.96215620402633
H          108.19063296083898      129.08596426705111      101.96813942602981
H          108.40087415377086      129.03251193057650      100.21914525904926
H          110.06760762054041      127.18616129613059      100.49385566631558
H          109.91624357100612      127.33010797907824      102.24520813467362
H          110.72321119025963      129.66661543459077      102.14128305202757
H          110.77440694613885      129.58755344151126      100.38155835947111
H          112.48414791325813      127.77144405433742      100.52175544762314
H          112.45117830644018      127.89397964732743      102.27879717637126
H          113.22619560249694      130.24524348694959      102.14505927981169
H          113.15143112884390      130.17945862636643      100.38520866100289
H          115.44964537258127      129.93951046416572      101.01872313771533
H          114.90289684831960      128.37913103307145      100.40864603308601
H          114.63935891227915      127.54912224767145      102.72442891479926
H          115.09785943361450      129.13033109609071      103.35845146046628
H          117.34533795056117      128.89167155862620      102.32106759955734
H          116.86252727446579      127.34789588493845      101.62760330824167
H          116.42420729440049      126.50602088370273      103.98088010760200
H          117.11281657171205      128.00647454620704      104.59580077405919
H          119.26318916774453      127.47220201544815      103.42836665439104
H          118.54333242610413      125.98187703434462      102.82107962661081
H          118.14616137140254      125.25917505036264      105.20469434728523
H          119.03630661031391      126.68395358496053      105.73969019452066
H          121.04029810194565      125.88826068271023      104.48476612719763
H          120.11965424680672      124.49639916623990      103.91462443936341
H          121.47505956500514      123.72597657473571      105.72066302014599
H          119.81665572400540      123.78325426183771      106.31860932156953
H          120.30326606611196      125.94485249145026      107.45098543889092
H          121.94617517438598      125.91142123022505      106.80987402990488
H          122.37132196539011      123.79011190788457      108.04196647495448
H          120.72563277530999      123.82558664224254      108.66987544887037
H          121.22951548823022      126.02768149891050      109.76822132933536
H          122.89836873037683      125.89572885638256      109.21829332379420
H          123.17118904288044      123.79528774260270      110.51161490360896
H          121.47261544252231      123.86480746518991      110.98097865360309
H          121.89535759887869      126.02738195988991      112.14980632972625
H          123.59615676221931      125.93387741505975      111.69633606849483
H          123.34512028637842      125.21099508162408      113.99234318246650
H          123.82027584384845      123.82301157792205      113.01529551709257
H          121.52626292157024      122.98877081215805      112.99238071366865
H          120.94040386836015      124.44796218659133      113.79372923506284
H          122.32976674700464      123.88442225727509      115.78865228805796
H          122.86050871452002      122.40377824582876      114.99303956663859
H          119.97547481280429      123.10334510564310      115.69332441864607
H          121.01793374888081      122.02759746937177      116.62530525575684
H          121.25378719027646      120.58383900275633      114.55314182093142
H          120.00038349457525      121.56218838206021      113.79059274550991
H          119.65505379592983      120.00439020211563      116.38225054713580
H          119.16861660811568      119.43614052921065      114.78674540627104
H          117.61500982502706      121.37224090422346      114.57390337094922
H          118.05190423828009      121.89254521530030      116.20372999721364
H          117.21355657558584      119.77705797407418      117.14174315083076
H          116.85113524399218      119.17749970599735      115.52598512950429
H          115.16830458427356      120.94144118876660      115.20583473658988
H          115.57652620487949      121.65513653018309      116.76470380026373
H          114.82454440531953      119.63044124403376      117.93743027685140
H          114.52444132312598      118.81610677758383      116.40512129608790
H          112.76981771153220      120.44833965628170      115.83844157625694
H          113.09243337148922      121.35121985421104      117.31493526124123
H          112.39830918604481      119.41962487503558      118.68485069152483
H          112.17092158723773      118.44406837425072      117.23738886363813
H          110.38874317371373      119.96281059753677      116.45689953615327
H          110.62601092395768      120.99846462294109      117.86244344391096
H          109.91909598638438      119.18611797913552      119.36705227690403
H          109.79567853849474      118.07017820524685      118.01101888115682
H          108.02264790607353      119.47619478999248      116.99785151170246
H          108.13722477431315      120.60855422235042      118.34137846229507
H          107.41363827148243      118.85690305847379      119.91991873129788
H          107.41152967850276      117.66175175904679      118.62593597472242
H          105.63634111487085      118.94387691043225      117.44760426463500
H          105.61335999937512      120.12252768523027      118.75253510038304
H          104.92430839501625      118.39463020419961      120.35695399244979
H          105.07319006930157      117.14428260289229      119.12875686192167
H          103.10498854415813      119.47035272876174      118.95588466593500
H          102.72502998162436      117.87727682078756      119.60795888621770
H          103.52630914697511      116.92590271213541      117.34604110874537
H          103.41575812615903      118.57442943948944      116.73214248090710
H          101.02440191548962      118.66385599463460      117.30940306567855
H          101.13150789264651      117.09508320512880      118.10410002440392
H          101.82942599999178      116.08242549425530      115.91515024325379
H          101.50553071382835      117.62766420537662      115.12663591915040
H           99.14864417322816      117.52944502253101      115.82164776058823
H           99.44934856104646      116.05336808825741      116.73724871051371
H           99.76405185689690      116.30705970326585      113.71380201260561
H           98.34275025495215      115.66160245805476      114.53248112183444
H           99.82983018589923      113.92893752160460      115.61337746190921
H          101.15383155705476      114.49137881982270      114.59131743817312
H           99.55647046786250      114.08180645105847      112.59534429024627
H           98.58601443343770      113.13259886138722      113.71650161073313
H          101.53081021132235      112.68361943991411      113.06886221111650
H          100.19360624817874      111.75774117165321      112.39364770682838
H           99.60201490702963      110.86731043074471      114.56814941300190
H          100.80126353446377      111.87680248943462      115.37471461681007
H          101.60778425546376      109.86320050561116      113.25599700005343
H          101.42318442633355      109.40753548037122      114.94862916823135
H          103.09693476740081      111.06728325192955      115.62986319665076
H          103.28102066852192      111.61666821183093      113.96883533442852
H          104.14433566604808      109.42153208647943      113.28785241049016
H          103.86514885827336      108.77629779393025      114.90295182849208
H          105.48365949580614      110.41209964774585      115.84175906131719
H          105.75484906694690      111.08020378294080      114.23637560571477
H          106.60049583768631      108.85163886323798      113.47489598842110
H          106.38429743193777      108.22303090731029      115.10587849774217
H          108.01241653825943      109.85799190403254      115.98103070120865
H          108.16173561980926      110.59575071159355      114.38854990273242
H          109.15665702943991      108.56729206731980      113.46914558381384
H          108.85474139117662      107.68559945817871      114.96553066653156
H          110.47305039809309      109.02440782936857      116.17578664853598
H          110.57680795091977      110.19060970906355      114.85668038362081
H          112.56487686630918      108.82215400468012      114.84829428234362
H          111.62049823861574      108.48633914039566      113.40061193110300
H          110.73131994781599      106.43107166924156      114.45927883627324
H          111.67042398494334      106.75922953031530      115.91355109838830
H          112.99609029396463      106.52473299931444      113.19206036666819
H          112.58900557452125      105.08568434570158      114.11790923470743
H          114.01194327455684      105.84337158996011      115.98510366551376
H          114.43235330836841      107.30014024063247      115.08224418185360
H          115.47090783336277      105.95460268661616      113.30843756125729
H          114.88942904522631      104.47028345508468      114.05561116583098
H          117.21726987758557      104.66167166025630      114.53901510821028
H          116.33670631699911      104.91544708538507      116.04339996733972
H          116.68707632849066      107.34552678043043      115.87725448346326
H          117.41781423812149      107.16109320341383      114.28343447010018
H          119.29701925343652      105.90374358450909      115.25317628466222
H          118.53395700941800      105.92984779785041      116.84202521988566
H          118.69166194595813      108.40926050628902      116.88368751623696
H          119.44866399412207      108.38872670466748      115.29181722258863
H          121.33749048509561      107.04194114698979      116.22006259011016
H          120.58267113123159      107.09176038134028      117.81006656125459
H          120.76293944370117      109.54155200739018      117.86496235387975
H          121.40425560047433      109.55905965173551      116.22488206253070
H          123.43583576172665      108.40170468807325      116.93557443648578
H          122.75729592492361      108.11535182620734      118.53778197807888
H          124.29185063314564      109.92024746553565      118.78099566828095
H          122.67252198076494      110.59656244317171      118.90749748101609
H          122.86137796142334      111.27759290312960      116.45864776752128
H          124.54877954210731      110.76927194175154      116.51511033615311
H          124.93433739257874      112.38555139265004      118.39318551436324
H          123.24298666886608      112.87174305712941      118.30209958555535
H          123.62562432592604      113.60847086984366      115.92246141453079
H          125.33887073600170      113.23532356746337      116.11888781678978
H          125.42289969516186      114.84322104595741      118.05540402902652
H          123.73602670052134      115.25289154732603      117.75053474389543
H          124.37275117027994      116.00172794383529      115.44161291686861
H          126.06324852661336      115.67647422237980      115.82426710714785
H          125.88163061089092      117.26957543279860      117.76599939937815
H          124.24892344015714      117.67854539629234      117.24175549522711
H          126.76274996740784      118.07808084016527      115.56091369585288
H          125.99886592387784      119.32052609051426      116.54979090230815
H          123.88127442865316      119.00821846092890      115.19905939276266
H          124.78848316486267      117.94317072881522      114.11959055949971
H          126.39583943966556      119.79645818831671      113.66361547964814
H          125.44918403568377      120.85990572024279      114.70244884265303
H          124.86395246825340      121.21804783750299      112.32162882048107
H          124.43857623782567      119.51529194845622      112.15029178391327
H          123.47409232757174      120.56415942304947      113.18958907026176
H          104.04490839680598       91.15571087783530      114.88579329251927
H          104.98342229570565       89.80084103343759      114.25961238793818
H          105.69870890661937       90.89599127473726      115.44291584227034
C           96.99682087149664      107.50339475137319      102.27728825720908
C           96.92444545368440      108.19362294050465      103.63382754270535
C           95.85624651442819      109.28429845463123      103.65972420685470
C           95.75984325105405      109.96534014079718      105.02259777739116
C           94.64788601144038      111.01175903139594      105.06107208803381
C           94.62842488613663      111.83333740294340      106.35040070111677
C           94.31186001495760      111.01517568919840      107.60008941179328
C           94.26119849561546      111.89554725384205      108.84743633759361
C           94.13266555225830      111.07462914591122      110.12898731951033
C           94.30368970431461      111.92829045350589      111.38397033070957
C           94.37006288635176      111.07796741885949      112.65206794254827
C           94.86916098274182      111.85265982854254      113.87208267314969
C           93.88042488182239      112.89862881676473      114.38116107282374
C           94.35403492858690      113.57763690849396      115.66847048620859
C           95.52361760213067      114.53228501812634      115.43758667302399
C           95.92974852477811      115.31251371699787      116.68869343800954
C           96.66687472283148      114.46102348735067      117.71913873790854
C           97.10953672640078      115.28248551384149      118.92917950314980
C           97.91161766895705      114.43474112887270      119.91363727851163
C           98.29297537445309      115.16330213982417      121.20297655747515
C           99.29899599878819      116.29746793576992      121.00978226770835