3536
 energy: -3716.246589541128 gnorm: 0.000857256370 xtb: 6.6.1 (8d0f1dd)
C           59.06162180968897       61.10111853340420       59.77743584314858
C           60.07838711262840       59.96455044985557       59.70659858851691
C           59.35441846554843       58.62305077583046       59.78562282700043
C           61.11400576069839       60.10204617038627       60.82909158321060
C           62.35928746723910       59.22793185777758       60.63623551305403
C           63.06718421541902       59.00839132202346       61.97156547757294
C           63.33854286532475       59.83449535985238       59.62005651348567
C           64.14371645072950       58.76302274147277       58.87012408883738
C           65.47575810334045       59.32917625766276       58.38425934261964
C           63.33200415908577       58.21167127671174       57.68946820441160
C           63.65832581714432       56.75865982469240       57.31371047294772
C           63.24264221518911       56.49519547112082       55.86748898868583
C           62.93335352871407       55.80724549200982       58.27183135684128
C           63.41506489138138       54.35035126750577       58.26965902013080
C           62.34976118140047       53.49950616594189       58.96454561711380
C           64.78212531344461       54.20938937702406       58.96227828938052
C           65.74742922915712       53.23117428814397       58.28487550905842
C           65.19582146852142       51.80827062695285       58.27370816560055
C           67.11544332926144       53.21589405038851       58.98247189479732
C           68.00581534954580       54.45520773560165       58.80741525156697
C           68.28600644271943       54.72389433307521       57.33201404268129
C           69.30695995464754       54.20548162530013       59.58667407987203
C           70.34424201340303       55.33747835284655       59.60191356127866
C           71.65559110439661       54.78745525237128       60.16556111436343
C           69.86197163898566       56.54006429881530       60.42064663375420
C           70.67171621402194       57.82250791825634       60.18466835965802
C           70.33523984347077       58.84997332094793       61.26547008614738
C           70.42393741306962       58.41267511779230       58.78226476212360
C           71.65827870307636       58.43245819941777       57.87208341042625
C           72.71345985245317       59.39698479076713       58.41443183044748
C           71.28239275966412       58.86380364409083       56.44634091690159
C           70.52640026338996       57.82123858703412       55.61427005232468
C           71.47461373472494       56.73331957482650       55.11226929239830
C           69.82149838054377       58.48515554355169       54.42178744130241
C           68.52926559207440       59.23044709062324       54.77882311608593
C           67.41516757686978       58.24081455868571       55.12371967859935
C           68.05859939760852       60.12614653035335       53.62287542085368
C           68.96626355541405       61.30167067258201       53.23804098822390
C           69.31759558105783       62.17067405988542       54.44505490341982
C           68.28193504595525       62.18635103282551       52.18349308637207
C           68.00745061218905       61.53950293906298       50.82121428554021
C           69.30705580588348       61.08278757500317       50.15899758773579
C           67.29124529564996       62.53060756782500       49.88958617382766
C           65.80130358671323       62.75868126428726       50.17415463660088
C           64.98249394403094       61.52887692436950       49.78324046897414
C           65.27068834000106       63.96789059523226       49.38602696213548
C           65.74512141923728       65.34474329741333       49.86217080667573
C           65.21994994875047       65.65268397198975       51.26468275129486
C           65.27316744933599       66.46961409811165       48.92586154252470
C           65.68264587491740       66.38238564396420       47.44898280469833
C           67.19929774062692       66.24459042376488       47.30980690953817
C           65.19649482781739       67.62753560330499       46.67875388746623
C           63.91737424576999       67.44731554311134       45.84543174133000
C           63.70438125811258       68.70884024276492       45.00767408307733
C           62.70711838949995       67.15032152632061       46.73808432217680
C           61.33349909425693       67.11129987991603       46.04940622191545
C           60.26624415428729       66.84481455775470       47.10992079452721
C           61.30392395558087       66.04633768825946       44.94817413474419
C           59.95144103287699       65.80926791301042       44.25862285202311
C           60.11873113552139       64.67569259420627       43.25016544769651
C           59.44901032291468       67.08687869894263       43.57743774256679
C           58.09515176462379       66.99839125177955       42.85272509163191
C           57.80917400374675       68.35994581775907       42.21852302635297
C           56.98355565941910       66.57149739397562       43.82102506896307
C           55.53992004854860       66.66404292411789       43.30113605421806
C           54.58939268029390       66.24315854621018       44.42112976055675
C           55.34370228573901       65.79639632655972       42.05260897730098
C           53.92705713966996       65.75808273829871       41.45502942597398
C           53.95186455015918       64.84113806778834       40.23147339646165
C           53.43838310255050       67.16379485181669       41.08741638308401
C           52.01171407241058       67.24375503049343       40.52550902464751
C           51.78946503398007       68.63008487343390       39.91790897291483
C           50.94034300682484       66.94697146572778       41.59532821278462
C           50.00810646381813       65.77656704571301       41.26003725514051
C           49.24961213944164       66.02205574679898       39.95458690117479
C           48.96644070934504       65.53442850747120       42.36485057606506
C           49.48953124910580       65.27903567503542       43.78433880446867
C           50.43910449557418       64.08638936412621       43.81941108644359
C           48.30749683798371       65.04145397469678       44.74887805733900
C           48.02855530171755       66.16234832182320       45.76316690385676
C           47.66666115776230       67.47117783078022       45.06384397562316
C           49.20105354070427       66.34371450343669       46.73667840294439
C           48.85625103828453       67.10427736576072       48.02315087279460
C           50.14288628265400       67.47037787305010       48.76637466184866
C           47.81667021813387       66.39912779716101       48.91782090566161
C           47.93133861196484       64.88583137599980       49.15551455833390
C           46.65599161435394       64.39956016223937       49.84896169397786
C           49.17078826067508       64.44546082915511       49.94351517117680
C           49.24003578300293       64.94202260602040       51.38547640410362
C           50.61879921127471       64.70036739976702       51.98587967384046
H           58.53148571131494       61.07864779826632       60.72767259898440
H           59.55363590906116       62.06538308169748       59.68007821665802
H           58.33366053025009       61.00938417307260       58.97466286187587
H           51.36739312358903       65.29900096051325       51.47105309833069
H           50.63176543305461       64.96862820765467       53.04051604299994
H           50.89932284914278       63.65319967466386       51.89559993622382
H           49.18859001888144       63.35221850488747       49.95736315687785
H           50.06389801430137       64.77040661340327       49.41029501054700
H           47.80459801799631       66.91124979570188       49.88286704139492
H           46.83236337410920       66.56941852978230       48.47126631318604
H           48.39151802391073       68.05621523197077       47.73539096322175
H           50.75217544062411       66.59829731942197       48.97975233677813
H           50.73796602554633       68.14815850594361       48.15783502608785
H           49.91700122237888       67.96997105002333       49.70543293558933
H           49.59994621935984       65.36288528749886       46.99975212310064
H           50.00060112569122       66.88985010077126       46.23065773532257
H           47.39714596158186       64.87512099233308       44.16751641030954
H           48.48861421127826       64.12429542034644       45.31393129541360
H           47.97815661057821       64.38848980187167       48.18044287215925
H           45.79092011605054       64.53399126403575       49.20198852696913
H           46.73441616640294       63.34331514994999       50.09693644107903
H           46.47709296593883       64.95648379336474       50.76608916072239
H           47.15334702020272       65.84128184520672       46.33904023750270
H           48.51107851366439       67.85808478090162       44.49835818193927
H           46.83537136434230       67.31691700115890       44.37858130694197
H           47.36734975360730       68.22719147133186       45.78621082254332
H           50.04215236576885       66.15975555118099       44.11925407798968
H           51.31253973948614       64.25626098774885       43.19634207202236
H           50.77803847516184       63.91329174945725       44.83694572105537
H           49.93313507880827       63.19160768115081       43.46267682539467
H           48.29974172944089       66.39986175299460       42.39530687512556
H           48.36474731952373       64.67066659095478       42.06641019500130
H           50.61245626670622       64.87184082123392       41.13685737567629
H           49.92340986448400       66.12891303322472       39.10846853999601
H           48.58070894923565       65.18926269043294       39.74545932696829
H           48.64978658354252       66.92739522398699       40.02895207507230
H           51.43708703295682       66.73210859335248       42.54158961971523
H           50.32746174984998       67.83837146305795       41.75037923482392
H           51.92656971471573       66.51488475279639       39.71669210638638
H           51.91096815754128       69.40261402894305       40.67548729299189
H           52.50446835822129       68.82193974181628       39.11980384797665
H           50.78755910740745       68.71089963967333       39.50253276382285
H           53.48464915319739       67.80370783057877       41.97068755671781
H           54.12676988052185       67.57824936953484       40.34484643426249
H           53.24214376801337       65.32419488482961       42.18996851491952
H           52.94928005649136       64.65337212199387       39.85530674972338
H           54.53773180215174       65.28791381772251       39.43056257906294
H           54.40051366454068       63.88337098932185       40.48485311426087
H           56.02147894331844       66.14444682494701       41.27023591772031
H           55.63406951584876       64.77184571788393       42.30193494742240
H           55.33329292676230       67.70860449953183       43.05433260071257
H           53.55182944852130       66.39510925093057       44.13640941023436
H           54.72977971234111       65.19277075099166       44.66639645219136
H           54.77517642317487       66.83246976757655       45.31621552369194
H           57.16532144277443       65.53883099999030       44.12614494290629
H           57.05733120215215       67.19484648815697       44.71650575469428
H           58.17235381358485       66.26236299403843       42.04704079427512
H           56.92819872034242       68.32908605370012       41.58341958621678
H           57.65088505673269       69.11130579078872       42.98924012223576
H           58.65202616797801       68.67659221981957       41.60642471335804
H           59.36791682560852       67.87592750635397       44.32726739650065
H           60.20368423294722       67.40354775824160       42.85055837566411
H           59.22713219636349       65.49173332693896       45.01192078830746
H           60.49804918052992       63.78114766511242       43.73864385603452
H           59.17188412919194       64.42779309864321       42.77889217695429
H           60.82311825615563       64.96504728705575       42.47255186330249
H           62.03124624303917       66.31523462839962       44.17847968349491
H           61.62995218329360       65.10068842671946       45.38845359738425
H           61.13798850823527       68.09412796957204       45.61132054125063
H           60.36930609875066       65.83608759912303       47.50291125770043
H           60.36616989257888       67.54899659432972       47.93427241181229
H           59.26890326810953       66.95402263290627       46.69389177783916
H           62.86551624774665       66.18471811433159       47.22304943156050
H           62.66916893025039       67.91478429338707       47.51970029816702
H           64.07557754494604       66.60246458195751       45.16641783078695
H           62.88358789841167       68.58594400960347       44.30627617201881
H           63.48246974697855       69.55813864253898       45.65112735339714
H           64.60108890241273       68.94073452494953       44.43600289225881
H           65.04610190975932       68.45489112410755       47.37674575649303
H           65.98695048818449       67.93598911215292       45.99028965858540
H           65.21818311467943       65.50206834788115       46.99467928344595
H           67.70254118943018       67.07937245955361       47.79436508471390
H           67.55317504640377       65.32097852241515       47.76053045394298
H           67.48751887711728       66.23510177625036       46.26028360974269
H           64.18492692782151       66.52195849432289       48.98457283620489
H           65.66429476499069       67.41086487414074       49.32414640985360
H           66.83840472704183       65.36134873075618       49.90206905409647
H           65.51810845426517       66.65279308324355       51.57300011314186
H           64.13323900550431       65.59919799796671       51.28541772086692
H           65.61290815484061       64.95114342346011       51.99418771992845
H           65.56105841480566       63.82881786082125       48.34368223195560
H           64.17848039557998       63.95888957907884       49.42592160993886
H           65.66014197800281       62.93606866521948       51.24377853179906
H           65.30363807841911       60.64683553463249       50.33151886824322
H           63.92918115725422       61.69316074749378       49.99556482429284
H           65.08639525468990       61.33046483620097       48.71862739272986
H           67.82348066215808       63.48325903548839       49.94160990288884
H           67.38025224949416       62.16617276477702       48.86374241869369
H           67.36943625737392       60.66293873099624       50.96010838740231
H           69.77793269286566       60.28413092233004       50.72686127285490
H           69.11019984273662       60.71128667517090       49.15530560310111
H           70.00899577663375       61.91161115331150       50.08154088225330
H           67.33784485270584       62.53957015046519       52.60464116552344
H           68.91119737790923       63.06600328877657       52.01563993705965
H           69.90177204105878       60.91989228479425       52.81875279442830
H           68.41274606522947       62.49967374794164       54.94997568203065
H           69.93920048139945       61.62919207698382       55.15345412664453
H           69.86948034866514       63.05406652985067       54.12752827763004
H           67.92226771328737       59.49377626427624       52.74350939681673
H           67.08061598479425       60.53566521921498       53.88836403296553
H           68.70077202529268       59.85376028799332       55.66088227647489
H           66.48550164266199       58.76727372444198       55.32662903867235
H           67.24492588773447       57.55099462534771       54.30063120460908
H           67.66851434444507       57.65669565066793       56.00422768396511
H           70.52831429950135       59.17486322052228       53.95613025069559
H           69.57928522895702       57.71910252825201       53.68072738158190
H           69.77079236347008       57.34487857934155       56.24270828629782
H           72.00883051163734       56.26740247984724       55.93713290699247
H           70.92097810618017       55.95751276704627       54.58764414930818
H           72.20769197726280       57.15346616221071       54.42600591710525
H           70.67801802159468       59.77007917906624       56.52536143393049
H           72.19497884289618       59.13081739369273       55.90604182689200
H           72.09418323537973       57.42784722255968       57.84199252323213
H           73.61034168934843       59.36904623216792       57.79841611503414
H           72.32797832739143       60.41488655857132       58.41202450457491
H           72.99726801619488       59.14394547682999       59.43272834534181
H           69.63056618233665       57.84720652444388       58.29295770934115
H           70.06575621138943       59.43826049894803       58.88187296079700
H           71.73241050825237       57.57534615783035       60.28507100500938
H           70.57499641080534       58.46316075483680       62.25417916137604
H           70.90192167021338       59.76584338157653       61.11416610099619
H           69.27536167531973       59.09449464085702       61.24264906880304
H           68.81637329794054       56.74783862064572       60.18610279148670
H           69.91139824650953       56.27652184140069       61.48085098203449
H           70.53559952701981       55.66203005942982       58.57622728441403
H           72.01672797275587       53.96140233231597       59.55588828714854
H           72.42870376893920       55.55158325814488       60.18439276336549
H           71.51100665583218       54.42343873684255       61.18128509440086
H           69.05184430343571       53.96572034875302       60.62311047791436
H           69.78422389274878       53.31892275246025       59.15835572577397
H           67.49599991526703       55.32512334929299       59.23309506617300
H           68.70868591153329       53.83919163524409       56.85945650296683
H           67.37605951458207       54.99875723334603       56.80688953111032
H           68.99324002797030       55.53910410905680       57.21229424661480
H           66.95467747743189       53.04846914847123       60.05177857893847
H           67.67776264185231       52.35631782400937       58.60446967589775
H           65.88192066548712       53.53938827661486       57.24497925636813
H           64.26207579579879       51.75984979062685       57.72354459609485
H           65.90130786277734       51.13345936780907       57.79291439605567
H           65.02230531564734       51.45536862518455       59.28775258284059
H           65.26444330835065       55.18722291725366       59.00098225528835
H           64.62307690813731       53.88702709838621       59.99188504343644
H           63.50867718592666       54.01145126657736       57.23266672944910
H           61.43689562215928       53.47330583915396       58.37243312071342
H           62.68814004458991       52.47919014237675       59.11563207991469
H           62.10890964163750       53.92253900656751       59.93824952100369
H           63.02109006675346       56.18532377045572       59.29358676507080
H           61.87120889366603       55.82166674565322       58.01125980700946
H           64.74005621276466       56.60419548114612       57.39388037696136
H           63.42381562583203       55.46020531980253       55.58776796159899
H           62.18339198820944       56.70279233649979       55.73303025887815
H           63.80468592094673       57.13281501375727       55.18755843384959
H           62.26655511552391       58.26850113235876       57.92157892257870
H           63.50662839229030       58.85744495534335       56.82669847766131
H           64.36283417775687       57.94686750579154       59.56756154263284
H           66.03046507960312       58.58196939526246       57.82232088108051
H           65.31236531668065       60.19071743410290       57.73939519276999
H           66.08951894675396       59.64502534611256       59.22587522136097
H           62.80019443138762       60.44098880126360       58.88850834380583
H           64.02222328948066       60.50292503529906       60.14942528523313
H           62.03834428282290       58.24993642049009       60.26604871974591
H           62.42497308476543       58.47423854192280       62.66834491837637
H           63.97570393915601       58.42675753455873       61.82950913224443
H           63.33597339214308       59.96295903993772       62.42027717570787
H           61.42832786273120       61.14625585431247       60.90951140129499
H           60.63178906138535       59.83675060270786       61.77338507992748
H           60.59099702593804       60.02594863237314       58.73963562381797
H           58.63758124057208       58.53026423681433       58.97295385369523
H           60.05103948116913       57.79232475843290       59.71256598271668
H           58.81868355211750       58.53724429193345       60.72912092123418
H           49.01994419801395       66.00900628456807       51.42932199065653
H           48.49018393036290       64.42026867300179       51.98366061981510
C           50.86799536704902       44.86970041147246       72.50057882665757
C           50.85046394835791       45.66255451017125       71.19420316257255
C           49.72515287049805       45.13629477821979       70.30235286710119
C           52.19996807827324       45.58058911654290       70.45940985329133
C           53.16492857793282       46.76117876810314       70.65087748069195
C           53.61728671884604       46.90830486994675       72.10325649143650
C           52.61445784417292       48.10599704184423       70.15829567926627
C           52.15642078703927       48.15732174194773       68.69729593337740
C           53.28463467603719       47.76341221247744       67.74350292163837
C           51.67332768342028       49.56718541188113       68.32505688671274
C           50.50770431503690       50.13667840787028       69.14202085445291
C           49.30275053655586       49.19522912030587       69.14111842335694
C           50.06812143570223       51.49624672031097       68.57894856902666
C           51.09906103657704       52.63336102455447       68.62114375128226
C           51.58239018583352       52.89237435068070       70.04602488435036
C           50.45274934549919       53.89265169608726       68.02595438577710
C           51.41740065482294       55.02035161839419       67.63166528873796
C           50.62077968787155       56.31299326887872       67.46329228783729
C           52.16109264879189       54.67722514825302       66.33428602505830
C           53.31984137720803       55.63013139571852       65.98588014240187
C           53.24666160657583       56.03179528985201       64.51278376133915
C           54.69547915317445       55.01200258147519       66.26468991508911
C           54.99804783574594       54.69253757050734       67.73465771662823
C           55.13545573156132       55.97191729032094       68.55420575438153
C           56.28498032040005       53.86041692854947       67.79951552635131
C           56.79091503266667       53.48151640789656       69.19791291653658
C           58.11674507988884       52.73868677570424       69.04841702772394
C           55.75330703388642       52.64598263190539       69.95557086620738
C           56.14070937472349       52.20413518667295       71.37522932683243
C           55.04132986201204       51.29055156095887       71.91788028358499
C           56.34951140113495       53.41349144528540       72.29407934632366
C           57.00186177676422       53.11742209176132       73.65212244522122
C           56.82479135626571       54.33705264648935       74.55763776620658
C           58.49179845754734       52.78906122413198       73.48858048054748
C           59.16596044817606       52.17926677515312       74.73134352255124
C           60.53891334515645       52.81847200673730       74.95232813659345
C           59.34897939240679       50.65899121179626       74.61122037258201
C           58.06119564876380       49.83700316674083       74.51385142039291
C           57.24493211787258       49.95160781403668       75.80414086870299
C           58.33001552983679       48.34304688200808       74.26407696881368
C           58.85822374363003       47.88633912986506       72.88785449011746
C           60.38071011361689       47.96744516806360       72.76629464413961
C           58.16149369900370       48.61011395340601       71.73047225037045
C           58.21595865977534       47.85412188404377       70.39603141635740
C           57.91597505669255       48.81324972672966       69.24602877042867
C           57.22254787804614       46.68434020052580       70.38311245615398
C           57.63190410138769       45.53454014450874       69.45296514317705
C           56.41541125767739       44.67093672133443       69.12484034884734
C           58.74054917815349       44.69774716299331       70.10203207851244
C           59.50608358375091       43.77379383604458       69.14659805107621
C           60.49684870694580       42.93005362573985       69.95005723161030
C           60.23179671626148       44.56107845223000       68.03892141725086
C           59.60742344334129       44.38563900722158       66.64885087474204
C           59.94103688073591       43.00041413462518       66.09440268995658
C           60.10931511422031       45.45289692106017       65.66773768531266
C           59.52461928165518       46.86196900158973       65.83999804088967
C           58.04274180636655       46.89679674561921       65.46656698529050
C           60.31194538498580       47.86479190291704       64.97206112605443
C           61.09308308954510       48.93733931871868       65.74287486778883
C           61.70330107186052       49.91424221246321       64.73828796101118
C           62.18128021876635       48.30923869012049       66.62134335645808
C           62.92017615530419       49.27994779860221       67.55393403091190
C           64.15607976970938       48.58491015521635       68.12658237006002
C           62.01363595032721       49.77529096391378       68.68849674666662
C           62.45799011702885       51.10474266409103       69.31890647604520
C           61.81257972081292       51.25958442952532       70.69475459640100
C           62.08559475615338       52.27237305746830       68.39758446746315
C           62.56573480637810       53.66885101350039       68.82146354373135
C           61.99285765043347       54.69324375659984       67.84283522076180
C           64.09807692424475       53.72293170992027       68.86186654727508
C           64.73692339224263       55.08199542225030       69.18502893289619
C           66.25043417614481       54.96277348228998       68.99535476712538
C           64.39240928932321       55.53261677923470       70.60953789662253
C           64.82419864847400       56.96207239051676       70.97613404792799
C           64.82014171489402       57.11781243506858       72.49725064020802
C           63.90619005871157       57.99316677933261       70.30763723926673
C           64.35138452185383       59.46028893787803       70.40802509456890
C           63.20663610075502       60.35609123353758       69.93582535264416
C           65.61218818770743       59.70899802550680       69.57230339897554
C           66.31434219217395       61.06053788551846       69.77522377215458
C           67.40445298927635       61.19576012726460       68.71257665635770
C           66.89439413954493       61.16385473164849       71.19118079439166
C           67.70177847787113       62.43026351179470       71.51527760786175
C           68.31968673289806       62.27053457297838       72.90520504676400
C           66.81998769725364       63.68209637833404       71.43898640000089
C           67.52924606282787       65.01751655534814       71.70258645321704
C           66.50077673122726       66.14966505927320       71.68524226007159
C           68.69098549097588       65.30267439571840       70.73827362494139
C           68.31574491802091       65.38875629917044       69.26024792139108
C           69.54654695189197       65.60250800787773       68.38671622196264
H           51.65875626553587       45.21379530230914       73.16054793843267
H           49.91830206183443       44.97518853398521       73.02231299317357
H           51.02738425172243       43.81198790662199       72.29749647310528
H           70.04973932942747       66.52998308231123       68.65237397767868
H           70.25379475761618       64.78465293459290       68.51313210156786
H           69.26665413689547       65.65229915834217       67.33692754229847
H           69.15201145225377       66.24953032341671       71.03426440185105
H           69.45150648262957       64.52810184802618       70.86259668425923
H           66.35300252698615       63.73066668227922       70.45484579904306
H           66.01482353482804       63.57823286537134       72.17209261646281
H           68.51741317926658       62.51791189625564       70.79346692227185
H           68.99965356479336       63.08762711902956       73.13095830818131
H           67.54301034145017       62.24791311163698       73.66747973807929
H           68.88314669457428       61.34135621259686       72.96518221788786
H           66.07858982629224       61.09661564123637       71.91439977205231
H           67.54436471973209       60.29843140825280       71.35111811085685
H           66.34403747207119       58.92616175827045       69.78164698271516
H           65.33537001428948       59.62252693286930       68.51907238371433
H           67.95805693506001       64.98699336784237       72.71071402531476
H           65.77443205132630       66.01138130213121       72.48359142674761
H           66.98786795580349       67.11140801636360       71.83148762283926