3864
 energy: -5104.202035814154 gnorm: 0.000842404682 xtb: 6.6.1 (8d0f1dd)
C           61.89065418636256       52.09171789432565       63.98815808468836
C           62.92461227544538       52.62051748853764       63.22675759675388
C           62.60296500547658       53.46108735364420       62.17006608750167
C           61.28619957550930       53.77141979426479       61.88486344131207
C           60.26486107585277       53.23764297489602       62.64902947408504
C           60.57272599834474       52.39131156903848       63.69864396568521
C           64.36380210147135       52.24938668869291       63.48334958443990
C           64.77512626739326       52.51618488291771       64.93159773150109
C           64.55636135059235       50.77523109810532       63.09253443238514
C           66.01450042273618       50.35254841113029       62.85694813387666
C           66.05810724499317       48.85017642756890       62.74468927223319
C           65.48154758165064       48.18990861913335       61.66583344362381
C           65.53266723295397       46.81176731885527       61.57359415779001
C           66.15802582153101       46.07344896568222       62.56259532469796
C           66.71619487512814       46.71612141189943       63.65159645685905
C           66.66370682614705       48.09519160628256       63.73954780607740
C           66.59225941731995       51.04289849009454       61.61285226145800
C           67.90800584735045       50.42916621384932       61.11832100422360
C           68.88889873156438       50.22224723602296       62.24432519561116
C           69.24940528294601       51.26811317158135       63.08650274246074
C           70.15499496776155       51.07256512122468       64.11317887078715
C           70.72157357258789       49.82470973623392       64.31238973867075
C           70.37626304342473       48.77757980994201       63.47575767718504
C           69.46795921912603       48.97695675954045       62.45094323775800
C           68.57484489509004       51.29561997595756       60.03603413251714
C           67.68784381099100       51.56630802946090       58.80899033349563
C           66.77756369174391       52.75338491514639       59.01027371319512
C           67.29395474292429       54.01474414601419       59.28638957486720
C           66.45884942773959       55.10663551507849       59.44335860664403
C           65.08762337307877       54.95635348162195       59.32578228962530
C           64.55980059784655       53.70879354373120       59.04143866101477
C           65.39999542270641       52.62092700882391       58.88452756743569
C           68.55988257089862       51.79612915763680       57.56248206376054
C           67.71388591197199       52.02293029233470       56.30221152636876
C           66.82429761858704       50.83234464688218       56.03700373084782
C           67.33916763109784       49.54487255471215       55.93630220241568
C           66.50021669792410       48.45641460823686       55.77203607086623
C           65.12947977401093       48.63795801335363       55.69803667655884
C           64.60724430803768       49.91790677973110       55.75297830478253
C           65.45010081074265       51.00263040916334       55.91782895638642
C           68.57493360695202       52.33207803571980       55.06713360305941
C           69.45886537073861       53.58737645433736       55.19740446494615
C           70.20889725381959       53.79178820144602       53.90478576255742
C           71.55876878196186       53.47041075798747       53.83566449474167
C           72.27193263064025       53.62828067137416       52.66073877856572
C           71.64263570851766       54.11435909306037       51.52832988901200
C           70.29827907802510       54.43923184988707       51.58451374788451
C           69.58733038159252       54.27582977585925       52.75981340075022
C           68.63614708167123       54.81796783187093       55.60267721933135
C           69.42562687961804       56.13647059169849       55.56428618845548
C           70.81463592580252       55.97327074746866       56.12625502536388
C           71.92637175741015       56.30055301353406       55.36187343875591
C           73.20577531329798       56.15611127971422       55.86948211902011
C           73.39363411613503       55.67865898897323       57.15476130554497
C           72.29297909935268       55.35150471867028       57.92904035566802
C           71.01693072837213       55.50118896019253       57.41839938183868
C           68.69634004784294       57.23999685593449       56.35102527154746
C           67.29654541871025       57.55449889637254       55.81168682475354
C           67.32564171893294       58.00010988052652       54.37234268923902
C           66.56307504245649       57.33969122175711       53.41775016204522
C           66.50796561004562       57.79196468385798       52.11235333993694
C           67.22571546039323       58.91292297322079       51.73541937384062
C           68.01178086020997       59.56481401959071       52.67030465319339
C           68.05845352664512       59.11310963153035       53.97665463303852
C           66.61080839800628       58.63147254239129       56.66791167114785
C           65.12458646821752       58.78376254499410       56.29932021819360
C           64.62715947247359       60.17645698850110       56.58877678457762
C           64.69689527739956       60.71666272465713       57.86781077149039
C           64.22134244942286       61.98980943827189       58.12644275368727
C           63.66719374166893       62.74635804581202       57.10762319666379
C           63.59934753061985       62.22276741263611       55.82793987308958
C           64.07706538439444       60.94920918091812       55.57315736423212
C           64.26773617913834       57.74347095986041       57.03430691505476
C           62.81264786355680       57.75110419259374       56.55164098197707
C           62.71039500397997       57.48213947266439       55.07158612360585
C           63.29611669745098       56.35801039899086       54.50040340595655
C           63.19850943860885       56.12023039769289       53.14165582825348
C           62.49220951385171       56.99003696984173       52.32917906791310
C           61.88839244950047       58.10126127541775       52.88951891656910
C           62.00413561824320       58.34752491221379       54.24672124597321
C           61.96436942555637       56.73244377874785       57.33017559080693
C           60.46033363289986       57.01046948710543       57.17428321389909
C           59.64298793694282       55.76720470686971       57.41454223605314
C           58.94805350617690       55.17729879333085       56.36689578315625
C           58.16390049113133       54.05690494592733       56.57857724775064
C           58.05684209141818       53.51058865511834       57.84526028132098
C           58.75157782610594       54.08504622464275       58.89683495050642
C           59.54205209572987       55.19929453483926       58.67914494381834
C           60.01294008800301       58.14162666467062       58.11132789030562
C           58.50628022292506       58.39647385577347       58.02011560616766
C           58.06327591272309       58.69792074594353       56.60906382489147
C           56.95985460875129       58.03482044636159       56.08628320756943
C           56.50456317742501       58.30274276743587       54.80914552797728
C           57.16060632635079       59.23033974182788       54.01929609672589
C           58.26327695697558       59.89676614518766       54.52461550755594
C           58.70239409937341       59.64008472723916       55.81197347982509
C           58.05847231322306       59.53467358614831       58.95150050349081
C           58.17365403963200       59.24662665501001       60.46194507081016
C           57.61292180722969       60.44182996250996       61.19300858199132
C           56.25107658063055       60.72322008414856       61.18418510518984
C           55.75394334633946       61.83845435309834       61.83311360108167
C           56.61073313113870       62.69865654993468       62.49870291293904
C           57.96904056720130       62.43256629020065       62.51012385459031
C           58.46244243293530       61.31363248828353       61.86201305158238
C           57.47434120800287       57.93778644264897       60.85623328791234
C           57.32758945071748       57.74277191957346       62.37366495745893
C           58.64859007866772       57.89581689160817       63.08190993927545
C           58.82633606746895       58.89462045052613       64.03063325579208
C           60.02899801653364       59.02973343443657       64.70172198606261
C           61.07540423277974       58.16303492628806       64.43583275249492
C           60.91175807649298       57.16474157434658       63.49059787881242
C           59.70950267173772       57.03706148313113       62.81995809650647
C           56.72080257027029       56.36011609908994       62.65752069762817
C           56.45575713061522       56.12615692348402       64.15175350812491
C           55.38715140621144       57.06131536074728       64.65780145946854
C           55.68033169263726       57.99197804645431       65.64628924038341
C           54.71285426009950       58.86503124426902       66.11182837536582
C           53.43074366643957       58.82125779465485       65.59321984019232
C           53.12421447227902       57.89536547257914       64.61185889393531
C           54.09311909726316       57.02433094289594       64.15016244916602
C           56.08109215706910       54.66029731980240       64.40988658132041
C           55.94910929825168       54.33351711388870       65.90268095139241
C           57.24877204952378       54.55452013822685       66.63127730284106
C           58.38290889247816       53.82437331451302       66.29804308476098
C           59.57777730927512       54.02053944188862       66.96490200425123
C           59.65313642230870       54.94300661330706       67.99503911974111
C           58.52690177937006       55.66721022857668       68.34660652776098
C           57.33625883921984       55.47506244393354       67.66695431136502
C           55.47375877216972       52.88020186791851       66.09540710302791
C           53.94249520207595       52.76678106470831       66.13332954299509
C           53.47598550751665       51.37725867908065       65.78077719723207
C           54.00476611402476       50.26596775241237       66.42890814693799
C           53.55178976504707       48.99195255019136       66.14213916106407
C           52.54505026882958       48.80483302937947       65.20947874288461
C           52.00830535276815       49.90048726467335       64.55725531426576
C           52.47809534613495       51.17282642576535       64.83679248151171
C           53.43266976380161       53.14124839680738       67.53362003503314
C           51.91682953019587       53.40189135557085       67.57313879794944
C           51.60384505623472       54.87773353510168       67.59632571459534
C           52.12698605169109       55.69963482934239       68.58896402994786
C           51.80969983450085       57.04410602235985       68.63924817969571
C           50.95377071654586       57.59316039975761       67.69968359561662
C           50.42491240225445       56.78785980058935       66.70764625474308
C           50.75111470728366       55.44370636266380       66.65826680065400
C           51.26770195425495       52.72873485356823       68.79435803792407
C           51.12521578655495       51.20579311317136       68.62652606927357
H           64.98575432811958       52.86971084523177       62.83063539576352
H           64.14088092338392       50.14121865734020       63.87945101898561
H           63.98742480700970       50.58267315911161       62.17864811179036
H           66.61340257473464       50.63787382576201       63.72776493062750
H           65.85825664003404       50.98828474405005       60.81012975736378
H           66.75316389223798       52.09910642021950       61.83388171351541
H           67.68863934522027       49.44850416709422       60.68144655554738
H           68.89118306964059       52.24075872376363       60.48010196394855
H           69.47974415777919       50.77403361855445       59.71180945739547
H           67.07093547381064       50.67953897486387       58.62656924088093
H           69.21140021744490       50.93266389858891       57.41613859961274
H           67.05870224139952       52.88013563638173       56.48338980506172
H           69.22225441314399       51.47851216520110       54.85020255813284
H           67.91030473219242       52.45673927277144       54.20858231229092
H           70.20660619322102       53.40153639185117       55.97435440185204
H           67.77750769292649       54.90561570628003       54.93688838296193
H           68.26134740924030       54.66835337854574       56.61618195911648
H           69.51837202462042       56.45968817742953       54.52182702338961
H           68.60422441999005       56.93098858330199       57.39436350108042
H           69.31013408177441       58.14343308722211       56.33151460247258
H           66.69439562301328       56.64468172865121       55.88102108241376
H           65.02403328562880       58.61388775274331       55.22199178749800
H           64.70159250138633       56.75214716673675       56.89778061496352
H           64.28136639898713       57.96533393453719       58.10364750897605
H           62.41337880282221       58.75305523188550       56.74366046422995
H           62.18953530170894       55.72746667881181       56.96507353331783
H           62.23130056219063       56.76816790555694       58.38878560577711
H           60.28214288216392       57.32520900185702       56.13992455513686
H           60.26460598238319       57.88206510988807       59.14117303430073
H           60.55821892798112       59.05587187356580       57.86958280796124
H           57.98883099625245       57.48249148602715       58.32563580092154
H           58.64467259861177       60.43159667863267       58.73046542617098
H           57.01565070266623       59.77307709967502       58.72762054428382
H           59.23259524362424       59.16172283783047       60.72871531864562
H           56.48114491070958       57.90828405313590       60.40793507405800
H           58.04661680165193       57.10079765357342       60.45339941654673
H           56.64205783371781       58.50566894958222       62.75980233474792
H           55.78729007455529       56.26471087340531       62.10069137136338
H           57.40194909429968       55.58770177504339       62.29601414338851
H           57.38420506991636       56.33516957150657       64.69641683035212
H           55.13307606194451       54.42915571978212       63.92232408964606
H           56.84785019023855       54.02121043470325       63.96817680160414
H           55.20297505133635       55.01128205460624       66.33165852466354
H           55.86579891444805       52.26038714946077       65.28625248374709
H           55.87645231911134       52.49743448942697       67.03497903141563
H           53.52054597100211       53.47311395556562       65.40986914213271
H           53.69032322750314       52.33890849646949       68.22788825616944
H           53.96392461764747       54.03093283753723       67.87369515493616
H           62.11861760134219       51.43846488872880       64.81834831273656
H           59.78154036129644       51.95344917086607       64.28905186835094
H           59.23310423688255       53.47467600923966       62.43226040379290
H           61.06424204949528       54.42327839945433       61.05436577737585
H           63.39632866020433       53.87297846166125       61.56195648286866
H           64.99307246982053       48.75916835997922       60.88893552433735
H           65.08949946562954       46.30757087539223       60.72718311278701
H           66.21868305026385       44.99786870898066       62.48480479851420
H           67.19938983003661       46.14387636676197       64.43096779193735
H           67.11179966185971       48.59261327738366       64.58910082480088
H           68.81520018182958       52.24734694992088       62.94512253987778
H           70.42089982131458       51.89527056648669       64.76210046086592
H           71.42802314034527       49.67078404329978       65.11538457259186
H           70.81377010362644       47.80051422539406       63.62392601859181
H           69.19862719636592       48.15129579975210       61.80635876452121
H           68.36224875962934       54.14975299843986       59.38710728480093
H           66.88001141197606       56.07869307896478       59.66064480447053
H           64.43582878037373       55.80704113163357       59.45739227413708
H           63.49175602729456       53.57807263971224       58.94424922613953
H           64.97694335247084       51.65250362581491       58.65953354263959
H           69.19937882031181       52.66176643192215       57.73548412430643
H           68.40584231154401       49.38130367462337       55.99907175497442
H           66.92039927795652       47.46283986327389       55.71936839775473
H           64.47051155220103       47.78721549176145       55.60398654249289
H           63.54199852800195       50.07154222146425       55.67200148426883
H           65.03065598185903       51.99801822593380       55.96979514112069
H           72.06252571315468       53.09859930791122       54.71790849754935
H           73.32243335176975       53.37489212562345       52.63023261369783
H           72.19352463554911       54.24244039067857       50.60732274490526
H           69.80869616010207       54.82518148422894       50.70307552426906
H           68.53961034694588       54.53772411283453       52.78427444473422
H           71.78930618752823       56.66520089841074       54.35310410237852
H           74.05880740941771       56.41326718015999       55.25781352686860
H           74.39174774624198       55.56154350442008       57.55144058565915
H           72.43276635365042       54.97719744409353       58.93338506854280
H           70.16724396505536       55.24315892999474       58.03296608084351
H           65.98617988198014       56.47166300374530       53.70184285299350
H           65.89672353606863       57.27123491265075       51.39004267292425
H           67.17241093331333       59.27865013194086       50.72019837745657
H           68.58322883949603       60.43646203548135       52.38250653285277
H           68.66732172083452       59.64302629006633       54.69504469551904
H           66.70316324794243       58.36575822450638       57.72271365958508
H           67.11986865181569       59.58640476106504       56.52134521618932
H           65.12947731372022       60.13983855850036       58.67207444906369
H           64.28225304666894       62.39490906146590       59.12674884296031
H           63.29327443627428       63.74012153779090       57.30897487583325
H           63.17266587268910       62.81149009254437       55.02754699398828
H           64.02130321636911       60.54410962819998       54.57175043886987
H           63.83562224808767       55.66073531836610       55.12652004270535
H           63.66842848111191       55.25149030254536       52.70039679846563
H           62.41127254261746       56.78679990092213       51.27110522828033
H           61.32086818093673       58.78346377274914       52.27139409748895
H           61.53500098272261       59.22495894582135       54.67122406032010
H           59.01641473536367       55.60168128753553       55.37446561735353
H           57.63543302712574       53.61894835325091       55.74539301871202
H           57.43547188254551       52.64390151199166       58.01787256767561
H           58.67343366199521       53.66275446897476       59.88860320740842
H           60.08237540288758       55.64456728713021       59.50284252532909
H           56.45385329447205       57.29583720816674       56.69305194901249
H           55.63179307603244       57.79224967936042       54.42918486123440
H           56.80495556151168       59.43743821735264       53.01926510828435
H           58.77432950920402       60.63531937412033       53.92426029577563
H           59.55214612899666       60.18868085902626       56.19524705416847
H           55.56242911968374       60.07080031531257       60.66953089029861
H           54.69119724064643       62.03603322659383       61.81845067193677
H           56.22329941008934       63.57134668353154       63.00527021541022
H           58.64646759323035       63.09808234038130       63.02694148551554
H           59.52502897349049       61.11232453994450       61.88204497721873
H           58.01264222330700       59.57442809893332       64.24492372724389
H           60.14847089521943       59.81343971135141       65.43718261409506
H           62.01244690852410       58.26563094156062       64.96442370852128
H           61.71986518729835       56.47832350596090       63.28081336128690
H           59.59751549061446       56.25099239424527       62.08936042006633
H           56.68185410672063       58.03276456542397       66.05334301670133
H           54.96101060495064       59.58375622929913       66.88078717369871
H           52.67547041269493       59.50497263179623       65.95215314109802
H           52.12413588912437       57.85569903172545       64.20503335693299
H           53.83168516054734       56.31141790694642       63.38171304418334
H           58.32717383969855       53.09533232919958       65.50540725628360
H           60.45541552267845       53.45926465996826       66.67621076269607
H           60.58354312968431       55.09733625504040       68.52278188880842
H           58.57753981980035       56.38608783394743       69.15284921686801
H           56.46222259840011       56.04986835661717       67.94239257316433
H           54.77550156688577       50.40158203782308       67.17323808326510
H           53.97866426482249       48.14080697402544       66.65484525803089
H           52.18477825750412       47.80833398444674       65.00053128855164
H           51.21659848387699       49.77126412748540       63.83296313459741
H           52.05669805617483       52.01916740580452       64.31191691946609
H           50.32566668064272       54.82278172825972       65.88219353639752
H           49.74932279679223       57.20853842314764       65.97636883053495
H           50.69635822846354       58.64149882455815       67.74591660987728
H           52.22537270368638       57.66649633685088       69.41934295797326
H           52.78568364735285       55.28063558675419       69.33565197807975
H           65.83963805733539       52.33795392813688       65.06546758701971
H           64.56599624933955       53.55050683166611       65.19889130236274
H           64.23628427720169       51.86866128751435       65.61947258761992
H           51.46042735023981       52.96956513104183       66.67762100864405
H           51.87541780602328       52.93931771484377       69.67641807974817
H           50.28149181467344       53.16935241326439       68.96051286691794
C           49.87236970786839       50.85534942653588       67.81119853381163
C           51.09966673376424       50.52441502151860       69.96994281023071
C           51.98843739431972       49.49319972248188       70.24809111475476
C           51.98307221541629       48.86204658354372       71.47935433868641
C           51.08582952505755       49.25568634861196       72.45712467679367
C           50.19268130566446       50.28015904190547       72.19114347458417
C           50.19952388957063       50.90696143149269       70.95779091520595
H           52.69297446132408       49.18403961480479       69.48910011628944
H           52.68126227420249       48.06165901893073       71.67994420503919
H           51.08173768399342       48.76827996366623       73.42141786932227
H           49.48913758624811       50.59231913047997       72.95014448209267
H           49.49854253108631       51.70600677374298       70.76553246932998
C           49.67519890624678       49.34300214473869       67.66902760711746
H           48.99558338438177       51.29401135096510       68.29125529701460
H           49.96392394131018       51.29207100704296       66.81458051904688
C           48.52104201894812       49.00059287265822       66.76873170581524
C           48.70572877935221       48.20144385377574       65.64860517174357
C           47.64547134146257       47.88371521186725       64.81785974169031
C           46.38064902665916       48.37778051147497       65.08441580621576
C           46.18126914087708       49.16915744573338       66.20293510112153
C           47.23976738657470       49.46899947034466       67.04115065075712
H           49.68968655203551       47.81051775633157       65.43508261179869
H           47.80784631961001       47.24606756716417       63.96186570330563
H           45.55072420603315       48.14899088229736       64.43049468828713
H           45.19388316087056       49.54871423042262       66.42531571313724
H           47.06601590886647       50.07086257044256       67.92231797976287
H           51.99438238249252       50.83060188819788       68.07799218527047
H           50.58927563611982       48.89854233975628       67.26981235723602
H           49.49999702012265       48.91278095844878       68.65986640979457
C           51.03565153064981       38.53930576583550       55.46510501070873
C           51.93251221576039       39.13728771785607       56.34111580604940
C           52.52954543342008       38.34650900560493       57.31583512856604
C           52.23845684572642       36.99778132983516       57.41306998194854
C           51.35370330658337       36.41187448227326       56.52398214510448
C           50.75293787148150       37.18836188584379       55.54846132145216
C           52.27969032465300       40.59689453026731       56.19413279005414
C           52.15333616457837       41.34855751083277       57.52011845131215
C           53.70192634968635       40.73281157614120       55.63046468626806
C           53.80522471107152       40.21959512814659       54.18734956863693
C           52.96585436042994       41.05671975851720       53.25355118156715
C           51.98141205640493       40.47385733932963       52.46578087592307
C           51.21163738170753       41.23680634141357       51.60457088735941
C           51.41533089573511       42.60239349374622       51.51898254212221
C           52.39192494089296       43.19689890574734       52.29898010559455
C           53.16255585242458       42.42963637297212       53.15181094587419
C           55.26495773759711       40.19376751894713       53.71191134616137
C           55.43074750677670       39.42626666362016       52.39414131256661
C           55.19293909484048       37.94854856694693       52.58229018376558
C           56.00036041836579       37.19455294506974       53.42704421655557
C           55.79534180655105       35.83558167099558       53.57952821265410
C           54.77993220120928       35.20241774742858       52.88382435057569
C           53.97557719431337       35.93834163122233       52.03146604775882
C           54.18218306257809       37.29846264145488       51.88481673768855
C           56.83391437061933       39.65129775796575       51.80981481319952
C           57.00299082245898       41.04680770782824       51.17076592818718
C           58.09104303139110       41.83795701729726       51.85135249784204
C           57.82723642410194       43.08702707972710       52.39877721436751
C           58.82477349418421       43.81524165443555       53.02453391434209
C           60.10399019764547       43.29804094811224       53.12570101088709
C           60.37382807532691       42.04645060974363       52.59742028792593
C           59.38043824796084       41.32786801893571       51.95790191075227
C           57.27832100963215       40.90989060771731       49.66433625588215
C           57.34775490988373       42.26488875231119       48.95014488884723
C           56.10040763945263       43.07723191329372       49.20495991726029
C           54.83594686092429       42.56680024984931       48.93422121976992
C           53.70281664380354       43.33041981429718       49.14678107126374
C           53.81230545658327       44.62172486978984       49.63154062720031
C           55.06376611371895       45.13709002175092       49.91771640875319
C           56.19513657927222       44.36960071856998       49.70398855114161
C           57.52464402839571       42.09987652807434       47.43024906284100
C           58.85446701178834       41.44100112433953       47.00894634347562
C           58.60816091068524       40.14923647664519       46.26585877486685
C           57.76386401839217       40.12096897194110       45.16051019258953
C           57.53450907936971       38.94591313887489       44.47095217406435
C           58.15238795085865       37.77264600969689       44.87050696757156
C           59.00951430730578       37.79061391975041       45.95600902647357
C           59.23586104945375       38.97044933002447       46.64532794320715
C           59.72408986868693       42.33527291966757       46.10494430563247
C           60.18929489403436       43.66120835983829       46.72633258800523
C           60.84077967755286       44.52518658436104       45.67180425739078
C           60.42459648366149       45.83833623014068       45.48426007671127
C           61.02697673355368       46.65058815120716       44.53914066859326
C           62.06612687924650       46.16248081457326       43.76718775738190
C           62.48989943460384       44.85722169084681       43.94280316557657
C           61.88281105003453       44.04727293553439       44.88529595077932
C           61.15712665861454       43.45282432305430       47.90061635228616
C           61.48950286690489       44.75987975864572       48.64254118738148
C           62.69737814062435       44.55909914073388       49.52438365407277
C           63.83485229779883       45.34014465916273       49.38078428214791
C           64.91609648711641       45.18321367278426       50.22984119011155