      -----------------------------------------------------------      
     |                   =====================                   |     
     |                           x T B                           |     
     |                   =====================                   |     
     |                         S. Grimme                         |     
     |          Mulliken Center for Theoretical Chemistry        |     
     |                    University of Bonn                     |     
      -----------------------------------------------------------      

   * xtb version 6.6.1 (8d0f1dd) compiled by 'stahn@M-Bot' on 2023-08-01

   xtb is free software: you can redistribute it and/or modify it under
   the terms of the GNU Lesser General Public License as published by
   the Free Software Foundation, either version 3 of the License, or
   (at your option) any later version.
   
   xtb is distributed in the hope that it will be useful,
   but WITHOUT ANY WARRANTY; without even the implied warranty of
   MERCHANTABILITY or FITNESS FOR A PARTICULAR PURPOSE.  See the
   GNU Lesser General Public License for more details.
   
   Cite this work as:
   * C. Bannwarth, E. Caldeweyher, S. Ehlert, A. Hansen, P. Pracht,
     J. Seibert, S. Spicher, S. Grimme, WIREs Comput. Mol. Sci., 2020, 11,
     e01493. DOI: 10.1002/wcms.1493
   
   for GFN2-xTB:
   * C. Bannwarth, S. Ehlert and S. Grimme., J. Chem. Theory Comput., 2019,
     15, 1652-1671. DOI: 10.1021/acs.jctc.8b01176
   for GFN1-xTB:
   * S. Grimme, C. Bannwarth, P. Shushkov, J. Chem. Theory Comput., 2017,
     13, 1989-2009. DOI: 10.1021/acs.jctc.7b00118
   for GFN0-xTB:
   * P. Pracht, E. Caldeweyher, S. Ehlert, S. Grimme, ChemRxiv, 2019, preprint.
     DOI: 10.26434/chemrxiv.8326202.v1
   for GFN-FF:
   * S. Spicher and S. Grimme, Angew. Chem. Int. Ed., 2020, 59, 15665-15673.
     DOI: 10.1002/anie.202004239
   
   for ALPB and GBSA implicit solvation:
   * S. Ehlert, M. Stahn, S. Spicher, S. Grimme, J. Chem. Theory Comput.,
     2021, 17, 4250-4261. DOI: 10.1021/acs.jctc.1c00471
   
   for DFT-D4:
   * E. Caldeweyher, C. Bannwarth and S. Grimme, J. Chem. Phys., 2017,
     147, 034112. DOI: 10.1063/1.4993215
   * E. Caldeweyher, S. Ehlert, A. Hansen, H. Neugebauer, S. Spicher,
     C. Bannwarth and S. Grimme, J. Chem. Phys., 2019, 150, 154122.
     DOI: 10.1063/1.5090222
   * E. Caldeweyher, J.-M. Mewes, S. Ehlert and S. Grimme, Phys. Chem. Chem. Phys.
     2020, 22, 8499-8512. DOI: 10.1039/D0CP00502A
   
   for sTDA-xTB:
   * S. Grimme and C. Bannwarth, J. Chem. Phys., 2016, 145, 054103.
     DOI: 10.1063/1.4959605
   
   in the mass-spec context:
   * V. Asgeirsson, C. Bauer and S. Grimme, Chem. Sci., 2017, 8, 4879.
     DOI: 10.1039/c7sc00601b
   * J. Koopman and S. Grimme, ACS Omega 2019, 4, 12, 15120-15133.
     DOI: 10.1021/acsomega.9b02011
   
   for metadynamics refer to:
   * S. Grimme, J. Chem. Theory Comput., 2019, 155, 2847-2862
     DOI: 10.1021/acs.jctc.9b00143
   
   for SPH calculations refer to:
   * S. Spicher and S. Grimme, J. Chem. Theory Comput., 2021, 17, 1701-1714
     DOI: 10.1021/acs.jctc.0c01306
   
   with help from (in alphabetical order)
   P. Atkinson, C. Bannwarth, F. Bohle, G. Brandenburg, E. Caldeweyher
   M. Checinski, S. Dohm, S. Ehlert, S. Ehrlich, I. Gerasimov, C. Hölzer
   A. Katbashev, J. Koopman, C. Lavigne, S. Lehtola, F. März, M. Müller,
   F. Musil, H. Neugebauer, J. Pisarek, C. Plett, P. Pracht, F. Pultar,
   J. Seibert, P. Shushkov, S. Spicher, M. Stahn, M. Steiner, T. Strunk,
   J. Stückrath, T. Rose, and J. Unsleber
   
 * started run on 2024/06/20 at 22:08:37.823     

           -------------------------------------------------
          |                Calculation Setup                |
           -------------------------------------------------

          program call               : /home/abt-grimme/AK-bin/xtb input.xyz --input input.inp --opt --gbsa water
          hostname                   : boar073.thch.uni-bonn.de
          coordinate file            : input.xyz
          omp threads                :                     8

   ID    Z sym.   atoms
    1    6 C      1-90, 273-362, 545-634, 817-906, 1089-1178, 1361-1450,
                  1633-1722, 1905-1994, 2177-2266, 2449-2538, 2721-2810,
                  2993-3082, 3265-3354
    2    1 H      91-272, 363-544, 635-816, 907-1088, 1179-1360, 1451-1632,
                  1723-1904, 1995-2176, 2267-2448, 2539-2720, 2811-2992,
                  3083-3264, 3355-3536

molecular fragmentation (1/2 indicates fragments):
111111111111111111111111111111111111111111111111111111111111111111111111
111111111111111111111111111111111111111111111111111111111111111111111111
111111111111111111111111111111111111111111111111111111111111111111111111
111111111111111111111111111111111111111111111111111111112222222222222222
222222222222222222222222222222222222222222222222222222222222222222222222
222222222222222222222222222222222222222222222222222222222222222222222222
222222222222222222222222222222222222222222222222222222222222222222222222
222222222222222222222222222222222222222222222222222222222222222222222222
222222222222222222222222222222222222222222222222222222222222222222222222
222222222222222222222222222222222222222222222222222222222222222222222222
222222222222222222222222222222222222222222222222222222222222222222222222
222222222222222222222222222222222222222222222222222222222222222222222222
222222222222222222222222222222222222222222222222222222222222222222222222
222222222222222222222222222222222222222222222222222222222222222222222222
222222222222222222222222222222222222222222222222222222222222222222222222
222222222222222222222222222222222222222222222222222222222222222222222222
222222222222222222222222222222222222222222222222222222222222222222222222
222222222222222222222222222222222222222222222222222222222222222222222222
222222222222222222222222222222222222222222222222222222222222222222222222
222222222222222222222222222222222222222222222222222222222222222222222222
222222222222222222222222222222222222222222222222222222222222222222222222
222222222222222222222222222222222222222222222222222222222222222222222222
222222222222222222222222222222222222222222222222222222222222222222222222
222222222222222222222222222222222222222222222222222222222222222222222222
222222222222222222222222222222222222222222222222222222222222222222222222
222222222222222222222222222222222222222222222222222222222222222222222222
222222222222222222222222222222222222222222222222222222222222222222222222
222222222222222222222222222222222222222222222222222222222222222222222222
222222222222222222222222222222222222222222222222222222222222222222222222
222222222222222222222222222222222222222222222222222222222222222222222222
222222222222222222222222222222222222222222222222222222222222222222222222
222222222222222222222222222222222222222222222222222222222222222222222222
222222222222222222222222222222222222222222222222222222222222222222222222
222222222222222222222222222222222222222222222222222222222222222222222222
222222222222222222222222222222222222222222222222222222222222222222222222
222222222222222222222222222222222222222222222222222222222222222222222222
222222222222222222222222222222222222222222222222222222222222222222222222
222222222222222222222222222222222222222222222222222222222222222222222222
222222222222222222222222222222222222222222222222222222222222222222222222
222222222222222222222222222222222222222222222222222222222222222222222222
222222222222222222222222222222222222222222222222222222222222222222222222
222222222222222222222222222222222222222222222222222222222222222222222222
222222222222222222222222222222222222222222222222222222222222222222222222
222222222222222222222222222222222222222222222222222222222222222222222222
222222222222222222222222222222222222222222222222222222222222222222222222
222222222222222222222222222222222222222222222222222222222222222222222222
222222222222222222222222222222222222222222222222222222222222222222222222
222222222222222222222222222222222222222222222222222222222222222222222222
222222222222222222222222222222222222222222222222222222222222222222222222
22222222
# atoms in fragment 1/2:   272  3264
 fragment masses (1/2) :     1264.41    15172.94
CMA distance (Bohr)    :  20.649
constraining FC (au)   :  0.0500

           -------------------------------------------------
          |                 G F N 2 - x T B                 |
           -------------------------------------------------

        Reference                      10.1021/acs.jctc.8b01176
      * Hamiltonian:
        H0-scaling (s, p, d)           1.850000    2.230000    2.230000
        zeta-weighting                 0.500000
      * Dispersion:
        s8                             2.700000
        a1                             0.520000
        a2                             5.000000
        s9                             5.000000
      * Repulsion:
        kExp                           1.500000    1.000000
        rExp                           1.000000
      * Coulomb:
        alpha                          2.000000
        third order                    shell-resolved
        anisotropic                    true
        a3                             3.000000
        a5                             4.000000
        cn-shift                       1.200000
        cn-exp                         4.000000
        max-rad                        5.000000

      * Solvation model:               GBSA
        Solvent                        water
        Parameter file                 internal GFN2-xTB/GBSA
        Dielectric constant                8.0200E+01
        Reference state                gsolv [1 M gas/solution]
        Free energy shift                  1.8574E-03 Eh       1.1656E+00 kcal/mol
        Temperature                        2.9815E+02 K
        Density                            1.0000E+00 kg/L
        Solvent mass                       1.8000E+01 g/mol
        Interaction kernel             Still
        Born radius scaling (c1)           1.5524E+00
        Born radii integrator          GBOBC
        Born offset                        2.4628E-02 a0       4.6540E-02 AA
        H-bond correction              true
        Ion screening                  false
        Surface tension                    1.0000E-05 Eh       1.5569E+01 dyn/cm
        Grid points                               230 per atom
q/qsh data taken from xtbrestart
CAMM data taken from xtbrestart

          ...................................................
          :                      SETUP                      :
          :.................................................:
          :  # basis functions                7046          :
          :  # atomic orbitals                7046          :
          :  # shells                         4706          :
          :  # electrons                      7046          :
          :  max. iterations                   250          :
          :  Hamiltonian                  GFN2-xTB          :
          :  restarted?                       true          :
          :  GBSA solvation                   true          :
          :  PC potential                    false          :
          :  electronic temp.          300.0000000     K    :
          :  accuracy                    1.0000000          :
          :  -> integral cutoff          0.2500000E+02      :
          :  -> integral neglect         0.1000000E-07      :
          :  -> SCF convergence          0.1000000E-05 Eh   :
          :  -> wf. convergence          0.1000000E-03 e    :
          :  Broyden damping             0.4000000          :
          ...................................................

 iter      E             dE          RMSdq      gap      omega  full diag
   1  -3764.2066725 -0.376421E+04  0.399E-05   10.50       0.0  T
   2  -3764.2066725 -0.101409E-08  0.301E-05   10.50      55.8  T
   3  -3764.2066725 -0.136424E-08  0.157E-05   10.50     107.2  T

   *** convergence criteria satisfied after 3 iterations ***

         #    Occupation            Energy/Eh            Energy/eV
      -------------------------------------------------------------
         1        2.0000           -0.6179512             -16.8153
       ...           ...                  ...                  ...
      3517        2.0000           -0.3771058             -10.2616
      3518        2.0000           -0.3765123             -10.2454
      3519        2.0000           -0.3761474             -10.2355
      3520        2.0000           -0.3758681             -10.2279
      3521        2.0000           -0.3753850             -10.2147
      3522        2.0000           -0.3738582             -10.1732
      3523        2.0000           -0.3714275             -10.1071 (HOMO)
      3524                          0.0145072               0.3948 (LUMO)
      3525                          0.0160321               0.4363
      3526                          0.0172497               0.4694
      3527                          0.0172840               0.4703
      3528                          0.0177356               0.4826
       ...                                ...                  ...
      7046                          0.3744089              10.1882
      -------------------------------------------------------------
                  HL-Gap            0.3859347 Eh           10.5018 eV
             Fermi-level           -0.1784602 Eh           -4.8561 eV

 SCC (total)                   0 d,  0 h,  8 min, 39.287 sec
 SCC setup                      ...        0 min,  2.000 sec (  0.385%)
 Dispersion                     ...        0 min,  4.170 sec (  0.803%)
 classical contributions        ...        0 min,  0.163 sec (  0.031%)
 integral evaluation            ...        0 min,  6.931 sec (  1.335%)
 iterations                     ...        3 min, 47.615 sec ( 43.832%)
 molecular gradient             ...        4 min, 27.378 sec ( 51.489%)
 printout                       ...        0 min, 11.031 sec (  2.124%)

         :::::::::::::::::::::::::::::::::::::::::::::::::::::
         ::                     SUMMARY                     ::
         :::::::::::::::::::::::::::::::::::::::::::::::::::::
         :: total energy           -3715.359782882419 Eh    ::
         :: total w/o Gsasa/hb     -3715.250266361715 Eh    ::
         :: gradient norm              0.668920759916 Eh/a0 ::
         :: HOMO-LUMO gap             10.501817584892 eV    ::
         ::.................................................::
         :: SCC energy             -3764.206672503223 Eh    ::
         :: -> isotropic ES            0.437767106548 Eh    ::
         :: -> anisotropic ES          1.503895076243 Eh    ::
         :: -> anisotropic XC          2.299600224334 Eh    ::
         :: -> dispersion             -4.700677325268 Eh    ::
         :: -> Gsolv                  -0.046578841957 Eh    ::
         ::    -> Gelec                0.062937678747 Eh    ::
         ::    -> Gsasa               -0.105035628114 Eh    ::
         ::    -> Ghb                 -0.006338335717 Eh    ::
         ::    -> Gshift               0.001857443127 Eh    ::
         :: repulsion energy          48.113042234405 Eh    ::
         :: add. restraining           0.000000000000 Eh    ::
         :: total charge              -0.000000000010 e     ::
         :::::::::::::::::::::::::::::::::::::::::::::::::::::

      ----------------------------------------------------------- 
     |              Fast Inertial Relaxation Engine              |
      ----------------------------------------------------------- 

          ...................................................
          :                      SETUP                      :
          :.................................................:
          :   energy convergence        0.5000000E-05 Eh    :
          :   grad. convergence         0.1000000E-02 Eh/a0 :
          :   optimization log               true           :
          :   writing optlog all                1     steps :
          :   Hessian reset                    20     steps :
          :   time step scaling                 5     steps :
          :   maximium step len.        1.0000000     a0    :
          :   initial time step         0.2500000     fs    :
          :   maximum time step         1.2500000     fs    :
          :   power reset thr           0.0000000     au    :
          :   alpha parameter           0.1000000           :
          :   BFGS update                   false           :
          :   preconditioning               false           :
          ...................................................

........................................................................
.............................. CYCLE    1 ..............................
........................................................................

 iter      E             dE          RMSdq      gap      omega  full diag
   1  -3764.4701978 -0.376447E+04  0.767E-03   10.51       0.0  T
   2  -3764.4702420 -0.441499E-04  0.417E-03   10.51       1.0  T
   3  -3764.4702427 -0.704069E-06  0.181E-03   10.51       1.0  T
   4  -3764.4702432 -0.552520E-06  0.446E-04   10.51       3.8  T
   5  -3764.4702435 -0.274804E-06  0.181E-04   10.51       9.3  T
     SCC iter.                  ...        6 min,  7.744 sec
     gradient                   ...        4 min, 26.474 sec
 * total energy  : -3715.4106754 Eh     change    :  -0.5089249E-01 Eh
   gradient norm :     0.6360144 Eh/a0  converged?    E=F G=F D=F
   time step     :     0.2500000 fs     power     :   0.2633851E-05
   step length   :     0.0783961 a0     speed     :   0.7585243E-02

........................................................................
.............................. CYCLE    2 ..............................
........................................................................

 iter      E             dE          RMSdq      gap      omega  full diag
   1  -3764.8589434 -0.376486E+04  0.113E-02   10.52       0.0  T
   2  -3764.8590384 -0.950623E-04  0.611E-03   10.52       1.0  T
   3  -3764.8590400 -0.157843E-05  0.264E-03   10.52       1.0  T
   4  -3764.8590412 -0.120231E-05  0.663E-04   10.52       2.5  T
   5  -3764.8590418 -0.602470E-06  0.282E-04   10.52       6.0  T
   6  -3764.8590419 -0.550990E-07  0.134E-04   10.52      12.5  T
     SCC iter.                  ...        7 min, 25.521 sec
     gradient                   ...        4 min, 26.016 sec
 * total energy  : -3715.4813076 Eh     change    :  -0.7063225E-01 Eh
   gradient norm :     0.5896533 Eh/a0  converged?    E=F G=F D=F
   time step     :     0.2500000 fs     power     :   0.3602940E-05
   step length   :     0.1155340 a0     speed     :   0.1117853E-01

........................................................................
.............................. CYCLE    3 ..............................
........................................................................

 iter      E             dE          RMSdq      gap      omega  full diag
   1  -3765.3629970 -0.376536E+04  0.145E-02   10.53       0.0  T
   2  -3765.3631527 -0.155681E-03  0.788E-03   10.53       1.0  T
   3  -3765.3631553 -0.261672E-05  0.338E-03   10.53       1.0  T
   4  -3765.3631573 -0.195239E-05  0.852E-04   10.52       2.0  T
   5  -3765.3631583 -0.993054E-06  0.365E-04   10.52       4.6  T
   6  -3765.3631583 -0.897576E-07  0.170E-04   10.52       9.9  T
     SCC iter.                  ...        7 min, 20.364 sec
     gradient                   ...        4 min, 25.514 sec
 * total energy  : -3715.5650395 Eh     change    :  -0.8373184E-01 Eh
   gradient norm :     0.5312276 Eh/a0  converged?    E=F G=F D=F
   time step     :     0.2500000 fs     power     :   0.4199994E-05
   step length   :     0.1499721 a0     speed     :   0.1451061E-01

........................................................................
.............................. CYCLE    4 ..............................
........................................................................

 iter      E             dE          RMSdq      gap      omega  full diag
   1  -3765.9696199 -0.376597E+04  0.174E-02   10.54       0.0  T
   2  -3765.9698367 -0.216862E-03  0.940E-03   10.54       1.0  T
   3  -3765.9698405 -0.375935E-05  0.398E-03   10.54       1.0  T
   4  -3765.9698432 -0.267279E-05  0.101E-03   10.53       1.7  T
   5  -3765.9698445 -0.137055E-05  0.442E-04   10.53       3.8  T
   6  -3765.9698447 -0.128955E-06  0.201E-04   10.53       8.4  T
   7  -3765.9698447 -0.617160E-07  0.134E-04   10.53      12.5  T
     SCC iter.                  ...        8 min, 36.728 sec
     gradient                   ...        4 min, 26.076 sec
 * total energy  : -3715.6542525 Eh     change    :  -0.8921301E-01 Eh
   gradient norm :     0.4643788 Eh/a0  converged?    E=F G=F D=F
   time step     :     0.2500000 fs     power     :   0.4384668E-05
   step length   :     0.1808680 a0     speed     :   0.1749995E-01

........................................................................
.............................. CYCLE    5 ..............................
........................................................................

 iter      E             dE          RMSdq      gap      omega  full diag
   1  -3766.6633148 -0.376666E+04  0.197E-02   10.55       0.0  T
   2  -3766.6635829 -0.268115E-03  0.106E-02   10.54       1.0  T
   3  -3766.6635877 -0.479771E-05  0.441E-03   10.54       1.0  T
   4  -3766.6635908 -0.312754E-05  0.110E-03   10.54       1.5  T
   5  -3766.6635925 -0.161775E-05  0.491E-04   10.54       3.4  T
   6  -3766.6635926 -0.132250E-06  0.206E-04   10.54       8.2  T
   7  -3766.6635926 -0.606137E-07  0.137E-04   10.54      12.3  T
     SCC iter.                  ...        8 min, 44.715 sec
     gradient                   ...        4 min, 24.890 sec
 * total energy  : -3715.7413149 Eh     change    :  -0.8706239E-01 Eh
   gradient norm :     0.3946028 Eh/a0  converged?    E=F G=F D=F
   time step     :     0.2500000 fs     power     :   0.4172083E-05
   step length   :     0.2074957 a0     speed     :   0.2007632E-01

........................................................................
.............................. CYCLE    6 ..............................
........................................................................

 iter      E             dE          RMSdq      gap      omega  full diag
   1  -3767.5095037 -0.376751E+04  0.238E-02   10.56       0.0  T
   2  -3767.5098717 -0.367965E-03  0.128E-02   10.55       1.0  T
   3  -3767.5098789 -0.726688E-05  0.515E-03   10.55       1.0  T
   4  -3767.5098830 -0.407336E-05  0.127E-03   10.55       1.3  T
   5  -3767.5098851 -0.206799E-05  0.601E-04   10.55       2.8  T
   6  -3767.5098852 -0.182215E-06  0.235E-04   10.55       7.2  T
   7  -3767.5098853 -0.761643E-07  0.158E-04   10.55      10.6  T
     SCC iter.                  ...        8 min, 42.662 sec
     gradient                   ...        4 min, 25.385 sec
 * total energy  : -3715.8271879 Eh     change    :  -0.8587302E-01 Eh
   gradient norm :     0.3229793 Eh/a0  converged?    E=F G=F D=F
   time step     :     0.2750000 fs     power     :   0.3555347E-05
   step length   :     0.2545898 a0     speed     :   0.2239357E-01

........................................................................
.............................. CYCLE    7 ..............................
........................................................................

 iter      E             dE          RMSdq      gap      omega  full diag
   1  -3768.5043898 -0.376850E+04  0.276E-02   10.56       0.0  T
   2  -3768.5048411 -0.451333E-03  0.148E-02   10.56       1.0  T
   3  -3768.5048518 -0.106916E-04  0.570E-03   10.56       1.0  T
   4  -3768.5048564 -0.460169E-05  0.137E-03   10.56       1.2  T
   5  -3768.5048586 -0.213033E-05  0.709E-04   10.56       2.4  T
   6  -3768.5048588 -0.232597E-06  0.251E-04   10.55       6.7  T
   7  -3768.5048589 -0.838813E-07  0.174E-04   10.55       9.7  T
     SCC iter.                  ...        8 min, 36.980 sec
     gradient                   ...        4 min, 24.783 sec
 * total energy  : -3715.9023267 Eh     change    :  -0.7513882E-01 Eh
   gradient norm :     0.2659269 Eh/a0  converged?    E=F G=F D=F
   time step     :     0.3025000 fs     power     :   0.2591058E-05
   step length   :     0.3029985 a0     speed     :   0.2422870E-01

........................................................................
.............................. CYCLE    8 ..............................
........................................................................

 iter      E             dE          RMSdq      gap      omega  full diag
   1  -3769.6131928 -0.376961E+04  0.308E-02   10.57       0.0  T
   2  -3769.6136618 -0.468979E-03  0.165E-02   10.57       1.0  T
   3  -3769.6136769 -0.151342E-04  0.584E-03   10.57       1.0  T
   4  -3769.6136812 -0.424315E-05  0.135E-03   10.56       1.2  T
   5  -3769.6136825 -0.136532E-05  0.781E-04   10.56       2.2  T
   6  -3769.6136828 -0.266958E-06  0.239E-04   10.56       7.0  T
   7  -3769.6136829 -0.730483E-07  0.174E-04   10.56       9.7  T
     SCC iter.                  ...        8 min, 43.114 sec
     gradient                   ...        4 min, 24.800 sec
 * total energy  : -3715.9584718 Eh     change    :  -0.5614512E-01 Eh
   gradient norm :     0.2436838 Eh/a0  converged?    E=F G=F D=F
   time step     :     0.3327500 fs     power     :   0.1488393E-05
   step length   :     0.3472443 a0     speed     :   0.2524249E-01

........................................................................
.............................. CYCLE    9 ..............................
........................................................................

 iter      E             dE          RMSdq      gap      omega  full diag
   1  -3770.7527838 -0.377075E+04  0.327E-02   10.58       0.0  T
   2  -3770.7531694 -0.385579E-03  0.176E-02   10.58       1.0  T
   3  -3770.7531884 -0.190240E-04  0.543E-03   10.58       1.0  T
   4  -3770.7531919 -0.351238E-05  0.132E-03   10.58       1.3  T
   5  -3770.7531924 -0.540609E-06  0.766E-04   10.58       2.2  T
   6  -3770.7531927 -0.243733E-06  0.191E-04   10.57       8.8  T
     SCC iter.                  ...        7 min, 25.787 sec
     gradient                   ...        4 min, 26.320 sec
 * total energy  : -3715.9930581 Eh     change    :  -0.3458632E-01 Eh
   gradient norm :     0.2523307 Eh/a0  converged?    E=F G=F D=F
   time step     :     0.3660250 fs     power     :   0.5563646E-06
   step length   :     0.3796446 a0     speed     :   0.2508890E-01

........................................................................
.............................. CYCLE   10 ..............................
........................................................................

 iter      E             dE          RMSdq      gap      omega  full diag
   1  -3771.8094046 -0.377181E+04  0.335E-02   10.60       0.0  T
   2  -3771.8096529 -0.248300E-03  0.186E-02   10.59       1.0  T
   3  -3771.8096692 -0.163086E-04  0.477E-03   10.59       1.0  T
   4  -3771.8096775 -0.833808E-05  0.147E-03   10.59       1.1  T
   5  -3771.8096786 -0.110329E-05  0.830E-04   10.59       2.0  T
   6  -3771.8096788 -0.168703E-06  0.160E-04   10.59      10.5  T
   7  -3771.8096788 -0.298614E-07  0.125E-04   10.59      13.5  T
     SCC iter.                  ...        8 min, 35.177 sec
     gradient                   ...        4 min, 24.431 sec
 * total energy  : -3716.0099181 Eh     change    :  -0.1686000E-01 Eh
   gradient norm :     0.2623636 Eh/a0  converged?    E=F G=F D=F
   time step     :     0.4026275 fs     power     :  -0.4992275E-07
   step length   :     0.3976798 a0     speed     :   0.2389160E-01

........................................................................
.............................. CYCLE   11 ..............................
........................................................................
 * reset velocities

 iter      E             dE          RMSdq      gap      omega  full diag
   1  -3771.7907031 -0.377179E+04  0.106E-03   10.59       0.0  T
   2  -3771.7907040 -0.859727E-06  0.648E-04   10.59       2.6  T
   3  -3771.7907040 -0.126506E-07  0.274E-04   10.59       6.1  T
     SCC iter.                  ...        3 min, 40.094 sec
     gradient                   ...        4 min, 26.005 sec
 * total energy  : -3716.0125017 Eh     change    :  -0.2583584E-02 Eh
   gradient norm :     0.2560497 Eh/a0  converged?    E=F G=F D=F
   time step     :     0.2013138 fs     power     :   0.1682473E-06
   step length   :     0.0099692 a0     speed     :   0.1197848E-02

........................................................................
.............................. CYCLE   12 ..............................
........................................................................

 iter      E             dE          RMSdq      gap      omega  full diag
   1  -3771.7532381 -0.377175E+04  0.212E-03   10.59       0.0  T
   2  -3771.7532413 -0.322851E-05  0.130E-03   10.59       1.3  T
   3  -3771.7532414 -0.309788E-07  0.528E-04   10.59       3.2  T
   4  -3771.7532414 -0.830655E-07  0.137E-04   10.59      12.3  T
     SCC iter.                  ...        4 min, 54.610 sec
     gradient                   ...        4 min, 25.615 sec
 * total energy  : -3716.0174240 Eh     change    :  -0.4922272E-02 Eh
   gradient norm :     0.2437769 Eh/a0  converged?    E=F G=F D=F
   time step     :     0.2013138 fs     power     :   0.3164381E-06
   step length   :     0.0196983 a0     speed     :   0.2366846E-02

........................................................................
.............................. CYCLE   13 ..............................
........................................................................

 iter      E             dE          RMSdq      gap      omega  full diag
   1  -3771.6982364 -0.377170E+04  0.305E-03   10.59       0.0  T
   2  -3771.6982437 -0.726501E-05  0.188E-03   10.59       1.0  T
   3  -3771.6982438 -0.110314E-06  0.795E-04   10.59       2.1  T
   4  -3771.6982440 -0.187822E-06  0.209E-04   10.59       8.0  T
     SCC iter.                  ...        4 min, 55.640 sec
     gradient                   ...        4 min, 24.325 sec
 * total energy  : -3716.0242234 Eh     change    :  -0.6799446E-02 Eh
   gradient norm :     0.2260078 Eh/a0  converged?    E=F G=F D=F
   time step     :     0.2013138 fs     power     :   0.4309816E-06
   step length   :     0.0289594 a0     speed     :   0.3479618E-02

........................................................................
.............................. CYCLE   14 ..............................
........................................................................

 iter      E             dE          RMSdq      gap      omega  full diag
   1  -3771.6271387 -0.377163E+04  0.394E-03   10.59       0.0  T
   2  -3771.6271508 -0.121501E-04  0.242E-03   10.59       1.0  T
   3  -3771.6271510 -0.190996E-06  0.103E-03   10.59       1.6  T
   4  -3771.6271513 -0.313841E-06  0.272E-04   10.59       6.2  T
   5  -3771.6271514 -0.922264E-07  0.724E-05   10.59      23.2  T
     SCC iter.                  ...        6 min,  7.841 sec
     gradient                   ...        4 min, 25.662 sec
 * total energy  : -3716.0322728 Eh     change    :  -0.8049354E-02 Eh
   gradient norm :     0.2035154 Eh/a0  converged?    E=F G=F D=F
   time step     :     0.2013138 fs     power     :   0.5020419E-06
   step length   :     0.0375392 a0     speed     :   0.4510519E-02

........................................................................
.............................. CYCLE   15 ..............................
........................................................................

 iter      E             dE          RMSdq      gap      omega  full diag
   1  -3771.5418926 -0.377154E+04  0.471E-03   10.59       0.0  T
   2  -3771.5419101 -0.175395E-04  0.290E-03   10.60       1.0  T
   3  -3771.5419104 -0.280548E-06  0.123E-03   10.60       1.4  T
   4  -3771.5419108 -0.437264E-06  0.326E-04   10.60       5.2  T
   5  -3771.5419110 -0.131634E-06  0.860E-05   10.60      19.5  T
     SCC iter.                  ...        6 min, 10.893 sec
     gradient                   ...        4 min, 26.098 sec
 * total energy  : -3716.0408493 Eh     change    :  -0.8576532E-02 Eh
   gradient norm :     0.1773571 Eh/a0  converged?    E=F G=F D=F
   time step     :     0.2013138 fs     power     :   0.5245737E-06
   step length   :     0.0452462 a0     speed     :   0.5436554E-02

........................................................................
.............................. CYCLE   16 ..............................
........................................................................

 iter      E             dE          RMSdq      gap      omega  full diag
   1  -3771.4450110 -0.377145E+04  0.535E-03   10.60       0.0  T
   2  -3771.4450337 -0.227514E-04  0.330E-03   10.60       1.0  T
   3  -3771.4450341 -0.368785E-06  0.140E-03   10.60       1.2  T
   4  -3771.4450347 -0.555976E-06  0.371E-04   10.60       4.5  T
   5  -3771.4450348 -0.169707E-06  0.981E-05   10.60      17.1  T
     SCC iter.                  ...        6 min,  6.194 sec
     gradient                   ...        4 min, 25.023 sec
 * total energy  : -3716.0492179 Eh     change    :  -0.8368549E-02 Eh
   gradient norm :     0.1491207 Eh/a0  converged?    E=F G=F D=F
   time step     :     0.2013138 fs     power     :   0.4992746E-06
   step length   :     0.0519123 a0     speed     :   0.6237525E-02

........................................................................
.............................. CYCLE   17 ..............................
........................................................................

 iter      E             dE          RMSdq      gap      omega  full diag
   1  -3771.3281117 -0.377133E+04  0.647E-03   10.60       0.0  T
   2  -3771.3281451 -0.334152E-04  0.400E-03   10.60       1.0  T
   3  -3771.3281456 -0.544904E-06  0.170E-03   10.60       1.0  T
   4  -3771.3281464 -0.795751E-06  0.449E-04   10.60       3.7  T
   5  -3771.3281467 -0.246695E-06  0.117E-04   10.60      14.4  T
     SCC iter.                  ...        6 min,  8.449 sec
     gradient                   ...        4 min, 24.468 sec
 * total energy  : -3716.0574408 Eh     change    :  -0.8222888E-02 Eh
   gradient norm :     0.1183708 Eh/a0  converged?    E=F G=F D=F
   time step     :     0.2214451 fs     power     :   0.4236370E-06
   step length   :     0.0637420 a0     speed     :   0.6962651E-02

........................................................................
.............................. CYCLE   18 ..............................
........................................................................

 iter      E             dE          RMSdq      gap      omega  full diag
   1  -3771.1933897 -0.377119E+04  0.751E-03   10.61       0.0  T
   2  -3771.1934349 -0.451873E-04  0.467E-03   10.61       1.0  T
   3  -3771.1934356 -0.737083E-06  0.197E-03   10.61       1.0  T
   4  -3771.1934367 -0.105218E-05  0.522E-04   10.61       3.2  T
   5  -3771.1934370 -0.331084E-06  0.135E-04   10.61      12.5  T
   6  -3771.1934370 -0.151704E-07  0.936E-05   10.61      18.0  T
     SCC iter.                  ...        7 min, 24.125 sec
     gradient                   ...        4 min, 25.727 sec
 * total energy  : -3716.0645128 Eh     change    :  -0.7071997E-02 Eh
   gradient norm :     0.0913261 Eh/a0  converged?    E=F G=F D=F
   time step     :     0.2435896 fs     power     :   0.3012659E-06
   step length   :     0.0759962 a0     speed     :   0.7546543E-02

........................................................................
.............................. CYCLE   19 ..............................
........................................................................

 iter      E             dE          RMSdq      gap      omega  full diag
   1  -3771.0493553 -0.377105E+04  0.823E-03   10.61       0.0  T
   2  -3771.0494089 -0.536587E-04  0.515E-03   10.61       1.0  T
   3  -3771.0494098 -0.829372E-06  0.214E-03   10.61       1.0  T
   4  -3771.0494110 -0.123863E-05  0.568E-04   10.61       3.0  T
   5  -3771.0494114 -0.387533E-06  0.136E-04   10.61      12.3  T
   6  -3771.0494114 -0.131126E-07  0.904E-05   10.61      18.6  T
     SCC iter.                  ...        7 min, 21.210 sec
     gradient                   ...        4 min, 25.571 sec
 * total energy  : -3716.0695023 Eh     change    :  -0.4989524E-02 Eh
   gradient norm :     0.0814941 Eh/a0  converged?    E=F G=F D=F
   time step     :     0.2679486 fs     power     :   0.1572521E-06
   step length   :     0.0872611 a0     speed     :   0.7877424E-02

........................................................................
.............................. CYCLE   20 ..............................
........................................................................

 iter      E             dE          RMSdq      gap      omega  full diag
   1  -3770.9145148 -0.377091E+04  0.826E-03   10.62       0.0  T
   2  -3770.9145659 -0.511119E-04  0.522E-03   10.62       1.0  T
   3  -3770.9145666 -0.675767E-06  0.209E-03   10.62       1.0  T
   4  -3770.9145678 -0.127689E-05  0.558E-04   10.62       3.0  T
   5  -3770.9145682 -0.370871E-06  0.135E-04   10.62      12.5  T
   6  -3770.9145682 -0.109176E-07  0.838E-05   10.62      20.1  T
     SCC iter.                  ...        7 min, 23.474 sec
     gradient                   ...        4 min, 25.021 sec
 * total energy  : -3716.0722204 Eh     change    :  -0.2718135E-02 Eh
   gradient norm :     0.0951878 Eh/a0  converged?    E=F G=F D=F
   time step     :     0.2947435 fs     power     :   0.4398522E-07
   step length   :     0.0948760 a0     speed     :   0.7786232E-02
 * RMSD in coord.:     0.0375565 a0     energy gain  -0.7124375E+00 Eh

........................................................................
.............................. CYCLE   21 ..............................
........................................................................

 iter      E             dE          RMSdq      gap      omega  full diag
   1  -3770.8325991 -0.377083E+04  0.587E-03   10.63       0.0  T
   2  -3770.8326213 -0.221507E-04  0.374E-03   10.63       1.0  T
   3  -3770.8326214 -0.154190E-06  0.137E-03   10.63       1.2  T
   4  -3770.8326221 -0.716118E-06  0.369E-04   10.63       4.6  T
   5  -3770.8326223 -0.163861E-06  0.968E-05   10.63      17.4  T
     SCC iter.                  ...        6 min,  8.365 sec
     gradient                   ...        4 min, 29.538 sec
 * total energy  : -3716.0734683 Eh     change    :  -0.1247897E-02 Eh
   gradient norm :     0.1118331 Eh/a0  converged?    E=F G=F D=F
   time step     :     0.2500000 fs     power     :   0.2390986E-07
   step length   :     0.0751312 a0     speed     :   0.7269345E-02

........................................................................
.............................. CYCLE   22 ..............................
........................................................................

 iter      E             dE          RMSdq      gap      omega  full diag
   1  -3770.7859554 -0.377079E+04  0.485E-03   10.63       0.0  T
   2  -3770.7859658 -0.103681E-04  0.309E-03   10.64       1.0  T
   3  -3770.7859657  0.102611E-06  0.885E-04   10.64       1.9  T
   4  -3770.7859662 -0.557774E-06  0.253E-04   10.64       6.7  T
     SCC iter.                  ...        4 min, 50.259 sec
     gradient                   ...        4 min, 26.448 sec
 * total energy  : -3716.0750010 Eh     change    :  -0.1532653E-02 Eh
   gradient norm :     0.1238477 Eh/a0  converged?    E=F G=F D=F
   time step     :     0.2500000 fs     power     :   0.5761668E-07
   step length   :     0.0698001 a0     speed     :   0.6753534E-02

........................................................................
.............................. CYCLE   23 ..............................
........................................................................

 iter      E             dE          RMSdq      gap      omega  full diag
   1  -3770.7738851 -0.377077E+04  0.424E-03   10.64       0.0  T
   2  -3770.7738883 -0.318420E-05  0.265E-03   10.64       1.0  T
   3  -3770.7738882  0.123680E-06  0.406E-04   10.64       4.1  T
   4  -3770.7738885 -0.343751E-06  0.150E-04   10.64      11.2  T
     SCC iter.                  ...        4 min, 57.160 sec
     gradient                   ...        4 min, 27.780 sec
 * total energy  : -3716.0774950 Eh     change    :  -0.2494047E-02 Eh
   gradient norm :     0.1287648 Eh/a0  converged?    E=F G=F D=F
   time step     :     0.2500000 fs     power     :   0.1192603E-06
   step length   :     0.0661338 a0     speed     :   0.6398804E-02

........................................................................
.............................. CYCLE   24 ..............................
........................................................................

 iter      E             dE          RMSdq      gap      omega  full diag
   1  -3770.7939558 -0.377079E+04  0.415E-03   10.65       0.0  T
   2  -3770.7939563 -0.510478E-06  0.249E-03   10.65       1.0  T
   3  -3770.7939564 -0.916325E-07  0.186E-04   10.65       9.0  T
   4  -3770.7939564 -0.502173E-07  0.103E-04   10.65      16.3  T
     SCC iter.                  ...        5 min,  8.270 sec
     gradient                   ...        4 min, 27.788 sec
 * total energy  : -3716.0811570 Eh     change    :  -0.3661962E-02 Eh
   gradient norm :     0.1265314 Eh/a0  converged?    E=F G=F D=F
   time step     :     0.2500000 fs     power     :   0.1845927E-06
   step length   :     0.0647138 a0     speed     :   0.6261408E-02

........................................................................
.............................. CYCLE   25 ..............................
........................................................................

 iter      E             dE          RMSdq      gap      omega  full diag
   1  -3770.8428083 -0.377084E+04  0.448E-03   10.66       0.0  T
   2  -3770.8428096 -0.131705E-05  0.260E-03   10.66       1.0  T
   3  -3770.8428097 -0.294399E-07  0.363E-04   10.66       4.6  T
   4  -3770.8428098 -0.151420E-06  0.118E-04   10.66      14.2  T
     SCC iter.                  ...        4 min, 54.577 sec
     gradient                   ...        4 min, 27.876 sec
 * total energy  : -3716.0858228 Eh     change    :  -0.4665851E-02 Eh
   gradient norm :     0.1181391 Eh/a0  converged?    E=F G=F D=F
   time step     :     0.2500000 fs     power     :   0.2358344E-06
   step length   :     0.0653605 a0     speed     :   0.6323976E-02

........................................................................
.............................. CYCLE   26 ..............................
........................................................................

 iter      E             dE          RMSdq      gap      omega  full diag
   1  -3770.9255086 -0.377093E+04  0.556E-03   10.67       0.0  T
   2  -3770.9255142 -0.559323E-05  0.317E-03   10.67       1.0  T
   3  -3770.9255141  0.105620E-06  0.764E-04   10.67       2.2  T
   4  -3770.9255146 -0.470129E-06  0.176E-04   10.67       9.6  T
     SCC iter.                  ...        4 min, 54.597 sec
     gradient                   ...        4 min, 25.181 sec
 * total energy  : -3716.0916633 Eh     change    :  -0.5840498E-02 Eh
   gradient norm :     0.1036915 Eh/a0  converged?    E=F G=F D=F
   time step     :     0.2750000 fs     power     :   0.2625014E-06
   step length   :     0.0747560 a0     speed     :   0.6575495E-02

........................................................................
.............................. CYCLE   27 ..............................
........................................................................

 iter      E             dE          RMSdq      gap      omega  full diag
   1  -3771.0436216 -0.377104E+04  0.685E-03   10.68       0.0  T
   2  -3771.0436349 -0.133120E-04  0.388E-03   10.67       1.0  T
   3  -3771.0436348  0.150377E-06  0.114E-03   10.67       1.5  T
   4  -3771.0436356 -0.797448E-06  0.253E-04   10.67       6.7  T
   5  -3771.0436357 -0.987848E-07  0.127E-04   10.67      13.3  T
     SCC iter.                  ...        6 min, 11.571 sec
     gradient                   ...        4 min, 27.157 sec
 * total energy  : -3716.0981450 Eh     change    :  -0.6481704E-02 Eh
   gradient norm :     0.0855551 Eh/a0  converged?    E=F G=F D=F
   time step     :     0.3025000 fs     power     :   0.2543393E-06
   step length   :     0.0868992 a0     speed     :   0.6948730E-02

........................................................................
.............................. CYCLE   28 ..............................
........................................................................

 iter      E             dE          RMSdq      gap      omega  full diag
   1  -3771.1947911 -0.377119E+04  0.812E-03   10.68       0.0  T
   2  -3771.1948139 -0.227358E-04  0.458E-03   10.68       1.0  T
   3  -3771.1948137  0.136342E-06  0.143E-03   10.68       1.2  T
   4  -3771.1948148 -0.104113E-05  0.321E-04   10.68       5.2  T
   5  -3771.1948150 -0.162462E-06  0.140E-04   10.68      12.0  T
   6  -3771.1948150 -0.213295E-07  0.858E-05   10.68      19.6  T
     SCC iter.                  ...        7 min, 16.726 sec
     gradient                   ...        4 min, 26.331 sec
 * total energy  : -3716.1044643 Eh     change    :  -0.6319236E-02 Eh
   gradient norm :     0.0703003 Eh/a0  converged?    E=F G=F D=F
   time step     :     0.3327500 fs     power     :   0.2119142E-06
   step length   :     0.1011007 a0     speed     :   0.7349392E-02

........................................................................
.............................. CYCLE   29 ..............................
........................................................................

 iter      E             dE          RMSdq      gap      omega  full diag
   1  -3771.3678477 -0.377137E+04  0.898E-03   10.69       0.0  T
   2  -3771.3678758 -0.281346E-04  0.504E-03   10.69       1.0  T
   3  -3771.3678757  0.108074E-06  0.155E-03   10.69       1.1  T
   4  -3771.3678768 -0.108118E-05  0.352E-04   10.69       4.8  T
   5  -3771.3678770 -0.195220E-06  0.140E-04   10.69      12.0  T
   6  -3771.3678770 -0.179680E-07  0.824E-05   10.69      20.4  T
     SCC iter.                  ...        7 min, 29.009 sec
     gradient                   ...        4 min, 27.219 sec
 * total energy  : -3716.1099364 Eh     change    :  -0.5472117E-02 Eh
   gradient norm :     0.0675740 Eh/a0  converged?    E=F G=F D=F
   time step     :     0.3660250 fs     power     :   0.1550215E-06
   step length   :     0.1158256 a0     speed     :   0.7654362E-02

........................................................................
.............................. CYCLE   30 ..............................
........................................................................

 iter      E             dE          RMSdq      gap      omega  full diag
   1  -3771.5389725 -0.377154E+04  0.904E-03   10.70       0.0  T
   2  -3771.5389954 -0.229256E-04  0.505E-03   10.70       1.0  T
   3  -3771.5389955 -0.229766E-07  0.135E-03   10.70       1.2  T
   4  -3771.5389962 -0.743237E-06  0.310E-04   10.70       5.4  T
   5  -3771.5389963 -0.144301E-06  0.134E-04   10.70      12.6  T
     SCC iter.                  ...        6 min, 11.298 sec
     gradient                   ...        4 min, 28.176 sec
 * total energy  : -3716.1146265 Eh     change    :  -0.4690099E-02 Eh
   gradient norm :     0.0758361 Eh/a0  converged?    E=F G=F D=F
   time step     :     0.4026275 fs     power     :   0.1185769E-06
   step length   :     0.1288539 a0     speed     :   0.7741216E-02

........................................................................
.............................. CYCLE   31 ..............................
........................................................................

 iter      E             dE          RMSdq      gap      omega  full diag
   1  -3771.6806779 -0.377168E+04  0.843E-03   10.71       0.0  T
   2  -3771.6806885 -0.105689E-04  0.475E-03   10.71       1.0  T
   3  -3771.6806888 -0.291573E-06  0.870E-04   10.70       1.9  T
   4  -3771.6806890 -0.230988E-06  0.204E-04   10.70       8.2  T
     SCC iter.                  ...        5 min, 10.931 sec
     gradient                   ...        4 min, 26.425 sec
 * total energy  : -3716.1194490 Eh     change    :  -0.4822526E-02 Eh
   gradient norm :     0.0820409 Eh/a0  converged?    E=F G=F D=F
   time step     :     0.4428903 fs     power     :   0.1191763E-06
   step length   :     0.1406883 a0     speed     :   0.7683815E-02

........................................................................
.............................. CYCLE   32 ..............................
........................................................................

 iter      E             dE          RMSdq      gap      omega  full diag
   1  -3771.7700000 -0.377177E+04  0.779E-03   10.71       0.0  T
   2  -3771.7700027 -0.275705E-05  0.456E-03   10.71       1.0  T
   3  -3771.7700026  0.119819E-06  0.620E-04   10.71       2.7  T
   4  -3771.7700033 -0.675873E-06  0.188E-04   10.71       9.0  T
     SCC iter.                  ...        5 min,  0.542 sec
     gradient                   ...        4 min, 26.424 sec
 * total energy  : -3716.1253093 Eh     change    :  -0.5860346E-02 Eh
   gradient norm :     0.0779036 Eh/a0  converged?    E=F G=F D=F
   time step     :     0.4871793 fs     power     :   0.1378723E-06
   step length   :     0.1546020 a0     speed     :   0.7676116E-02

........................................................................
.............................. CYCLE   33 ..............................
........................................................................

 iter      E             dE          RMSdq      gap      omega  full diag
   1  -3771.7920926 -0.377179E+04  0.776E-03   10.72       0.0  T
   2  -3771.7921030 -0.103762E-04  0.486E-03   10.72       1.0  T
   3  -3771.7921016  0.139196E-05  0.113E-03   10.72       1.5  T
   4  -3771.7921042 -0.258672E-05  0.225E-04   10.72       7.5  T
   5  -3771.7921042 -0.332479E-07  0.127E-04   10.72      13.3  T
   6  -3771.7921042 -0.786304E-08  0.532E-05   10.72      31.6  T
     SCC iter.                  ...        7 min, 24.738 sec
     gradient                   ...        4 min, 26.306 sec
 * total energy  : -3716.1320745 Eh     change    :  -0.6765128E-02 Eh
   gradient norm :     0.0650716 Eh/a0  converged?    E=F G=F D=F
   time step     :     0.5358972 fs     power     :   0.1389554E-06
   step length   :     0.1729482 a0     speed     :   0.7806378E-02

........................................................................
.............................. CYCLE   34 ..............................
........................................................................

 iter      E             dE          RMSdq      gap      omega  full diag
   1  -3771.7495105 -0.377175E+04  0.835E-03   10.73       0.0  T
   2  -3771.7495407 -0.301885E-04  0.544E-03   10.73       1.0  T
   3  -3771.7495401  0.590310E-06  0.167E-03   10.73       1.0  T
   4  -3771.7495425 -0.235301E-05  0.397E-04   10.73       4.2  T
   5  -3771.7495427 -0.214165E-06  0.160E-04   10.73      10.5  T
   6  -3771.7495427 -0.185569E-07  0.852E-05   10.73      19.7  T
     SCC iter.                  ...        7 min, 19.693 sec
     gradient                   ...        4 min, 26.545 sec
 * total energy  : -3716.1385429 Eh     change    :  -0.6468465E-02 Eh
   gradient norm :     0.0578963 Eh/a0  converged?    E=F G=F D=F
   time step     :     0.5894869 fs     power     :   0.1082648E-06
   step length   :     0.1949301 a0     speed     :   0.7998709E-02

........................................................................
.............................. CYCLE   35 ..............................
........................................................................

 iter      E             dE          RMSdq      gap      omega  full diag
   1  -3771.6804091 -0.377168E+04  0.886E-03   10.75       0.0  T
   2  -3771.6804443 -0.352215E-04  0.569E-03   10.75       1.0  T
   3  -3771.6804442  0.709961E-07  0.161E-03   10.75       1.0  T
   4  -3771.6804458 -0.158393E-05  0.495E-04   10.75       3.4  T
   5  -3771.6804461 -0.299854E-06  0.179E-04   10.75       9.4  T
   6  -3771.6804461 -0.195309E-07  0.829E-05   10.75      20.3  T
     SCC iter.                  ...        7 min, 30.474 sec
     gradient                   ...        4 min, 24.937 sec
 * total energy  : -3716.1441652 Eh     change    :  -0.5622230E-02 Eh
   gradient norm :     0.0639099 Eh/a0  converged?    E=F G=F D=F
   time step     :     0.6484356 fs     power     :   0.8141043E-07
   step length   :     0.2163392 a0     speed     :   0.8070183E-02

........................................................................
.............................. CYCLE   36 ..............................
........................................................................

 iter      E             dE          RMSdq      gap      omega  full diag
   1  -3771.6465467 -0.377165E+04  0.988E-03   10.77       0.0  T
   2  -3771.6465625 -0.158077E-04  0.595E-03   10.77       1.0  T
   3  -3771.6465633 -0.779560E-06  0.906E-04   10.77       1.9  T
   4  -3771.6465637 -0.457877E-06  0.324E-04   10.77       5.2  T
     SCC iter.                  ...        4 min, 58.439 sec
     gradient                   ...        4 min, 24.448 sec
 * total energy  : -3716.1500874 Eh     change    :  -0.5922203E-02 Eh
   gradient norm :     0.0638023 Eh/a0  converged?    E=F G=F D=F
   time step     :     0.7132792 fs     power     :   0.8442091E-07
   step length   :     0.2367150 a0     speed     :   0.8027519E-02

........................................................................
.............................. CYCLE   37 ..............................
........................................................................

 iter      E             dE          RMSdq      gap      omega  full diag
   1  -3771.6944438 -0.377169E+04  0.120E-02   10.79       0.0  T
   2  -3771.6944519 -0.811033E-05  0.692E-03   10.79       1.0  T
   3  -3771.6944518  0.163880E-06  0.123E-03   10.79       1.4  T
   4  -3771.6944538 -0.204051E-05  0.348E-04   10.79       4.8  T
   5  -3771.6944538 -0.151217E-07  0.123E-04   10.79      13.7  T
   6  -3771.6944538 -0.588534E-08  0.321E-05   10.79      52.4  T
     SCC iter.                  ...        7 min, 21.092 sec
     gradient                   ...        4 min, 25.975 sec
 * total energy  : -3716.1565926 Eh     change    :  -0.6505191E-02 Eh
   gradient norm :     0.0520894 Eh/a0  converged?    E=F G=F D=F
   time step     :     0.7846071 fs     power     :   0.7822943E-07
   step length   :     0.2615110 a0     speed     :   0.8062187E-02

........................................................................
.............................. CYCLE   38 ..............................
........................................................................

 iter      E             dE          RMSdq      gap      omega  full diag
   1  -3771.8237640 -0.377182E+04  0.132E-02   10.82       0.0  T
   2  -3771.8237877 -0.236282E-04  0.761E-03   10.82       1.0  T
   3  -3771.8237866  0.108666E-05  0.172E-03   10.82       1.0  T
   4  -3771.8237899 -0.335235E-05  0.363E-04   10.82       4.6  T
   5  -3771.8237900 -0.107538E-06  0.182E-04   10.82       9.3  T
   6  -3771.8237900 -0.104201E-07  0.612E-05   10.82      27.5  T
     SCC iter.                  ...        7 min, 21.535 sec
     gradient                   ...        4 min, 25.691 sec
 * total energy  : -3716.1619661 Eh     change    :  -0.5373509E-02 Eh
   gradient norm :     0.0536810 Eh/a0  converged?    E=F G=F D=F
   time step     :     0.8630678 fs     power     :   0.4433867E-07
   step length   :     0.2890946 a0     speed     :   0.8102334E-02

........................................................................
.............................. CYCLE   39 ..............................
........................................................................

 iter      E             dE          RMSdq      gap      omega  full diag
   1  -3771.9585014 -0.377196E+04  0.118E-02   10.85       0.0  T
   2  -3771.9585160 -0.146005E-04  0.685E-03   10.85       1.0  T
   3  -3771.9585164 -0.407579E-06  0.103E-03   10.85       1.6  T
   4  -3771.9585172 -0.752405E-06  0.276E-04   10.85       6.1  T
   5  -3771.9585172 -0.478462E-07  0.146E-04   10.85      11.5  T
     SCC iter.                  ...        6 min, 11.521 sec
     gradient                   ...        4 min, 24.887 sec
 * total energy  : -3716.1668501 Eh     change    :  -0.4884057E-02 Eh
   gradient norm :     0.0584660 Eh/a0  converged?    E=F G=F D=F
   time step     :     0.9493746 fs     power     :   0.4106132E-07
   step length   :     0.3121300 a0     speed     :   0.7952671E-02

........................................................................
.............................. CYCLE   40 ..............................
........................................................................

 iter      E             dE          RMSdq      gap      omega  full diag
   1  -3772.0280496 -0.377203E+04  0.115E-02   10.87       0.0  T
   2  -3772.0280648 -0.152006E-04  0.687E-03   10.87       1.0  T
   3  -3772.0280630  0.186779E-05  0.156E-03   10.87       1.1  T
   4  -3772.0280674 -0.442206E-05  0.333E-04   10.87       5.0  T
   5  -3772.0280674 -0.359646E-07  0.178E-04   10.87       9.4  T
   6  -3772.0280675 -0.159826E-07  0.678E-05   10.87      24.8  T
     SCC iter.                  ...        7 min, 24.055 sec
     gradient                   ...        4 min, 25.954 sec
 * total energy  : -3716.1726571 Eh     change    :  -0.5806969E-02 Eh
   gradient norm :     0.0496331 Eh/a0  converged?    E=F G=F D=F
   time step     :     1.0443120 fs     power     :   0.4353727E-07
   step length   :     0.3396573 a0     speed     :   0.7867301E-02

........................................................................
.............................. CYCLE   41 ..............................
........................................................................

 iter      E             dE          RMSdq      gap      omega  full diag
   1  -3772.0479128 -0.377205E+04  0.126E-02   10.89       0.0  T
   2  -3772.0479439 -0.311259E-04  0.775E-03   10.89       1.0  T
   3  -3772.0479420  0.191082E-05  0.178E-03   10.89       1.0  T
   4  -3772.0479469 -0.496494E-05  0.429E-04   10.89       3.9  T
   5  -3772.0479471 -0.169010E-06  0.231E-04   10.89       7.3  T
   6  -3772.0479471 -0.357695E-07  0.106E-04   10.89      15.9  T
     SCC iter.                  ...        7 min, 29.348 sec
     gradient                   ...        4 min, 25.206 sec
 * total energy  : -3716.1776383 Eh     change    :  -0.4981240E-02 Eh
   gradient norm :     0.0503622 Eh/a0  converged?    E=F G=F D=F
   time step     :     1.1487432 fs     power     :   0.2159989E-07
   step length   :     0.3719542 a0     speed     :   0.7832160E-02

........................................................................
.............................. CYCLE   42 ..............................
........................................................................

 iter      E             dE          RMSdq      gap      omega  full diag
   1  -3772.1130346 -0.377211E+04  0.141E-02   10.92       0.0  T
   2  -3772.1130432 -0.859423E-05  0.819E-03   10.92       1.0  T
   3  -3772.1130435 -0.336026E-06  0.101E-03   10.92       1.7  T
   4  -3772.1130447 -0.116814E-05  0.327E-04   10.92       5.1  T
   5  -3772.1130447 -0.317614E-07  0.165E-04   10.92      10.2  T
   6  -3772.1130448 -0.143687E-07  0.573E-05   10.92      29.3  T
     SCC iter.                  ...        7 min, 24.999 sec
     gradient                   ...        4 min, 26.901 sec
 * total energy  : -3716.1817576 Eh     change    :  -0.4119244E-02 Eh
   gradient norm :     0.0470190 Eh/a0  converged?    E=F G=F D=F
   time step     :     1.2500000 fs     power     :   0.9789262E-08
   step length   :     0.3960099 a0     speed     :   0.7663217E-02
 * RMSD in coord.:     0.0591902 a0     energy gain  -0.1095372E+00 Eh

........................................................................
.............................. CYCLE   43 ..............................
........................................................................

 iter      E             dE          RMSdq      gap      omega  full diag
   1  -3772.1266977 -0.377213E+04  0.238E-03   10.93       0.0  T
   2  -3772.1266979 -0.273581E-06  0.137E-03   10.93       1.2  T
   3  -3772.1266979  0.138516E-07  0.209E-04   10.93       8.0  T
   4  -3772.1266980 -0.611049E-07  0.542E-05   10.93      31.0  T
     SCC iter.                  ...        4 min, 58.448 sec
     gradient                   ...        4 min, 25.418 sec
 * total energy  : -3716.1823451 Eh     change    :  -0.5875466E-03 Eh
   gradient norm :     0.0472918 Eh/a0  converged?    E=F G=F D=F
   time step     :     0.2500000 fs     power     :   0.2691005E-07
   step length   :     0.0725977 a0     speed     :   0.7024221E-02

........................................................................
.............................. CYCLE   44 ..............................
........................................................................

 iter      E             dE          RMSdq      gap      omega  full diag
   1  -3772.1399040 -0.377214E+04  0.227E-03   10.94       0.0  T
   2  -3772.1399046 -0.530154E-06  0.133E-03   10.94       1.3  T
   3  -3772.1399045  0.241862E-07  0.241E-04   10.94       7.0  T
   4  -3772.1399046 -0.712903E-07  0.505E-05   10.94      33.3  T
     SCC iter.                  ...        4 min, 57.610 sec
     gradient                   ...        4 min, 27.523 sec
 * total energy  : -3716.1831948 Eh     change    :  -0.8496252E-03 Eh
   gradient norm :     0.0439177 Eh/a0  converged?    E=F G=F D=F
   time step     :     0.2500000 fs     power     :   0.4079457E-07
   step length   :     0.0675517 a0     speed     :   0.6535994E-02

........................................................................
.............................. CYCLE   45 ..............................
........................................................................

 iter      E             dE          RMSdq      gap      omega  full diag
   1  -3772.1509817 -0.377215E+04  0.241E-03   10.94       0.0  T
   2  -3772.1509825 -0.844772E-06  0.145E-03   10.94       1.2  T
   3  -3772.1509825  0.117375E-07  0.267E-04   10.94       6.3  T
   4  -3772.1509826 -0.726372E-07  0.618E-05   10.94      27.2  T
     SCC iter.                  ...        4 min, 55.598 sec
     gradient                   ...        4 min, 26.717 sec
 * total energy  : -3716.1841877 Eh     change    :  -0.9929967E-03 Eh
   gradient norm :     0.0379702 Eh/a0  converged?    E=F G=F D=F
   time step     :     0.2500000 fs     power     :   0.4694049E-07
   step length   :     0.0638522 a0     speed     :   0.6178047E-02

........................................................................
.............................. CYCLE   46 ..............................
........................................................................

 iter      E             dE          RMSdq      gap      omega  full diag
   1  -3772.1581712 -0.377216E+04  0.265E-03   10.95       0.0  T
   2  -3772.1581723 -0.103541E-05  0.161E-03   10.95       1.0  T
   3  -3772.1581723 -0.842374E-08  0.275E-04   10.95       6.1  T
   4  -3772.1581724 -0.723098E-07  0.729E-05   10.95      23.1  T
     SCC iter.                  ...        4 min, 55.545 sec
     gradient                   ...        4 min, 32.772 sec
 * total energy  : -3716.1851682 Eh     change    :  -0.9804307E-03 Eh
   gradient norm :     0.0310923 Eh/a0  converged?    E=F G=F D=F
   time step     :     0.2500000 fs     power     :   0.4446819E-07
   step length   :     0.0611357 a0     speed     :   0.5915204E-02

........................................................................
.............................. CYCLE   47 ..............................
........................................................................

 iter      E             dE          RMSdq      gap      omega  full diag
   1  -3772.1597113 -0.377216E+04  0.283E-03   10.95       0.0  T
   2  -3772.1597123 -0.101425E-05  0.172E-03   10.95       1.0  T
   3  -3772.1597123 -0.269024E-07  0.266E-04   10.95       6.3  T
   4  -3772.1597124 -0.739215E-07  0.810E-05   10.95      20.8  T
     SCC iter.                  ...        4 min, 53.894 sec
     gradient                   ...        4 min, 27.192 sec
 * total energy  : -3716.1860043 Eh     change    :  -0.8361262E-03 Eh
   gradient norm :     0.0256521 Eh/a0  converged?    E=F G=F D=F
   time step     :     0.2500000 fs     power     :   0.3562629E-07
   step length   :     0.0589516 a0     speed     :   0.5703881E-02

........................................................................
.............................. CYCLE   48 ..............................
........................................................................

 iter      E             dE          RMSdq      gap      omega  full diag
   1  -3772.1536494 -0.377215E+04  0.317E-03   10.96       0.0  T
   2  -3772.1536504 -0.985689E-06  0.191E-03   10.96       1.0  T
   3  -3772.1536504 -0.329337E-07  0.285E-04   10.96       5.9  T
   4  -3772.1536505 -0.106923E-06  0.956E-05   10.96      17.6  T
     SCC iter.                  ...        4 min, 57.426 sec
     gradient                   ...        4 min, 24.863 sec
 * total energy  : -3716.1866872 Eh     change    :  -0.6829118E-03 Eh
   gradient norm :     0.0240652 Eh/a0  converged?    E=F G=F D=F
   time step     :     0.2750000 fs     power     :   0.2355725E-07
   step length   :     0.0624921 a0     speed     :   0.5496774E-02

........................................................................
.............................. CYCLE   49 ..............................
........................................................................

 iter      E             dE          RMSdq      gap      omega  full diag
   1  -3772.1390051 -0.377214E+04  0.327E-03   10.97       0.0  T
   2  -3772.1390060 -0.857081E-06  0.193E-03   10.97       1.0  T
   3  -3772.1390060 -0.640148E-08  0.318E-04   10.96       5.3  T
   4  -3772.1390061 -0.161225E-06  0.103E-04   10.97      16.4  T
     SCC iter.                  ...        4 min, 57.109 sec
     gradient                   ...        4 min, 26.084 sec
 * total energy  : -3716.1872013 Eh     change    :  -0.5140351E-03 Eh
   gradient norm :     0.0268261 Eh/a0  converged?    E=F G=F D=F
   time step     :     0.3025000 fs     power     :   0.1450207E-07
   step length   :     0.0653562 a0     speed     :   0.5226083E-02

........................................................................
.............................. CYCLE   50 ..............................
........................................................................

 iter      E             dE          RMSdq      gap      omega  full diag
   1  -3772.1177366 -0.377212E+04  0.317E-03   10.97       0.0  T
   2  -3772.1177374 -0.834728E-06  0.184E-03   10.97       1.0  T
   3  -3772.1177374  0.181803E-07  0.340E-04   10.97       4.9  T
   4  -3772.1177376 -0.181787E-06  0.970E-05   10.97      17.3  T
     SCC iter.                  ...        5 min,  4.609 sec
     gradient                   ...        4 min, 27.706 sec
 * total energy  : -3716.1876495 Eh     change    :  -0.4482260E-03 Eh
   gradient norm :     0.0305276 Eh/a0  converged?    E=F G=F D=F
   time step     :     0.3327500 fs     power     :   0.1213364E-07
   step length   :     0.0673946 a0     speed     :   0.4899162E-02

........................................................................
.............................. CYCLE   51 ..............................
........................................................................

 iter      E             dE          RMSdq      gap      omega  full diag
   1  -3772.0932529 -0.377209E+04  0.304E-03   10.97       0.0  T
   2  -3772.0932538 -0.961245E-06  0.174E-03   10.97       1.0  T
   3  -3772.0932538  0.185155E-07  0.339E-04   10.97       5.0  T
   4  -3772.0932540 -0.149142E-06  0.835E-05   10.97      20.1  T
     SCC iter.                  ...        4 min, 54.605 sec
     gradient                   ...        4 min, 24.952 sec
 * total energy  : -3716.1881793 Eh     change    :  -0.5298038E-03 Eh
   gradient norm :     0.0323506 Eh/a0  converged?    E=F G=F D=F
   time step     :     0.3660250 fs     power     :   0.1524499E-07
   step length   :     0.0694336 a0     speed     :   0.4588538E-02

........................................................................
.............................. CYCLE   52 ..............................
........................................................................

 iter      E             dE          RMSdq      gap      omega  full diag
   1  -3772.0695952 -0.377207E+04  0.309E-03   10.97       0.0  T
   2  -3772.0695963 -0.112287E-05  0.177E-03   10.97       1.0  T
   3  -3772.0695963  0.909404E-08  0.321E-04   10.97       5.2  T
   4  -3772.0695964 -0.101327E-06  0.703E-05   10.97      23.9  T
     SCC iter.                  ...        4 min, 58.855 sec
     gradient                   ...        4 min, 26.456 sec
 * total energy  : -3716.1888902 Eh     change    :  -0.7108681E-03 Eh
   gradient norm :     0.0312736 Eh/a0  converged?    E=F G=F D=F
   time step     :     0.4026275 fs     power     :   0.2000393E-07
   step length   :     0.0723427 a0     speed     :   0.4346169E-02

........................................................................
.............................. CYCLE   53 ..............................
........................................................................

 iter      E             dE          RMSdq      gap      omega  full diag
   1  -3772.0514027 -0.377205E+04  0.337E-03   10.98       0.0  T
   2  -3772.0514039 -0.114527E-05  0.196E-03   10.98       1.0  T
   3  -3772.0514039 -0.637965E-08  0.290E-04   10.98       5.8  T
   4  -3772.0514040 -0.702757E-07  0.623E-05   10.98      27.0  T
     SCC iter.                  ...        5 min,  6.266 sec
     gradient                   ...        4 min, 25.421 sec
 * total energy  : -3716.1897742 Eh     change    :  -0.8840693E-03 Eh
   gradient norm :     0.0277376 Eh/a0  converged?    E=F G=F D=F
   time step     :     0.4428903 fs     power     :   0.2239268E-07
   step length   :     0.0766640 a0     speed     :   0.4187070E-02

........................................................................
.............................. CYCLE   54 ..............................
........................................................................

 iter      E             dE          RMSdq      gap      omega  full diag
   1  -3772.0436721 -0.377204E+04  0.376E-03   10.98       0.0  T
   2  -3772.0436730 -0.946082E-06  0.222E-03   10.98       1.0  T
   3  -3772.0436731 -0.134623E-07  0.270E-04   10.98       6.2  T
   4  -3772.0436731 -0.877180E-07  0.759E-05   10.98      22.2  T
     SCC iter.                  ...        4 min, 55.312 sec
     gradient                   ...        4 min, 26.018 sec
 * total energy  : -3716.1907145 Eh     change    :  -0.9402694E-03 Eh
   gradient norm :     0.0236808 Eh/a0  converged?    E=F G=F D=F
   time step     :     0.4871793 fs     power     :   0.2026860E-07
   step length   :     0.0824166 a0     speed     :   0.4092049E-02

........................................................................
.............................. CYCLE   55 ..............................
........................................................................

 iter      E             dE          RMSdq      gap      omega  full diag
   1  -3772.0502391 -0.377205E+04  0.399E-03   10.98       0.0  T
   2  -3772.0502399 -0.795452E-06  0.236E-03   10.98       1.0  T
   3  -3772.0502399  0.186574E-07  0.315E-04   10.98       5.3  T
   4  -3772.0502401 -0.178349E-06  0.102E-04   10.98      16.5  T
     SCC iter.                  ...        5 min,  1.771 sec
     gradient                   ...        4 min, 28.029 sec
 * total energy  : -3716.1915625 Eh     change    :  -0.8479649E-03 Eh
   gradient norm :     0.0219820 Eh/a0  converged?    E=F G=F D=F
   time step     :     0.5358972 fs     power     :   0.1490808E-07
   step length   :     0.0889239 a0     speed     :   0.4013768E-02

........................................................................
.............................. CYCLE   56 ..............................
........................................................................

 iter      E             dE          RMSdq      gap      omega  full diag
   1  -3772.0699712 -0.377207E+04  0.386E-03   10.98       0.0  T
   2  -3772.0699723 -0.116383E-05  0.228E-03   10.98       1.0  T
   3  -3772.0699723  0.250498E-07  0.374E-04   10.98       4.5  T
   4  -3772.0699725 -0.213139E-06  0.116E-04   10.98      14.5  T
     SCC iter.                  ...        4 min, 53.098 sec
     gradient                   ...        4 min, 24.819 sec
 * total energy  : -3716.1922738 Eh     change    :  -0.7113216E-03 Eh
   gradient norm :     0.0235428 Eh/a0  converged?    E=F G=F D=F
   time step     :     0.5894869 fs     power     :   0.1047918E-07
   step length   :     0.0950326 a0     speed     :   0.3899540E-02

........................................................................
.............................. CYCLE   57 ..............................
........................................................................

 iter      E             dE          RMSdq      gap      omega  full diag
   1  -3772.0950924 -0.377210E+04  0.350E-03   10.99       0.0  T
   2  -3772.0950941 -0.166038E-05  0.206E-03   10.99       1.0  T
   3  -3772.0950941 -0.214613E-07  0.389E-04   10.99       4.3  T
   4  -3772.0950943 -0.130569E-06  0.110E-04   10.99      15.3  T
     SCC iter.                  ...        4 min, 58.665 sec
     gradient                   ...        4 min, 26.560 sec
 * total energy  : -3716.1929813 Eh     change    :  -0.7075421E-03 Eh
   gradient norm :     0.0259832 Eh/a0  converged?    E=F G=F D=F
   time step     :     0.6484356 fs     power     :   0.1035732E-07
   step length   :     0.1006048 a0     speed     :   0.3752901E-02

........................................................................
.............................. CYCLE   58 ..............................
........................................................................

 iter      E             dE          RMSdq      gap      omega  full diag
   1  -3772.1149854 -0.377211E+04  0.334E-03   10.99       0.0  T
   2  -3772.1149868 -0.138718E-05  0.196E-03   10.99       1.0  T
   3  -3772.1149869 -0.465689E-07  0.330E-04   10.99       5.1  T
   4  -3772.1149869 -0.696855E-07  0.903E-05   10.99      18.6  T
     SCC iter.                  ...        4 min, 55.507 sec
     gradient                   ...        4 min, 28.701 sec
 * total energy  : -3716.1939025 Eh     change    :  -0.9211367E-03 Eh
   gradient norm :     0.0261429 Eh/a0  converged?    E=F G=F D=F
   time step     :     0.7132792 fs     power     :   0.1402145E-07
   step length   :     0.1072703 a0     speed     :   0.3637768E-02

........................................................................
.............................. CYCLE   59 ..............................
........................................................................

 iter      E             dE          RMSdq      gap      omega  full diag
   1  -3772.1199554 -0.377212E+04  0.368E-03   11.00       0.0  T
   2  -3772.1199562 -0.757248E-06  0.215E-03   11.00       1.0  T
   3  -3772.1199562 -0.620471E-07  0.288E-04   11.00       5.8  T
   4  -3772.1199563 -0.835580E-07  0.981E-05   11.00      17.1  T
     SCC iter.                  ...        4 min, 52.969 sec
     gradient                   ...        4 min, 24.130 sec
 * total energy  : -3716.1951094 Eh     change    :  -0.1206918E-02 Eh
   gradient norm :     0.0225702 Eh/a0  converged?    E=F G=F D=F
   time step     :     0.7846071 fs     power     :   0.1671473E-07
   step length   :     0.1169672 a0     speed     :   0.3606010E-02

........................................................................
.............................. CYCLE   60 ..............................
........................................................................

 iter      E             dE          RMSdq      gap      omega  full diag
   1  -3772.1046938 -0.377210E+04  0.435E-03   11.00       0.0  T
   2  -3772.1046952 -0.141745E-05  0.253E-03   11.00       1.0  T
   3  -3772.1046953 -0.922478E-07  0.403E-04   11.00       4.2  T
   4  -3772.1046954 -0.136801E-06  0.123E-04   11.00      13.6  T
     SCC iter.                  ...        4 min, 59.823 sec
     gradient                   ...        4 min, 24.908 sec
 * total energy  : -3716.1963688 Eh     change    :  -0.1259406E-02 Eh
   gradient norm :     0.0199809 Eh/a0  converged?    E=F G=F D=F
   time step     :     0.8630678 fs     power     :   0.1405760E-07
   step length   :     0.1298962 a0     speed     :   0.3640546E-02

........................................................................
.............................. CYCLE   61 ..............................
........................................................................

 iter      E             dE          RMSdq      gap      omega  full diag
   1  -3772.0750252 -0.377208E+04  0.454E-03   11.00       0.0  T
   2  -3772.0750276 -0.243166E-05  0.262E-03   11.00       1.0  T
   3  -3772.0750278 -0.110304E-06  0.491E-04   11.00       3.4  T
   4  -3772.0750279 -0.130080E-06  0.125E-04   11.00      13.5  T
     SCC iter.                  ...        4 min, 57.760 sec
     gradient                   ...        4 min, 24.657 sec
 * total energy  : -3716.1975424 Eh     change    :  -0.1173584E-02 Eh
   gradient norm :     0.0228747 Eh/a0  converged?    E=F G=F D=F
   time step     :     0.9493746 fs     power     :   0.1176362E-07
   step length   :     0.1433818 a0     speed     :   0.3653184E-02

........................................................................
.............................. CYCLE   62 ..............................
........................................................................

 iter      E             dE          RMSdq      gap      omega  full diag
   1  -3772.0495932 -0.377205E+04  0.428E-03   11.00       0.0  T
   2  -3772.0495949 -0.172170E-05  0.245E-03   11.00       1.0  T
   3  -3772.0495950 -0.919263E-07  0.443E-04   11.00       3.8  T
   4  -3772.0495951 -0.130424E-06  0.119E-04   11.00      14.2  T
     SCC iter.                  ...        5 min,  4.683 sec
     gradient                   ...        4 min, 28.514 sec
 * total energy  : -3716.1989600 Eh     change    :  -0.1417664E-02 Eh
   gradient norm :     0.0216051 Eh/a0  converged?    E=F G=F D=F
   time step     :     1.0443120 fs     power     :   0.1450093E-07
   step length   :     0.1576660 a0     speed     :   0.3651933E-02

........................................................................
.............................. CYCLE   63 ..............................
[...]
  3281   6 C     3283   6 C                                       1.5367372
  3283   6 C     3284   6 C                                       1.5372975
  3284   6 C     3285   6 C                                       1.5290856
  3284   6 C     3286   6 C                                       1.5331884
  3287   6 C     3288   6 C                                       1.5258895
  3287   6 C     3289   6 C                                       1.5335625
  3289   6 C     3290   6 C                                       1.5381406
  3290   6 C     3291   6 C                                       1.5280372
  3290   6 C     3292   6 C                                       1.5335597
  3292   6 C     3293   6 C                                       1.5369255
  3293   6 C     3294   6 C                                       1.5291495
  3293   6 C     3295   6 C                                       1.5338900
  3295   6 C     3296   6 C                                       1.5392290
  3296   6 C     3297   6 C                                       1.5268478
  3296   6 C     3298   6 C                                       1.5326736
  3298   6 C     3299   6 C                                       1.5342181
  3299   6 C     3300   6 C                                       1.5296280
  3301   6 C     3302   6 C                                       1.5360822
  3302   6 C     3303   6 C                                       1.5272079
  3302   6 C     3304   6 C                                       1.5355024
  3304   6 C     3305   6 C                                       1.5347823
  3305   6 C     3306   6 C                                       1.5296721
  3307   6 C     3308   6 C                                       1.5331692
  3308   6 C     3309   6 C                                       1.5284822
  3308   6 C     3310   6 C                                       1.5343990
  3310   6 C     3311   6 C                                       1.5330879
  3311   6 C     3312   6 C                                       1.5281879
  3311   6 C     3313   6 C                                       1.5360036
  3313   6 C     3314   6 C                                       1.5328692
  3314   6 C     3315   6 C                                       1.5282443
  3314   6 C     3316   6 C                                       1.5353441
  3316   6 C     3317   6 C                                       1.5328478
  3317   6 C     3318   6 C                                       1.5286531
  3317   6 C     3319   6 C                                       1.5372646
  3319   6 C     3320   6 C                                       1.5331974
  3320   6 C     3321   6 C                                       1.5277749
  3320   6 C     3322   6 C                                       1.5379716
  3322   6 C     3323   6 C                                       1.5322092
  3323   6 C     3324   6 C                                       1.5269623
  3323   6 C     3325   6 C                                       1.5395620
  3326   6 C     3327   6 C                                       1.5264722
  3326   6 C     3328   6 C                                       1.5376821
  3328   6 C     3329   6 C                                       1.5349331
  3329   6 C     3330   6 C                                       1.5292701
  3329   6 C     3331   6 C                                       1.5323233
  3331   6 C     3332   6 C                                       1.5355951
  3332   6 C     3333   6 C                                       1.5279250
  3332   6 C     3334   6 C                                       1.5334730
  3334   6 C     3335   6 C                                       1.5338829
  3335   6 C     3336   6 C                                       1.5292153
  3337   6 C     3338   6 C                                       1.5352560
  3338   6 C     3339   6 C                                       1.5282067
  3341   6 C     3342   6 C                                       1.5278201
  3341   6 C     3343   6 C                                       1.5325016
  3343   6 C     3344   6 C                                       1.5357312
  3344   6 C     3345   6 C                                       1.5291053
  3344   6 C     3346   6 C                                       1.5339763
  3346   6 C     3347   6 C                                       1.5356056
  3347   6 C     3348   6 C                                       1.5295707
  3347   6 C     3349   6 C                                       1.5326759
  3349   6 C     3350   6 C                                       1.5361409
  3350   6 C     3351   6 C                                       1.5266678
  3350   6 C     3352   6 C                                       1.5329837
  3352   6 C     3353   6 C                                       1.5270812
  3353   6 C     3354   6 C                                       1.5243291
  3265   6 C     3355   1 H                                       1.0867751
  3265   6 C     3356   1 H                                       1.0882476
  3265   6 C     3357   1 H                                       1.0883404
  3354   6 C     3358   1 H                                       1.0882650
  3354   6 C     3359   1 H                                       1.0884875
  3354   6 C     3360   1 H                                       1.0881322
  3352   6 C     3361   1 H                                       1.0923944
  3352   6 C     3362   1 H                                       1.0935244
  3349   6 C     3363   1 H                                       1.0906781
  3349   6 C     3364   1 H                                       1.0924260
  3347   6 C     3365   1 H                                       1.0928970
  3348   6 C     3366   1 H                                       1.0871000
  3348   6 C     3367   1 H                                       1.0884732
  3348   6 C     3368   1 H                                       1.0882118
  3346   6 C     3369   1 H                                       1.0919896
  3346   6 C     3370   1 H                                       1.0938921
  3343   6 C     3371   1 H                                       1.0938653
  3343   6 C     3372   1 H                                       1.0915485
  3350   6 C     3373   1 H                                       1.0953508
  3351   6 C     3374   1 H                                       1.0880378
  3351   6 C     3375   1 H                                       1.0858260
  3351   6 C     3376   1 H                                       1.0881604
  3344   6 C     3377   1 H                                       1.0932985
  3345   6 C     3378   1 H                                       1.0859383
  3345   6 C     3379   1 H                                       1.0884662
  3345   6 C     3380   1 H                                       1.0882569
  3341   6 C     3381   1 H                                       1.0961448
  3342   6 C     3382   1 H                                       1.0880761
  3342   6 C     3383   1 H                                       1.0865898
  3342   6 C     3384   1 H                                       1.0866818
  3340   6 C     3385   1 H                                       1.0928334
  3340   6 C     3386   1 H                                       1.0925663
  3338   6 C     3387   1 H                                       1.0928516
  3339   6 C     3388   1 H                                       1.0889605
  3339   6 C     3389   1 H                                       1.0875057
  3339   6 C     3390   1 H                                       1.0866553
  3337   6 C     3391   1 H                                       1.0907463
  3337   6 C     3392   1 H                                       1.0923016
  3335   6 C     3393   1 H                                       1.0942486
  3336   6 C     3394   1 H                                       1.0886277
  3336   6 C     3395   1 H                                       1.0883520
  3336   6 C     3396   1 H                                       1.0878912
  3334   6 C     3397   1 H                                       1.0920533
  3334   6 C     3398   1 H                                       1.0935010
  3332   6 C     3399   1 H                                       1.0930480
  3333   6 C     3400   1 H                                       1.0881977
  3333   6 C     3401   1 H                                       1.0882629
  3333   6 C     3402   1 H                                       1.0874592
  3331   6 C     3403   1 H                                       1.0899921
  3331   6 C     3404   1 H                                       1.0929361
  3329   6 C     3405   1 H                                       1.0927888
  3330   6 C     3406   1 H                                       1.0882745
  3330   6 C     3407   1 H                                       1.0878226
  3330   6 C     3408   1 H                                       1.0873915
  3328   6 C     3409   1 H                                       1.0936297
  3328   6 C     3410   1 H                                       1.0937126
  3326   6 C     3411   1 H                                       1.0914214
  3327   6 C     3412   1 H                                       1.0886285
  3327   6 C     3413   1 H                                       1.0857925
  3327   6 C     3414   1 H                                       1.0871371
  3325   6 C     3415   1 H                                       1.0930128
  3325   6 C     3416   1 H                                       1.0934220
  3323   6 C     3417   1 H                                       1.0968828
  3324   6 C     3418   1 H                                       1.0861520
  3324   6 C     3419   1 H                                       1.0869331
  3324   6 C     3420   1 H                                       1.0866965
  3322   6 C     3421   1 H                                       1.0925262
  3322   6 C     3422   1 H                                       1.0926524
  3320   6 C     3423   1 H                                       1.0924275
  3321   6 C     3424   1 H                                       1.0869647
  3321   6 C     3425   1 H                                       1.0874642
  3321   6 C     3426   1 H                                       1.0888185
  3319   6 C     3427   1 H                                       1.0919686
  3319   6 C     3428   1 H                                       1.0940989
  3317   6 C     3429   1 H                                       1.0939493
  3318   6 C     3430   1 H                                       1.0877291
  3318   6 C     3431   1 H                                       1.0864838
  3318   6 C     3432   1 H                                       1.0881493
  3316   6 C     3433   1 H                                       1.0917971
  3316   6 C     3434   1 H                                       1.0935907
  3314   6 C     3435   1 H                                       1.0919397
  3315   6 C     3436   1 H                                       1.0874092
  3315   6 C     3437   1 H                                       1.0866157
  3315   6 C     3438   1 H                                       1.0866785
  3313   6 C     3439   1 H                                       1.0921101
  3313   6 C     3440   1 H                                       1.0928603
  3311   6 C     3441   1 H                                       1.0928709
  3312   6 C     3442   1 H                                       1.0884434
  3312   6 C     3443   1 H                                       1.0872596
  3312   6 C     3444   1 H                                       1.0883356
  3310   6 C     3445   1 H                                       1.0917215
  3310   6 C     3446   1 H                                       1.0939466
  3308   6 C     3447   1 H                                       1.0945090
  3309   6 C     3448   1 H                                       1.0886036
  3309   6 C     3449   1 H                                       1.0889329
  3309   6 C     3450   1 H                                       1.0875621
  3307   6 C     3451   1 H                                       1.0894611
  3307   6 C     3452   1 H                                       1.0920798
  3305   6 C     3453   1 H                                       1.0945260
  3306   6 C     3454   1 H                                       1.0885468
  3306   6 C     3455   1 H                                       1.0879039
  3306   6 C     3456   1 H                                       1.0876789
  3304   6 C     3457   1 H                                       1.0931897
  3304   6 C     3458   1 H                                       1.0930270
  3302   6 C     3459   1 H                                       1.0949707
  3303   6 C     3460   1 H                                       1.0873926
  3303   6 C     3461   1 H                                       1.0888305
  3303   6 C     3462   1 H                                       1.0876763
  3301   6 C     3463   1 H                                       1.0912003
  3301   6 C     3464   1 H                                       1.0913066
  3299   6 C     3465   1 H                                       1.0938632
  3300   6 C     3466   1 H                                       1.0882041
  3300   6 C     3467   1 H                                       1.0879813
  3300   6 C     3468   1 H                                       1.0887014
  3298   6 C     3469   1 H                                       1.0928685
  3298   6 C     3470   1 H                                       1.0941464
  3296   6 C     3471   1 H                                       1.0936025
  3297   6 C     3472   1 H                                       1.0879799
  3297   6 C     3473   1 H                                       1.0865603
  3297   6 C     3474   1 H                                       1.0874721
  3295   6 C     3475   1 H                                       1.0914069
  3295   6 C     3476   1 H                                       1.0927553
  3293   6 C     3477   1 H                                       1.0940126
  3294   6 C     3478   1 H                                       1.0878545
  3294   6 C     3479   1 H                                       1.0875355
  3294   6 C     3480   1 H                                       1.0885374
  3292   6 C     3481   1 H                                       1.0919600
  3292   6 C     3482   1 H                                       1.0938706
  3290   6 C     3483   1 H                                       1.0940015
  3291   6 C     3484   1 H                                       1.0879367
  3291   6 C     3485   1 H                                       1.0865579
  3291   6 C     3486   1 H                                       1.0886520
  3289   6 C     3487   1 H                                       1.0930518
  3289   6 C     3488   1 H                                       1.0932153
  3287   6 C     3489   1 H                                       1.0932348
  3288   6 C     3490   1 H                                       1.0865472
  3288   6 C     3491   1 H                                       1.0872809
  3288   6 C     3492   1 H                                       1.0876043
  3286   6 C     3493   1 H                                       1.0910770
  3286   6 C     3494   1 H                                       1.0932030
  3284   6 C     3495   1 H                                       1.0934167
  3285   6 C     3496   1 H                                       1.0873654
  3285   6 C     3497   1 H                                       1.0883375
  3285   6 C     3498   1 H                                       1.0884986
  3283   6 C     3499   1 H                                       1.0920322
  3283   6 C     3500   1 H                                       1.0940053
  3281   6 C     3501   1 H                                       1.0954290
  3282   6 C     3502   1 H                                       1.0880732
  3282   6 C     3503   1 H                                       1.0880445
  3282   6 C     3504   1 H                                       1.0858627
  3280   6 C     3505   1 H                                       1.0925570
  3280   6 C     3506   1 H                                       1.0932812
  3278   6 C     3507   1 H                                       1.0939977
  3279   6 C     3508   1 H                                       1.0865219
  3279   6 C     3509   1 H                                       1.0877815
  3279   6 C     3510   1 H                                       1.0874600
  3277   6 C     3511   1 H                                       1.0937220
  3277   6 C     3512   1 H                                       1.0945958
  3275   6 C     3513   1 H                                       1.0947024
  3276   6 C     3514   1 H                                       1.0872065
  3276   6 C     3515   1 H                                       1.0868588
  3276   6 C     3516   1 H                                       1.0857763
  3274   6 C     3517   1 H                                       1.0909158
  3274   6 C     3518   1 H                                       1.0927323
  3272   6 C     3519   1 H                                       1.0934671
  3273   6 C     3520   1 H                                       1.0855771
  3273   6 C     3521   1 H                                       1.0867284
  3273   6 C     3522   1 H                                       1.0880675
  3271   6 C     3523   1 H                                       1.0930210
  3271   6 C     3524   1 H                                       1.0945423
  3269   6 C     3525   1 H                                       1.0929015
  3270   6 C     3526   1 H                                       1.0885724
  3270   6 C     3527   1 H                                       1.0871883
  3270   6 C     3528   1 H                                       1.0885034
  3268   6 C     3529   1 H                                       1.0921230
  3268   6 C     3530   1 H                                       1.0937219
  3266   6 C     3531   1 H                                       1.0951066
  3267   6 C     3532   1 H                                       1.0881463
  3267   6 C     3533   1 H                                       1.0882233
  3267   6 C     3534   1 H                                       1.0880366
  3353   6 C     3535   1 H                                       1.0908248
  3353   6 C     3536   1 H                                       1.0927191

 * 2 distinct bonds (by element types)

   Z      Z             #   av. dist./Å        max./Å        min./Å
   1 H    6 C        2366     1.0902946     1.0974116     1.0844497
   6 C    6 C        1106     1.5324226     1.5400125     1.5222588


optimized geometry written to: xtbopt.xyz


           -------------------------------------------------
          | TOTAL ENERGY            -3716.263849885413 Eh   |
          | GRADIENT NORM               0.000717964806 Eh/α |
          | HOMO-LUMO GAP              11.138955256916 eV   |
           -------------------------------------------------

------------------------------------------------------------------------
 * finished run on 2024/06/25 at 01:59:32.762     
------------------------------------------------------------------------
 total:
 * wall-time:     4 d,  3 h, 50 min, 54.939 sec
 *  cpu-time:    22 d,  9 h, 34 min, 31.296 sec
 * ratio c/w:     5.384 speedup
 SCF:
 * wall-time:     0 d,  0 h,  8 min, 39.449 sec
 *  cpu-time:     0 d,  0 h, 46 min,  7.684 sec
 * ratio c/w:     5.328 speedup
 ANC optimizer:
 * wall-time:     4 d,  3 h, 40 min, 47.562 sec
 *  cpu-time:    22 d,  8 h, 46 min, 38.348 sec
 * ratio c/w:     5.385 speedup

