3536
 energy: -3716.263849885413 gnorm: 0.000717964806 xtb: 6.6.1 (8d0f1dd)
C           59.60588654600444       46.11935174995362       60.90750466078689
C           60.94853347703355       46.25633316844055       60.19655579375745
C           61.67331645535440       47.49845949215478       60.71254116182820
C           60.78893776747130       46.37004179263037       58.67624610851884
C           59.98118566642895       45.26455275444297       57.98838011051362
C           60.58653308919720       43.88538856005352       58.24636933653984
C           59.91472828150588       45.51931964336136       56.47448227787617
C           59.09592384226004       46.74394070839959       56.04354448555346
C           57.60915415478630       46.51625300950039       56.29905262883729
C           59.35574834346846       47.03941961346625       54.56166663253448
C           58.77839782915744       48.35937376248450       54.03345604759229
C           58.86643885982355       48.35984028157720       52.50770886065207
C           59.49667293218192       49.60598175774106       54.57864504023758
C           58.85280494703715       50.30121285913984       55.78372533798942
C           57.44737601534342       50.79722032616436       55.44692776665424
C           59.69751388686542       51.50750629792574       56.22000489077720
C           61.05564909590532       51.20432296577773       56.86777476805841
C           60.85437762251172       50.66110706767357       58.28001678242964
C           61.89492189041179       52.49068227894789       56.87831408650635
C           63.34049373259222       52.34495491093618       57.37052604106309
C           63.90849607039902       53.72742199476278       57.69204455463637
C           64.23300371934363       51.63509656870125       56.34239071841425
C           65.43495321745587       50.92248055509486       56.97811160339336
C           66.52321637164655       50.66780806791120       55.93646387220318
C           65.01648918416576       49.59800844241408       57.63648293937410
C           65.77619448110873       49.28024962615311       58.93225413410163
C           65.67010630685698       47.78803426743324       59.23798809419557
C           65.21128483145019       50.12247391239092       60.08235123894818
C           66.06859511643951       50.20300378192139       61.35204788382575
C           65.21089578645606       50.76826116836600       62.48321094358895
C           67.31289619864219       51.06800598156504       61.11921700035711
C           68.35940282178674       51.00936395981827       62.23940729440083
C           69.34997979825098       52.16021581052882       62.07622794687543
C           69.10188512699253       49.66788647267805       62.25178544712632
C           69.66192394150715       49.27347474650688       63.62411867434823
C           70.72603880492390       48.19112478289533       63.45054812007317
C           68.53914797463339       48.76911853124542       64.53976305123142
C           68.90545523891339       48.72663929103095       66.03365528583792
C           68.48194932474937       47.38920027846404       66.64422795485758
C           68.25221927814562       49.86531060975313       66.82723751303217
C           68.70168347174493       51.28529847548837       66.46274364027856
C           70.11480337456041       51.55775305044303       66.97547001303730
C           67.72375696793047       52.31318092473432       67.05214191927219
C           66.43851337580159       52.48742549667576       66.22782520794080
C           66.68261803159768       53.46223143447655       65.07779118899543
C           65.30069562964533       52.96865474458725       67.13426461207324
C           63.91617196067867       53.07042857811199       66.48126649280384
C           62.94843447857409       53.72761836415356       67.46260290414041
C           63.37720090303337       51.73105030349054       65.95265181152364
C           63.17318542131090       50.60657713435020       66.98829307841521
C           63.65037916184141       49.27299951139562       66.41325402506446
C           61.69864663820317       50.52571889036560       67.40381300435124
C           61.33900591352301       49.50997208512415       68.50082341897624
C           59.83465537204702       49.58891184196519       68.76504185301533
C           62.14413917217912       49.77784357903749       69.77897845031343
C           61.73866726056929       48.98478973486969       71.03093579582520
C           62.56488441139319       49.49230725385538       72.21323229065332
C           61.94688644436127       47.48253301013030       70.81581934930745
C           61.53885558883809       46.55851841284976       71.97182123630334
C           62.03095347274059       45.14258661045886       71.65964370214787
C           60.01938716145773       46.53620106328678       72.21341857172548
C           59.50466074472393       47.49207480515096       73.29875428098111
C           59.88806920271078       46.98261225201599       74.68810729568111
C           57.97749691724938       47.62748881671716       73.21415190481012
C           57.47328300803584       48.49323645428480       72.05228015819570
C           57.56342814980314       49.97518785802931       72.41127423741128
C           56.02604495194788       48.13907976777909       71.68479812969858
C           55.86942893141330       46.81956607440038       70.91941054100113
C           56.29998877586772       46.98487987480361       69.46156963658531
C           54.41833065399315       46.31975222751697       70.94566858664287
C           53.84451446457308       45.93460203739157       72.31461328700890
C           54.74631014221013       44.94482848476687       73.05336027021630
C           52.45700584961787       45.29401450977244       72.16172821774141
C           51.38169702856768       46.12730573263673       71.45281814469217
C           51.17270458038467       47.47633187503470       72.13669991549256
C           50.07486660085166       45.31890550522689       71.43660516827092
C           49.04036623280656       45.76773514000710       70.39399462717384
C           47.67703224448879       45.16963951280735       70.73785815628682
C           49.49797382612426       45.35194674851080       68.99087735570187
C           48.57076666084948       45.70336992110987       67.81800420473390
C           49.19431036759410       45.14385124644078       66.53862384588511
C           48.34923517352527       47.21644244152200       67.72062695244441
C           47.28047454099336       47.66291417427549       66.71651486391093
C           47.39970077979382       49.16685111192147       66.47800539949260
C           45.85778960386208       47.32077469328114       67.18866993638611
C           44.92109822716063       46.92922837512165       66.03770673563299
C           43.46185407896665       47.11225927730873       66.44878495169291
C           45.19432953918258       45.48148580175650       65.61295816167149
C           44.72552511882692       45.15066218898386       64.19956683536293
C           45.20440313789133       43.77198717897667       63.76422309937185
H           58.94069146864209       46.92521653510459       60.60723072250745
H           59.12983642049961       45.16929977781961       60.68043719722444
H           59.74199948672936       46.17866479341306       61.98599997428630
H           44.90426154117056       43.56709489943317       62.74037009795605
H           46.29012358226632       43.71609481021851       63.82248148620896
H           44.79053041634923       42.99775351682838       64.40721465236969
H           46.26862485413026       45.29496364335872       65.66342098728843
H           44.71789879958217       44.80262052789555       66.32538179675505
H           45.88014735620715       46.49638221979145       67.90423697109426
H           45.44483448186548       48.18450536983057       67.71364470134837
H           47.46923833672193       47.16258714773949       65.76314271082397
H           48.39155857726315       49.41831035556312       66.10933329572106
H           46.66143562076807       49.49625779810622       65.74962929778437
H           47.23701238157536       49.71410748690813       67.40361674887674
H           48.05684935310609       47.59473725464311       68.70131209139869
H           49.30075346730960       47.68436296498785       67.45488647995280
H           50.47006681387945       45.80991767986053       68.79411482895505
H           49.64126433307089       44.26712786092356       68.99278630087369
H           45.12128385247298       47.58930649961729       65.18570692603733
H           43.25202458934463       48.15714026161846       66.66752770943663
H           42.79240028863740       46.79099306808997       65.65446662388483
H           43.24104108247688       46.52578191032256       67.33899332771377
H           47.60882743593068       45.20411606921294       67.96741261850347
H           50.15501026897844       45.61668243783868       66.34552882943258
H           49.35629996269935       44.07166079147097       66.63246891557931
H           48.55452959932014       45.31012784196248       65.67622365539277
H           48.95811148906444       46.85701361253345       70.44242756566756
H           47.70415876873755       44.08510150829346       70.65072300708192
H           47.39729275754298       45.42367116542858       71.75832289934672
H           46.90368159848953       45.55068168480398       70.07622337602740
H           50.30680684342535       44.26597287506949       71.25503034727555
H           49.62587794134560       45.38138145310437       72.43122467198340
H           51.70030748966953       46.30434977182268       70.42280016439118
H           52.05588190139729       48.10232367817129       72.04105855175511
H           50.33749183629851       48.00904433265621       71.68938538608823
H           50.96212312453225       47.33665615499434       73.19545237948883
H           52.57788143013618       44.35469168677749       71.61448551443213
H           52.08611420765447       45.04262310268360       73.15987129501744
H           53.74512991118523       46.82954588823257       72.93581723540476
H           54.24945434994738       44.57835132602159       73.94966152109077
H           54.97624211379808       44.09098402752940       72.41882800246513
H           55.67768446098381       45.41243087628550       73.35948168762538
H           53.79027109098523       47.09719841880155       70.50640937327411
H           54.35237699817466       45.44178510864338       70.29884576381836
H           56.51323349972434       46.05998389412071       71.37075693713641
H           55.64061081215380       47.67979896170765       68.94588353746002
H           57.31555600764936       47.36443452001907       69.39117196858454
H           56.26616302779703       46.02880850830233       68.94295628428057
H           55.44691570239725       48.10015797606591       72.60905944834461
H           55.61029632511334       48.94068605740340       71.07013010084232
H           58.10712954061596       48.32083887082241       71.17905450994895
H           58.56031207231935       50.23060928135403       72.76058157737816
H           57.33525823415533       50.59191859950062       71.54471951397707
H           56.85561071239881       50.21849275748503       73.20209525018568
H           57.56049648262767       46.62175080998613       73.13393573367209
H           57.60449059274371       48.05639816254748       74.14799784527044
H           59.95440622513516       48.47805731130516       73.16160514788551
H           59.58753909084339       47.69527156095101       75.45372953691918
H           59.39525000156137       46.03354275180956       74.89239207754690
H           60.96162709479925       46.83072810166615       74.77167538469942
H           59.51498000943651       46.75061749248543       71.26977325081097
H           59.72262314102181       45.52498944242430       72.50460375093242
H           62.04597058907416       46.88704892205520       72.88269512505828
H           63.10599468865846       45.13526651311026       71.49061193390034
H           61.81377762548897       44.46929842263315       72.48621479705290
H           61.54310573748137       44.75809048568329       70.76595240822682
H           61.39163299896990       47.17167171782565       69.92846280851546
H           63.00761320411094       47.31597130866434       70.60443173746903
H           60.68363345320589       49.17566493994352       71.24069163437132
H           63.61627476539756       49.25183265126620       72.06832337805287
H           62.47364565748708       50.57212735431150       72.30994581425323
H           62.24011565143137       49.04660570938234       73.14979408384821
H           63.19923540730110       49.57458310673491       69.58267284645447
H           62.05314699001470       50.84217947308415       70.01481670568270
H           61.56716269258151       48.50447617153254       68.13364015903072
H           59.49773269663592       48.74303205162179       69.35876975604822
H           59.58394003155979       50.50284261747802       69.29923542596516
H           59.27982684478211       49.57852598197542       67.82886607617154
H           61.37835714880062       51.51280061073736       67.74050450824048
H           61.11575640365904       50.28174062628845       66.51092921983600
H           63.77760136497126       50.82647728672008       67.87108288695478
H           63.06137531200989       49.00297255592797       65.53866530864072
H           64.69523992238938       49.33842234568060       66.11442881188481
H           63.56497343977684       48.47518502223603       67.14776995050765
H           62.42410866730486       51.92902828899606       65.45486836649386
H           64.06148836534767       51.37916801324749       65.17973615566366
H           63.99911187360802       53.73540122542104       65.61421397112746
H           63.29012722553779       54.73067464765288       67.70792164637162
H           61.95289074228504       53.80428129365430       67.03148555906155
H           62.88737626704787       53.15797573201070       68.38594992341665
H           65.23794429811393       52.29830899005074       67.99530074158969
H           65.56727410599214       53.95659818003656       67.51972315620716
H           66.16221827236009       51.51373395985166       65.81218883395751
H           66.81351489644943       54.47098059214822       65.46482832697485
H           67.58099364043191       53.19137910334204       64.52849323551388
H           65.84948166057431       53.46434004117099       64.37991322794721
H           67.47484084917049       52.00311585395249       68.07002500767855
H           68.21842482447758       53.28374206056431       67.12464382149854
H           68.70696994532786       51.39239898320638       65.37510834834396
H           70.14268458221851       51.49927053191988       68.06256028584693
H           70.82462233496483       50.83543649402172       66.57886527358367
H           70.44555550163966       52.55130006091258       66.67859286843156
H           67.16946863943596       49.78951620165024       66.69968966186948
H           68.45961799326675       49.70765725837477       67.88904327099381
H           69.99190209135577       48.80848767189286       66.13944001952380
H           67.40500024807208       47.25625716280598       66.55551311994296
H           68.97214755437307       46.56243689621813       66.13439019617087
H           68.74550693170130       47.34269829425205       67.69935120174101
H           67.65395157657400       49.39272631259830       64.40968919227372
H           68.26618492983856       47.76488852213534       64.20693181436916
H           70.13484761696394       50.14878767457969       64.08132917847186
H           70.30156535998367       47.32837467824945       62.94024751034320
H           71.55981726540979       48.56414943333669       62.85881888361016
H           71.11336989648886       47.85995353726951       64.41182780500871
H           68.43362257954932       48.87106098915395       61.92314102615851
H           69.92225795946172       49.71799785150044       61.53230662647871
H           67.85006923074342       51.14221067665044       63.19684453398137
H           69.82967251727452       52.10874871051364       61.10083382646255
H           68.84412723144959       53.11978171523841       62.15604072352413
H           70.12412659305471       52.12175898165822       62.84001918299448
H           67.79846578206480       50.76688485866872       60.18887186311559
H           66.98868117361891       52.10506979239141       60.99856834346266
H           66.37809899847305       49.19364694156497       61.63684733062606
H           64.84990314481752       51.76240198874596       62.22659228411155
H           64.35013629221766       50.12792165744368       62.66274168592956
H           65.77523582351259       50.83819823277952       63.40879827294019
H           65.04603158213467       51.14335034433078       59.73087105044605
H           64.23429567304220       49.70979916297146       60.35042801344806
H           66.83396270028805       49.52055744232213       58.78422979181494
H           64.62638085090303       47.48695313665949       59.30465600722764
H           66.14274699197226       47.20087981718549       58.45414640978566
H           66.15195891432030       47.54333175708405       60.18054571115663
H           63.94812846782538       49.61154788080690       57.86140181095058
H           65.18017763115201       48.78924707359535       56.92173760829105
H           65.85825291416899       51.58108113134921       57.74401861404188
H           67.33859052439438       50.09080462812503       56.36741772292579
H           66.12267554312479       50.11027715367545       55.09142150172545
H           66.93032522118682       51.60380055522123       55.56255279573930
H           63.65066722486620       50.90014395901488       55.78435374310266
H           64.59219773937680       52.37658540202348       55.62449666167338
H           63.33499759333216       51.76287654787565       58.29570592385012
H           64.94949871565420       53.65832776704298       58.00018980048932
H           63.85460812144376       54.37411411692459       56.81836523693329
H           63.34866571763005       54.19763918628533       58.49865481990474
H           61.91969384371326       52.90651052779869       55.86683629441033
H           61.38462446557315       53.21856948937912       57.51603829466652
H           61.58002915145726       50.44893548207562       56.27487040693732
H           61.79137717451044       50.31708567984893       58.71086193469807
H           60.43878664955714       51.43060104801523       58.92746553543670
H           60.16728543088444       49.81881834661154       58.27080084728040
H           59.85590471663835       52.13740211182777       55.34104032790859
H           59.11602468988614       52.09360286402509       56.93514694364282
H           58.77085343760780       49.59767014589758       56.61610330925718
H           57.04208146138007       51.37789763093332       56.27247259330085
H           57.47443721727501       51.42920360098059       54.56177182091568
H           56.76702361228490       49.97120568740811       55.25837630700051
H           60.52094917076346       49.33150433373493       54.83011089382586
H           59.55520784556108       50.34764647753017       53.77696116275574
H           57.72194954651565       48.40156866271976       54.29882623323289
H           59.90507669751857       48.33165725388663       52.18541725114296
H           58.35751694757819       47.49312254044543       52.09443950592216
H           58.40420681316177       49.25401815459013       52.09510582500273
H           60.43310921663069       47.03843069679458       54.38153545472144
H           58.93275395839643       46.21861045987104       53.97552383725127
H           59.42689569371000       47.60585248768258       56.62630109922657
H           57.23931039676376       45.70254266367188       55.67647757732551
H           57.42896934034867       46.25919615436292       57.33909314500638
H           57.03796216577796       47.41306524670037       56.07601489107725
H           60.93715327710395       45.63298576488940       56.10558239661970
H           59.49035252236941       44.63643301897690       55.98672858124528
H           58.96425780605308       45.26581588632435       58.38947823871513
H           60.55312577311315       43.62983262037837       59.30263929850443
H           60.03451668238944       43.12043489414845       57.70209662007478
H           61.62336441802859       43.85389457858543       57.92153723044845
H           60.30951584263326       47.32878406272376       58.46927933915853
H           61.78523205382207       46.40081286223307       58.22602904621967
H           61.56451933979789       45.37988358993088       60.42842349589345
H           61.84419937615787       47.42965100320148       61.78476859192849
H           62.63787799500452       47.61476244796435       60.22334212055430
H           61.08157369799793       48.39095489667592       60.52022201613249
H           43.63676512329335       45.19400401310013       64.14108623826489
H           45.12255666492249       45.89831461634524       63.51061208154526
C           57.53436548730708       72.74820979012313       63.22958850918708
C           56.96208257334999       71.58697448916956       64.04058282939437
C           58.02555167374206       70.50069132977832       64.19434006649624
C           55.70225207476954       71.00703725092669       63.38306274652379
C           54.45843414844575       71.89940645344805       63.47417520624584
C           53.92722151121939       71.94016216210792       64.90819292360250
C           53.32704446952113       71.40354763870933       62.56034034502125
C           53.61258350933137       71.36200171419097       61.05506446464778
C           54.17759272224370       72.68656491156997       60.54140828068115
C           52.33325616531527       71.03856112616174       60.26660050597555
C           51.62185988096014       69.71555735702184       60.59243071954982
C           52.55202127961216       68.51863085705074       60.43578606280310
C           50.39732289931281       69.60435962192975       59.66957577586135
C           49.60486175706317       68.28930540461225       59.71183083101856
C           48.47840545986590       68.37374724695179       58.68046739912378
C           49.05302144342652       68.00197309891621       61.11222050572547
C           48.45132703459398       66.60150665271904       61.30097364108821
C           47.59274049804979       66.59030582158512       62.56519019578423
C           49.54497244792187       65.52988858230808       61.38321942139270
C           49.01513579685042       64.08549829888176       61.29255536352785
C           49.34150940928768       63.31187713541267       62.57110109473698
C           49.58871005353618       63.32348803476432       60.09075978093306
C           49.24970203212371       63.88490630666430       58.70409685639726
C           47.74149428043643       63.89857920282724       58.46383883189657
C           49.95304931245417       63.03455277086343       57.63543541189527
C           49.98849820430490       63.66503945373012       56.23051101738665
C           49.45984539302789       62.67822922020532       55.18802188921305
C           51.40379631321006       64.09537181143995       55.82257285915964
C           52.04756651143330       65.19372073713589       56.67381028689879
C           51.29896102854237       66.51878266267614       56.52430227800187
C           53.51220887941189       65.42426758220458       56.26838953509763
C           54.48820170730344       64.25153031885873       56.44704176705344
C           54.60502174909198       63.84213043262190       57.90989033488783
C           55.84548243555647       64.67160444811158       55.86036037992082
C           56.97736648962516       63.63567228120056       55.92272707697724
C           58.28286567150669       64.28877267837514       55.46680974435529
C           56.67202846460599       62.41700564610414       55.04616999307161
C           57.47794195713721       61.15318950158309       55.37851164087267
C           57.48996058393080       60.24228729506630       54.15382324444634
C           56.87737332317060       60.45947852207728       56.60856243103180
C           57.42222385396905       59.06642692801762       56.95563499760797
C           56.68147243971095       58.55413967162150       58.19053108712782
C           58.93396530977662       59.10987664701086       57.18858450018514
C           59.65439382588307       57.76868463268668       57.37404569028330
C           61.05382295334940       58.05387167491386       57.92565537166197
C           59.80098153979083       56.96304365792042       56.07276462597332
C           58.66353852721495       56.01077101301873       55.67286527467176
C           58.37231178340083       55.00236531484006       56.78011897006182
C           59.08408468955675       55.29397567185119       54.38001269663433
C           57.97287156358626       54.50020667105905       53.68288865948256
C           58.58410583745282       53.58308275551190       52.62444125614692
C           56.91059285637644       55.41875272177077       53.05084807743881
C           55.48195952347589       55.15088879605890       53.53677629480220
C           55.02979982659826       53.74308216917193       53.14895585973824
C           54.49276100702277       56.15846289798371       52.93493162375379
C           54.62275844959971       57.60606247417589       53.41628792516224
C           54.13553920522592       57.74902747773226       54.85758632805326
C           53.82194460036543       58.56823880158400       52.52399001325147
C           54.26714821332610       58.67499936287326       51.06026859729040
C           55.75687168566256       58.98943445971845       50.93635580114054
C           53.48219897010421       59.76610891856456       50.31819938992012
C           51.97750942282432       59.54530352998429       50.11929263705751
C           51.71094434065433       58.27798409589666       49.31251691941527
C           51.40796326280000       60.77752751406985       49.39985664380945
C           49.87793688648432       60.90125900162558       49.38279345886358
C           49.46868483355702       61.87288707362890       48.27448233193056
C           49.34729180192303       61.38534268056308       50.73804056039819
C           47.82728943522184       61.21724761862033       50.92167751814443
C           47.20809476555290       62.50512782224850       51.46875953085959
C           47.47874405874134       60.05876281990938       51.86544810987564
C           47.84424889829254       58.65235206569375       51.37245138579203
C           46.99672489178647       58.24870101570649       50.16798375088115
C           47.65988724700094       57.62907476048864       52.51227229812331
C           48.95203895885121       57.00803390074687       53.06148422270768
C           49.87664972082580       58.07175643712600       53.64631280450856
C           49.65591015436790       56.16611354156837       51.99039419543599
C           50.61807627519467       55.10721529561398       52.54327748424960
C           51.53362724540743       54.61303043226376       51.42414887102399
C           49.86312154405572       53.92040903121440       53.15538730690224
C           50.60298141468845       53.22659734264061       54.30972041682510
C           50.07688341762136       51.79954813258426       54.44142689628314
C           50.39646481171523       54.01376372567726       55.60965238453694
C           51.28398769380843       53.60963869603277       56.80015934934371
C           50.55098611096155       53.92356118378650       58.10448904512466
C           52.63011206629692       54.34253515219014       56.72954814519030
C           53.68613989329027       53.93120678674578       57.77003394520959
C           54.53131886348449       55.15104514167120       58.14375818845149
C           54.62119851241879       52.80794953106856       57.30057117593945
C           53.98807547110689       51.41207759605042       57.21708268296588
C           53.61608498168211       51.00398348624930       55.79669782729504
H           58.43067964050353       73.13929704536598       63.70689708380722
H           57.80085763008098       72.41428718874712       62.22826616039887
H           56.81941557788556       73.56284213127466       63.14330943936414
H           53.09772423799156       50.04637314414713       55.80000189124970
H           52.96899177073966       51.73980116887619       55.33194927429332
H           54.50976222230423       50.90657607058673       55.18531628373553
H           55.04063636715642       53.07443998197157       56.32792494564821
H           55.45270639492146       52.76634734729993       58.00999918001735
H           53.05473512830804       54.22007199957189       55.73123435470851
H           52.42171810937501       55.40911373104232       56.85623987766694
H           51.45657339115640       52.53269129311938       56.76719178909664
H           50.34576917530178       54.98903503890721       58.17892267427008
H           49.60562615665035       53.38490352713558       58.14203766480633
H           51.13389963941007       53.62644838916911       58.97294703954251
H           50.55847692366464       55.07486183682014       55.40655337823542
H           49.34814974593044       53.90300976981106       55.89513903160240
H           48.88725108770031       54.24242863622154       53.52503976483363
H           49.67822325426999       53.19150067506863       52.36293377412625
H           53.18417209227992       53.59002444096375       58.68102900822753
H           53.90115676112144       55.95554305307037       58.51665588630690
H           55.25212028794326       54.90190677809724       58.92043204751342