3258
 energy: -3427.627610438122 gnorm: 0.000713995554 xtb: 6.6.1 (8d0f1dd)
C          105.32517823336859       99.13489673983473      120.94896016667566
C          105.89208286586235      100.53046768569409      120.71957668956357
C          107.27025519263965      100.48941499040700      120.06496551570612
C          107.81676893579639      101.88821790171684      119.79050934165313
C          109.16729888682498      101.84720291127495      119.07839917203749
C          109.63341522294387      103.23461433716477      118.64457663090249
C          110.94827225469095      103.18571772613450      117.86930728425162
C          111.45878852077453      104.56912415162472      117.46192025782564
C          110.59351594350915      105.23352898809733      116.39333141518117
C          111.12611911390390      106.58969974659233      115.93138840922336
C          111.06665593823649      107.66435025539555      117.01506146141463
C          111.34984786365806      109.05741149036919      116.45881495375716
C          111.29793622018366      110.13061176388157      117.54204941719712
C          111.48442668742436      111.53749369798103      116.98031098640088
C          111.46576368951419      112.59396769842807      118.08064370205560
C          111.57949804183939      114.01792190109946      117.54274223344181
C          111.60152053635831      115.03872417013302      118.67560517669178
C          111.66892902002351      116.48430740928340      118.19153565037146
C          111.74978025142312      117.45382135425626      119.36675337091293
C          111.74308176813510      118.92098107084092      118.94588245995430
C          112.00230093236637      119.82833695669811      120.14596328333376
C          111.67794272738863      121.30224378822967      119.90456484170767
C          112.44792488304215      121.96136065980049      118.76142994551026
C          113.96361508061688      121.95660789367932      118.94698370506437
C          114.65255490774805      122.85404966701539      117.92003123140093
C          116.17310440994176      122.82649888873868      118.05889536607340
C          116.88891618331181      123.83666758653267      117.15954079667438
C          116.68040273741315      123.57334062096974      115.66968881003453
C          117.56119358801736      124.46372182890286      114.79611718265340
C          117.52409195712390      124.07943457901652      113.31468926927313
C          116.13530866394062      124.11651267302916      112.67548549953592
C          115.50278656477522      125.50584680171397      112.69676029143719
C          114.18871294675823      125.58454803495364      111.91702700874576
C          113.08395556443583      124.65894517700468      112.42892245850152
C          112.67129726610301      124.92960278630861      113.87368986030040
C          111.48449019620934      124.06813058050335      114.30015634222548
C          111.11247458849591      124.30443716179369      115.76211515211676
C          109.96191533157636      123.42454040179442      116.25093822260177
C          108.60319091718803      123.81524185271603      115.67416282447255
C          107.47758209038648      122.98246961535872      116.28205759479172
C          106.10883039378531      123.33437038510461      115.70474184321213
C          105.01311350177522      122.43120741722358      116.26671006529421
C          103.67948593539477      122.62167591751756      115.54795549628756
C          102.59926679527689      121.62150213710046      115.96847335480827
C          103.01357809120769      120.15162557660423      115.85950438705537
C          103.51851922491450      119.76355775759525      114.47142617236479
C          104.12095664243682      118.35865854641418      114.41942044817102
C          105.48987394328755      118.25219778088197      115.09263371576043
C          106.63122571155921      118.88481374764314      114.29801080588763
C          107.93857622227391      118.81199907680214      115.08230420217068
C          109.15281206756281      119.30004225070174      114.29792591030490
C          110.42281562318020      119.21852340880862      115.14187594409091
C          111.68364266890021      119.55605914270529      114.35251535213141
C          112.93667888782997      119.48551793836297      115.22144469968951
C          114.21742040271012      119.69974955553869      114.42180206842511
C          115.46907911509790      119.62612547596932      115.29320936108969
C          116.74108872086197      119.79610885259132      114.46726856860192
C          118.00620244732369      119.84208042499488      115.32071543785700
C          119.25801248546686      120.05237084055375      114.47222906975857
C          120.48711467016646      120.37665043925355      115.31736629006235
C          121.76133602420521      120.43409506351890      114.47640912141765
C          122.96353202539275      120.91808173593202      115.28804437852925
C          124.31148507651199      120.61522671328584      114.63126073186588
C          124.49408716431428      121.29066406549046      113.27318070431876
C          125.92586563094873      121.19570074350906      112.74195044606444
C          126.35638819839969      119.77173889564889      112.39362762951463
C          127.77321072896270      119.73736732141911      111.82254065699722
C          128.25211894796729      118.33311814938288      111.44958109260681
C          128.46337529598824      117.42300929203360      112.65832800204836
C          129.08002988270277      116.08169983303823      112.26632887952857
C          129.14944185227580      115.11088129869914      113.44441927522735
C          129.57709180756007      113.71195177140831      113.00780293673692
C          129.58619021640393      112.70851451710507      114.16068369490402
C          129.78498644350634      111.28050516321269      113.65659720202557
C          129.53478981152048      110.21771461685839      114.72525384982428
C          129.61814738352544      108.80984454276819      114.13455781228544
C          129.06433268421483      107.73651998572481      115.07015508717701
C          129.01889412032057      106.34771447223622      114.42702777336085
C          130.39855765466811      105.71060621245476      114.27452655881710
C          130.35947106299821      104.32055865284109      113.63447743786588
C          130.07815770003575      104.35272691724231      112.13309304356028
C          130.21649232929795      102.97350827972078      111.49102394896265
C          130.03716369847595      103.02381476446089      109.97510097945454
C          130.13862356945231      101.63966368049232      109.33626506670899
C          130.25500088136343      101.67851827413320      107.81155517374687
C          129.03221001561135      102.27507688962659      107.11954059830971
C          129.13887785921418      102.19357064534633      105.59816014220171
C          127.99284920640521      102.92322417665089      104.90302752084382
C          128.10559265572851      102.87709221149373      103.38017765413154
C          127.10178090548855      103.81493431468716      102.71555078910195
C          127.20602829285903      103.81044127896440      101.19211413673523
C          126.36546016944544      104.91113263718725      100.54197135144153
C          124.86048497262141      104.66679420605278      100.63310299328110
C          124.05634844868774      105.89500100506081      100.21355721661668
C          122.55355656687536      105.68373577536939      100.37965674688131
C          121.75903532323582      106.96205687604812      100.12790802486451
C          120.25683523033035      106.74998015464733      100.29302905529906
C          119.47131936570473      108.05064167936762      100.15231034492686
C          117.96630331203417      107.83134309840479      100.27453953396299
C          117.18438288176199      109.14085321732780      100.23151263385283
C          115.67710747789192      108.91345762485787      100.29581619843809
C          114.89387659238568      110.22225819402136      100.33135018867975
C          113.38609089356972      109.99008069721175      100.34149609335535
C          112.59859053485492      111.29302262026941      100.43933167673536
C          111.09177506901294      111.05685857961967      100.40590555343336
C          110.29709965432622      112.34981486033764      100.56067758120921
C          108.79206485179704      112.10916053723471      100.49181165307392
C          107.98879678987841      113.38855322627754      100.70310176361077
C          106.48521716580902      113.14378220071772      100.61464865231171
C          105.67739187266535      114.40906453340337      100.88406081291754
C          104.17366973801614      114.16489301789802      100.79555881336346
C          103.37049684053468      115.41704979708094      101.13160753017402
C          101.86531138186129      115.18810473750278      101.03338900193735
C          101.07496851230856      116.42486454262993      101.44875175722741
C           99.56969455879421      116.23357201902975      101.29558855629260
C           98.78767888822969      117.44563280408782      101.79303392448510
C           97.28771828761940      117.29426009287221      101.56191711056069
C           96.49863644184616      118.45644700243025      102.15972226121951
C           95.02488739270449      118.45563101357611      101.75724215541180
C           94.29938283899406      117.17445769485244      102.14492069214315
H           94.53289868574342      119.30639221595368      102.23692026991955
H           94.94481421211692      118.59846119672004      100.67699848233677
H           96.57393179338632      118.41869563641228      103.24967925093301
H           96.94850311777782      119.39960215103439      101.83673459711784
H           97.09219296545506      117.23527103415820      100.48786668755972
H           96.95420902501355      116.35646830213899      102.00948169225261
H           98.97610540949107      117.58430108880678      102.86113971178831
H           99.14552281216818      118.34507171381081      101.28468621935225
H           99.33164434478110      116.05326942958700      100.24418246239442
H           99.25639560258570      115.34940112639914      101.85576879705251
H          101.30289081852878      116.66717687926119      102.49009866988663
H          101.39374442561892      117.27843186328528      100.84457334454532
H          101.60399133635391      114.91524370406530      100.00801330714219
H          101.58296283228283      114.34970603927817      101.67444536119680
H          103.62041433761117      115.74563750165976      102.14372489289313
H          103.65840477234609      116.22440459054157      100.45283313312829
H          103.91690392676466      113.82546792161932       99.78915568463493
H          103.89583474390274      113.36570658191422      101.48689506167668
H          105.92472015290072      114.79042395547069      101.87797010160672
H          105.96204880724956      115.18070792527389      100.16351264559165
H          106.23545321083053      112.75566506860056       99.62413906548134
H          106.20196810840595      112.37807700801149      101.34099211167705
H          108.23071164515329      113.80907808173109      101.68203568536796
H          108.28038340461812      114.12763027817350       99.95172740881385
H          108.53571317387900      111.67427084543509       99.52256366934316
H          108.51034485380946      111.38002223835385      101.25563557900337
H          110.54601356732381      112.81338803002298      101.51771628108239
H          110.58821265315032      113.05042286665686       99.77302444046731
H          110.81945161939724      110.57279669948741       99.46470584539018
H          110.81879107350409      110.37044886904319      101.21153493081913
H          112.86316026820563      111.80424160844582      101.36725782522483
H          112.88036603026595      111.94959268973280       99.61130121295494
H          113.09413065230412      109.45565055406298       99.43409435988750
H          113.12760475957238      109.35117636753604      101.18987058496977
H          115.17721945653706      110.78559745454238      101.22286723363261
H          115.16072913311469      110.82822827263726       99.46081680776443
H          115.36165032837825      108.32325605187695       99.43194972590315
H          115.44070238611000      108.33153341125715      101.19029562126376
H          117.48956491329274      109.76695907757413      101.07272060991789
H          117.43038229120761      109.68134620262532       99.31310215377655
H          117.62819949765853      107.17762668028651       99.46650014477963
H          117.75522212839178      107.32211317940121      101.21822827882011
H          119.79703921519526      108.74801657176889      100.92745233036067
H          119.69411104809841      108.50842290966237       99.18454266086125
H          119.90724777308837      106.02910332698188       99.54859324028776
H          120.06379488844007      106.32349502137032      101.28031475933984
H          122.09163721915510      107.72999117266109      100.83023982442455
H          121.96646638554758      107.32856534620682       99.11902713076111
H          122.21590993981791      104.90186228541830       99.69331177588936
H          122.35421785435490      105.33743022370247      101.39652889650337
H          124.36369006411579      106.74488862483553      100.82803998585464
H          124.28199997569848      106.14486773605599       99.17337726917262
H          124.59139315586486      103.81774301091910       99.99927950071690
H          124.59402698761727      104.41108418284701      101.65926301993588
H          126.60324077787415      105.86093546994802      101.02654217916356
H          126.64630564257405      105.00370939007630       99.48913169139313
H          128.25285847687925      103.96197890728591      100.91436841207292
H          126.90180109978590      102.83528731168046      100.80485188367497
H          126.09438188851905      103.52615219871971      103.01752559541204
H          127.27798406200952      104.83070194072177      103.07661542252639
H          129.11732817598195      103.16687426172751      103.08508573913004
H          127.94080191879864      101.85497525292975      103.03116768790990
H          127.04110796637566      102.48506736754739      105.21018621195702
H          127.99300243711386      103.96645309906384      105.22956751409751
H          130.08653642242211      102.63842107591341      105.28322399195652
H          129.14818136980250      101.14574287834485      105.28748095534736
H          128.13712064575662      101.74171979454476      107.44828480067727
H          128.92720408829808      103.32246128919502      107.40818032709188
H          131.14044748335721      102.25664833353645      107.53411380440350
H          130.40411736757332      100.65813725257567      107.44720684203917
H          131.02127200273020      101.13226716066305      109.73606570275187
H          129.26483531358591      101.04792459383987      109.61583846132721
H          129.06348448741844      103.46157790515272      109.74851478864285
H          130.80375495143417      103.67374097725312      109.54693701540816
H          131.20471379103043      102.56621184590385      111.72205150414571
H          129.47433147449021      102.29777692418770      111.92108931616946
H          129.06962424770686      104.72828382118901      111.95426736288532
H          130.78073399035983      105.04001846233703      111.65416927759691
H          131.32805041544680      103.83860387752011      113.79366233652071
H          129.60339516010006      103.71025926667335      114.13420104354383
H          131.03881277523513      106.35629659586913      113.67072714806328
H          130.85349318681182      105.62909869267602      115.26550485581960
H          128.40027221230466      105.69212723166682      115.04554417381125
H          128.54174679478189      106.42798151944842      113.44944540629933
H          129.66327182059325      107.69782986191851      115.98343679631968
H          128.04763576844093      108.01957585051082      115.35611723297782
H          129.04572253179327      108.78659786005953      113.20459769982942
H          130.65631808085081      108.58823915679918      113.88229271814053
H          130.25739000298046      110.32465228612612      115.53748674344020
H          128.53946813317532      110.37115023987894      115.14918777101019
H          129.08531980607725      111.10868870039229      112.83535357296222
H          130.79498156869124      111.16892606843963      113.25535347928485
H          130.37162181975509      112.96778490568904      114.87404767460707
H          128.63158421439172      112.76918362723241      114.68919945396533
H          128.87686188258016      113.36098270206625      112.24482173273678
H          130.56886931607326      113.75581563065391      112.55132843103834
H          129.84406204984472      115.49348924506599      114.19594739364996
H          128.16267691386201      115.04615496562523      113.91091712591677
H          128.47838449324931      115.63279568481184      111.47173952237522
H          130.08270154633138      116.24124812663217      111.86278304578347
H          129.11242468989769      117.92277079602142      113.38174713770466
H          127.50415720428487      117.23877390660778      113.14560661047582
H          127.52654188068300      117.87152695251271      110.77601135404730
H          129.19656891781111      118.41996646693759      110.90591579264478
H          127.80665055320796      120.36724967771232      110.92924560742199
H          128.46440836126314      120.16887090257678      112.55134965138443
H          126.31241353705477      119.15212907162700      113.28902533579405
H          125.66164441136247      119.35650847222267      111.65944447363506
H          126.00701787386893      121.81587169392583      111.84490246358381
H          126.61332142860891      121.60663868888621      113.48613755992695
H          123.81643962512234      120.84206904719318      112.54497800937406
H          124.22844504945036      122.34695962853587      113.36852412222574
H          125.10668609901545      120.95224100653009      115.30192334795784
H          124.41257915049196      119.53428234799294      114.51871594122922
H          122.87505923584079      121.99426608164062      115.45794660425950
H          122.94681170198052      120.43454252117280      116.26917442692366
H          121.96614170206932      119.43773607504856      114.07807226636817
H          121.60066820760044      121.10429773748122      113.62919067963999
H          120.33726879985362      121.33844561308683      115.81558718860741
H          120.60222506039705      119.61799675666164      116.09520670463658
H          119.44954856320493      119.15450865748176      113.88066858468287
H          119.08411243231552      120.87520697492934      113.77357391304430
H          117.92723002727126      120.65623878964165      116.04635630613465
H          118.10359672133754      118.91268288243049      115.88606731840125
H          116.81902668319253      118.97345415442308      113.75375480666176
H          116.66687372035582      120.72173147282751      113.89023103743898
H          115.42240595524866      120.40635363782117      116.05686930278810
H          115.49840614557520      118.66351054826319      115.81003666775247
H          114.28123358175490      118.94052217926846      113.63924590332591
H          114.17855603539581      120.67528864809493      113.93056459599016
H          112.87324293510204      120.24136094717126      116.00857653897280
H          112.97792419654812      118.50663834833846      115.70606271040053
H          111.78299173045517      118.85125577159137      113.52339128432406
H          111.59111612196938      120.55686523355602      113.92367622058620
H          110.33431981399288      119.89880579948958      115.99377274442706
H          110.52047869836737      118.20614253689057      115.54181416863540
H          109.27507579399227      118.68401911139478      113.40309761721137
H          108.99526335340195      120.33117521151367      113.97150976795866
H          107.83987764328226      119.40810909535355      115.99357016145981
H          108.10987167040440      117.77624049087163      115.38577177856517
H          106.74485283886224      118.35608852492085      113.34815952057407
H          106.40668067276263      119.92960460664595      114.07177258257464
H          105.44780054265691      118.71501329133486      116.08078806281137
H          105.72298781063154      117.19486500660872      115.23879583745877
H          103.43529967947394      117.65683008191651      114.90196119234666
H          104.22350334604447      118.05234158151436      113.37540714225477
H          102.68033742907666      119.82673434646168      113.77193042850864
H          104.27378641643176      120.47452116176706      114.14024491392968
H          103.78085210060651      119.94208484536667      116.60509849022462
H          102.14990823337750      119.53003860681874      116.11151307953516
H          102.30957037022738      121.82362040940004      117.00392102411510
H          101.71897962255518      121.79257828198826      115.34314203422707
H          103.30739563379443      123.63234198153081      115.73550757386343
H          103.84298923903583      122.53972885853283      114.47225391740274
H          105.34236072917723      121.39810328673322      116.15370167709928
H          104.88938531599214      122.62500559634975      117.33558702384374
H          105.87677288720219      124.38204352734375      115.91503829325312
H          106.14303784053176      123.21942560537933      114.61748469420628
H          107.68049550685996      121.92500351394092      116.09608092279412
H          107.46214763917183      123.12782057712018      117.36532283169178
H          108.41759099789034      124.87503293001853      115.86894873606980
H          108.60602949945286      123.67499326054902      114.59109965770840
H          110.17477053098651      122.38324134755706      115.99923315924259
H          109.90754129067524      123.49398278340320      117.34071582138925
H          111.99238276716564      124.10224761958028      116.37855577482895
H          110.84801198652600      125.35588969375115      115.90328066885891
H          110.63131814292666      124.29171883662340      113.65663051252905
H          111.73798095894058      123.01357944356724      114.16383460760328
H          113.50986939680210      124.72640167996616      114.54265097670790
H          112.40959763993069      125.98537521862990      113.98453568427806
H          112.20894137879279      124.78261173421799      111.78510551397136
H          113.40930259505353      123.62248817460851      112.33345171847702
H          113.82850778294144      126.61660267743551      111.94953489304196
H          114.38475205079132      125.33892465842764      110.86981411653304
H          115.32661467014063      125.81722335690634      113.72663540241375
H          116.20572267820324      126.21896843849501      112.25675238308276
H          116.22474973635950      123.78477337275521      111.63741217460996
H          115.48748192676548      123.40743623306018      113.19066086759210
H          118.18686782673514      124.75255238502351      112.76405546005159
H          117.92578301616105      123.06780413002069      113.20864893063239
H          117.26390095862652      125.50737881201719      114.91717547804596
H          118.59661010066996      124.38296303306157      115.13982020314400
H          116.91392717098792      122.53030413917786      115.45597964238691
H          115.63281214330270      123.74185415051436      115.42051655175015
H          116.54408724595429      124.84539846366459      117.40263877822228
H          117.95968625323344      123.79716386246484      117.38003343795160
H          116.43502462554761      123.04068469439066      119.09879477593246
H          116.53743041282321      121.82088342093508      117.83273810828854
H          114.36736205412190      122.52666294542529      116.91823687670325
H          114.30061862940465      123.88174826824500      118.04671974675303
H          114.20714371302131      122.30729964069229      119.95342447922803
H          114.34772619085177      120.93943324368622      118.84759998075464
H          112.19539707486766      121.47160574919219      117.81961318375640
H          112.11054883817174      122.99902600726523      118.68714196138043
H          110.60930935024770      121.39524381296883      119.69558331965273
H          111.87903539505211      121.85617482960407      120.82637288419632
H          111.37832762165138      119.48357077030839      120.97621966142272
H          113.04376978403906      119.72534560264165      120.45776864853053
H          112.51055386122583      119.08265549990931      118.18835116459304
H          110.77603799673199      119.16793991676829      118.50301074214546
H          110.90555426890559      117.27090211351764      120.03656786974770
H          112.66228894159470      117.25242878769318      119.93215434802522
H          112.54555718853071      116.61624566731376      117.55188337388550
H          110.78400012205663      116.71162769151395      117.59234588033020
H          110.70657248468403      114.91159903465834      119.28900040672599
H          112.46550856113109      114.83863496526824      119.31407306040569
H          112.49231853453159      114.11306272090165      116.94978420596651
H          110.73405301908358      114.22423094851735      116.88304817050562
H          110.53616964856059      112.50153865073418      118.64793264546969
H          112.29194654890570      112.40366274936707      118.77153830123143
H          112.43347012738174      111.58884709085100      116.44051152002329
H          110.68547458337187      111.74700047282573      116.26421205004347
H          110.33398235481371      110.07624629901819      118.05463350739878
H          112.07549513558273      109.93223411130239      118.28520105787307
H          112.33621063833529      109.06664381559767      115.98879417801405
H          110.61233476462061      109.29210655067907      115.68739264744110
H          110.07260218065295      107.65798356045070      117.46935125451959
H          111.79083456091345      107.43966285501311      117.80145057759123
H          112.15446164460427      106.47935921926836      115.57875862674869
H          110.52184577720575      106.92023070459517      115.08207928054181
H          110.53556533497857      104.56601061047435      115.52917850140058
H          109.58114074964827      105.36972486309215      116.77498738763542
H          111.50279039682839      105.20268068007844      118.35016428584967
H          112.47619773915780      104.46642596199210      117.07512135788507
H          111.70480554842200      102.69846895363575      118.49083495610083
H          110.81580113293946      102.57340828509049      116.97350020059538
H          108.86018628394240      103.68112628820951      118.01766909219322
H          109.75493400482448      103.86878835920427      119.52656238461056
H          109.91360410429306      101.39696699624172      119.73798062859666
H          109.08481902107212      101.20619517317181      118.19668143379371
H          107.09809674413249      102.43370077871948      119.17300839172465
H          107.91633990803999      102.43380202021450      120.73210389394038
H          107.96525681150096       99.94599198060905      120.71017741443085
H          107.20016479104328       99.94139606672371      119.12162593350402
H          105.21211943393988      101.09412324699414      120.07829014741625
H          105.96072532262920      101.05671727652211      121.67510838696749
H          104.34395956019124       99.19104364997995      121.41528830639803
H          105.22535516667017       98.60487116096728      120.00411830665946
H          105.97984707273791       98.55642832621723      121.59754658258613
H           94.65255510525759      116.33467153012452      101.55132245288877
H           94.46542308528882      116.94971170614266      103.19444444711451
H           93.23039563144144      117.28005760092474      101.97833302703322
C           95.57051759481332      107.53851351161580      122.11304764055006
C           96.21599972150041      108.91633496102651      122.02813817598657
C           97.19829025145710      108.99651325479984      120.86269795409244
C           97.79427119037335      110.38650606366480      120.64867509624543
C           98.67654056355441      110.86196511426560      121.80089690634944
C           99.38959168191822      112.17136594296166      121.47200962682714
C          100.20773852030364      112.69596784690013      122.64926637346409
C          100.92048111283962      114.00310847501119      122.31455193908334
C          101.69708858931848      114.56884948846721      123.50182380943774
C          102.41324044767929      115.86352787549713      123.12979133088045
C          103.15258268852536      116.51019697323771      124.29796129245518
C          103.87634858768159      117.77925506088887      123.85218045695372
C          104.49733257591046      118.54697296797137      125.01616898998481
C          105.32914677843726      119.75020476031460      124.56573681091162
C          104.50165515733346      120.80124100472477      123.82852347856073
C          105.24423123332247      122.11519232149558      123.57659165701136
C          106.54070892885237      121.98194658658419      122.77476364357899
C          106.36029443448213      121.29176309964303      121.42501846673916
C          107.65026597087403      121.29874508558632      120.60442268966692
C          107.60375851484447      120.34126584841286      119.41138316583215
C          107.71787378640721      118.87958883712365      119.83802873943046