      -----------------------------------------------------------      
     |                   =====================                   |     
     |                           x T B                           |     
     |                   =====================                   |     
     |                         S. Grimme                         |     
     |          Mulliken Center for Theoretical Chemistry        |     
     |                    University of Bonn                     |     
      -----------------------------------------------------------      

   * xtb version 6.6.1 (8d0f1dd) compiled by 'stahn@M-Bot' on 2023-08-01

   xtb is free software: you can redistribute it and/or modify it under
   the terms of the GNU Lesser General Public License as published by
   the Free Software Foundation, either version 3 of the License, or
   (at your option) any later version.
   
   xtb is distributed in the hope that it will be useful,
   but WITHOUT ANY WARRANTY; without even the implied warranty of
   MERCHANTABILITY or FITNESS FOR A PARTICULAR PURPOSE.  See the
   GNU Lesser General Public License for more details.
   
   Cite this work as:
   * C. Bannwarth, E. Caldeweyher, S. Ehlert, A. Hansen, P. Pracht,
     J. Seibert, S. Spicher, S. Grimme, WIREs Comput. Mol. Sci., 2020, 11,
     e01493. DOI: 10.1002/wcms.1493
   
   for GFN2-xTB:
   * C. Bannwarth, S. Ehlert and S. Grimme., J. Chem. Theory Comput., 2019,
     15, 1652-1671. DOI: 10.1021/acs.jctc.8b01176
   for GFN1-xTB:
   * S. Grimme, C. Bannwarth, P. Shushkov, J. Chem. Theory Comput., 2017,
     13, 1989-2009. DOI: 10.1021/acs.jctc.7b00118
   for GFN0-xTB:
   * P. Pracht, E. Caldeweyher, S. Ehlert, S. Grimme, ChemRxiv, 2019, preprint.
     DOI: 10.26434/chemrxiv.8326202.v1
   for GFN-FF:
   * S. Spicher and S. Grimme, Angew. Chem. Int. Ed., 2020, 59, 15665-15673.
     DOI: 10.1002/anie.202004239
   
   for ALPB and GBSA implicit solvation:
   * S. Ehlert, M. Stahn, S. Spicher, S. Grimme, J. Chem. Theory Comput.,
     2021, 17, 4250-4261. DOI: 10.1021/acs.jctc.1c00471
   
   for DFT-D4:
   * E. Caldeweyher, C. Bannwarth and S. Grimme, J. Chem. Phys., 2017,
     147, 034112. DOI: 10.1063/1.4993215
   * E. Caldeweyher, S. Ehlert, A. Hansen, H. Neugebauer, S. Spicher,
     C. Bannwarth and S. Grimme, J. Chem. Phys., 2019, 150, 154122.
     DOI: 10.1063/1.5090222
   * E. Caldeweyher, J.-M. Mewes, S. Ehlert and S. Grimme, Phys. Chem. Chem. Phys.
     2020, 22, 8499-8512. DOI: 10.1039/D0CP00502A
   
   for sTDA-xTB:
   * S. Grimme and C. Bannwarth, J. Chem. Phys., 2016, 145, 054103.
     DOI: 10.1063/1.4959605
   
   in the mass-spec context:
   * V. Asgeirsson, C. Bauer and S. Grimme, Chem. Sci., 2017, 8, 4879.
     DOI: 10.1039/c7sc00601b
   * J. Koopman and S. Grimme, ACS Omega 2019, 4, 12, 15120-15133.
     DOI: 10.1021/acsomega.9b02011
   
   for metadynamics refer to:
   * S. Grimme, J. Chem. Theory Comput., 2019, 155, 2847-2862
     DOI: 10.1021/acs.jctc.9b00143
   
   for SPH calculations refer to:
   * S. Spicher and S. Grimme, J. Chem. Theory Comput., 2021, 17, 1701-1714
     DOI: 10.1021/acs.jctc.0c01306
   
   with help from (in alphabetical order)
   P. Atkinson, C. Bannwarth, F. Bohle, G. Brandenburg, E. Caldeweyher
   M. Checinski, S. Dohm, S. Ehlert, S. Ehrlich, I. Gerasimov, C. Hölzer
   A. Katbashev, J. Koopman, C. Lavigne, S. Lehtola, F. März, M. Müller,
   F. Musil, H. Neugebauer, J. Pisarek, C. Plett, P. Pracht, F. Pultar,
   J. Seibert, P. Shushkov, S. Spicher, M. Stahn, M. Steiner, T. Strunk,
   J. Stückrath, T. Rose, and J. Unsleber
   
 * started run on 2024/10/03 at 21:21:20.638     

           -------------------------------------------------
          |                Calculation Setup                |
           -------------------------------------------------

          program call               : /home/abt-grimme/AK-bin/xtb input.xyz --input input.inp --opt
          hostname                   : boar104.thch.uni-bonn.de
          coordinate file            : input.xyz
          omp threads                :                     8

   ID    Z sym.   atoms
    1    6 C      1-120, 363-482, 725-844, 1087-1206, 1449-1568, 1811-1930,
                  2173-2292, 2535-2654, 2897-3016
    2    1 H      121-362, 483-724, 845-1086, 1207-1448, 1569-1810,
                  1931-2172, 2293-2534, 2655-2896, 3017-3258

molecular fragmentation (1/2 indicates fragments):
111111111111111111111111111111111111111111111111111111111111111111111111
111111111111111111111111111111111111111111111111111111111111111111111111
111111111111111111111111111111111111111111111111111111111111111111111111
111111111111111111111111111111111111111111111111111111111111111111111111
111111111111111111111111111111111111111111111111111111111111111111111111
112222222222222222222222222222222222222222222222222222222222222222222222
222222222222222222222222222222222222222222222222222222222222222222222222
222222222222222222222222222222222222222222222222222222222222222222222222
222222222222222222222222222222222222222222222222222222222222222222222222
222222222222222222222222222222222222222222222222222222222222222222222222
222222222222222222222222222222222222222222222222222222222222222222222222
222222222222222222222222222222222222222222222222222222222222222222222222
222222222222222222222222222222222222222222222222222222222222222222222222
222222222222222222222222222222222222222222222222222222222222222222222222
222222222222222222222222222222222222222222222222222222222222222222222222
222222222222222222222222222222222222222222222222222222222222222222222222
222222222222222222222222222222222222222222222222222222222222222222222222
222222222222222222222222222222222222222222222222222222222222222222222222
222222222222222222222222222222222222222222222222222222222222222222222222
222222222222222222222222222222222222222222222222222222222222222222222222
222222222222222222222222222222222222222222222222222222222222222222222222
222222222222222222222222222222222222222222222222222222222222222222222222
222222222222222222222222222222222222222222222222222222222222222222222222
222222222222222222222222222222222222222222222222222222222222222222222222
222222222222222222222222222222222222222222222222222222222222222222222222
222222222222222222222222222222222222222222222222222222222222222222222222
222222222222222222222222222222222222222222222222222222222222222222222222
222222222222222222222222222222222222222222222222222222222222222222222222
222222222222222222222222222222222222222222222222222222222222222222222222
222222222222222222222222222222222222222222222222222222222222222222222222
222222222222222222222222222222222222222222222222222222222222222222222222
222222222222222222222222222222222222222222222222222222222222222222222222
222222222222222222222222222222222222222222222222222222222222222222222222
222222222222222222222222222222222222222222222222222222222222222222222222
222222222222222222222222222222222222222222222222222222222222222222222222
222222222222222222222222222222222222222222222222222222222222222222222222
222222222222222222222222222222222222222222222222222222222222222222222222
222222222222222222222222222222222222222222222222222222222222222222222222
222222222222222222222222222222222222222222222222222222222222222222222222
222222222222222222222222222222222222222222222222222222222222222222222222
222222222222222222222222222222222222222222222222222222222222222222222222
222222222222222222222222222222222222222222222222222222222222222222222222
222222222222222222222222222222222222222222222222222222222222222222222222
222222222222222222222222222222222222222222222222222222222222222222222222
222222222222222222222222222222222222222222222222222222222222222222222222
222222222222222222
# atoms in fragment 1/2:   362  2896
 fragment masses (1/2) :     1685.21    13481.68
CMA distance (Bohr)    :  15.970
constraining FC (au)   :  0.0500

           -------------------------------------------------
          |                 G F N 2 - x T B                 |
           -------------------------------------------------

        Reference                      10.1021/acs.jctc.8b01176
      * Hamiltonian:
        H0-scaling (s, p, d)           1.850000    2.230000    2.230000
        zeta-weighting                 0.500000
      * Dispersion:
        s8                             2.700000
        a1                             0.520000
        a2                             5.000000
        s9                             5.000000
      * Repulsion:
        kExp                           1.500000    1.000000
        rExp                           1.000000
      * Coulomb:
        alpha                          2.000000
        third order                    shell-resolved
        anisotropic                    true
        a3                             3.000000
        a5                             4.000000
        cn-shift                       1.200000
        cn-exp                         4.000000
        max-rad                        5.000000


          ...................................................
          :                      SETUP                      :
          :.................................................:
          :  # basis functions                6498          :
          :  # atomic orbitals                6498          :
          :  # shells                         4338          :
          :  # electrons                      6498          :
          :  max. iterations                   250          :
          :  Hamiltonian                  GFN2-xTB          :
          :  restarted?                      false          :
          :  GBSA solvation                  false          :
          :  PC potential                    false          :
          :  electronic temp.          300.0000000     K    :
          :  accuracy                    1.0000000          :
          :  -> integral cutoff          0.2500000E+02      :
          :  -> integral neglect         0.1000000E-07      :
          :  -> SCF convergence          0.1000000E-05 Eh   :
          :  -> wf. convergence          0.1000000E-03 e    :
          :  Broyden damping             0.4000000          :
          ...................................................

 iter      E             dE          RMSdq      gap      omega  full diag
   1  -3473.6001513 -0.347360E+04  0.249E+00   11.29       0.0  T
   2  -3478.6732588 -0.507311E+01  0.140E+00   11.46       1.0  T
   3  -3478.8795664 -0.206308E+00  0.607E-01   11.44       1.0  T
   4  -3478.9002732 -0.207067E-01  0.760E-02   11.47       1.0  T
   5  -3478.9013054 -0.103223E-02  0.397E-02   11.47       1.0  T
   6  -3478.9015160 -0.210598E-03  0.688E-03   11.46       1.0  T
   7  -3478.9015339 -0.179590E-04  0.123E-03   11.46       1.4  T
   8  -3478.9015350 -0.109066E-05  0.402E-04   11.46       4.4  T
   9  -3478.9015351 -0.704217E-07  0.145E-04   11.46      12.1  T
  10  -3478.9015351 -0.395403E-08  0.443E-05   11.46      39.5  T

   *** convergence criteria satisfied after 10 iterations ***

         #    Occupation            Energy/Eh            Energy/eV
      -------------------------------------------------------------
         1        2.0000           -0.6249613             -17.0061
       ...           ...                  ...                  ...
      3243        2.0000           -0.4021492             -10.9430
      3244        2.0000           -0.4020152             -10.9394
      3245        2.0000           -0.4017503             -10.9322
      3246        2.0000           -0.4016616             -10.9298
      3247        2.0000           -0.4015464             -10.9266
      3248        2.0000           -0.4014625             -10.9244
      3249        2.0000           -0.4013631             -10.9216 (HOMO)
      3250                          0.0198379               0.5398 (LUMO)
      3251                          0.0211382               0.5752
      3252                          0.0217658               0.5923
      3253                          0.0222158               0.6045
      3254                          0.0224411               0.6107
       ...                                ...                  ...
      6498                          0.3919455              10.6654
      -------------------------------------------------------------
                  HL-Gap            0.4212010 Eh           11.4615 eV
             Fermi-level           -0.1907626 Eh           -5.1909 eV

 SCC (total)                   0 d,  0 h, 13 min, 36.078 sec
 SCC setup                      ...        0 min,  0.451 sec (  0.055%)
 Dispersion                     ...        0 min,  3.560 sec (  0.436%)
 classical contributions        ...        0 min,  0.135 sec (  0.017%)
 integral evaluation            ...        0 min,  6.377 sec (  0.781%)
 iterations                     ...        9 min, 50.282 sec ( 72.332%)
 molecular gradient             ...        3 min, 26.822 sec ( 25.343%)
 printout                       ...        0 min,  8.451 sec (  1.036%)

         :::::::::::::::::::::::::::::::::::::::::::::::::::::
         ::                     SUMMARY                     ::
         :::::::::::::::::::::::::::::::::::::::::::::::::::::
         :: total energy           -3427.623770958041 Eh    ::
         :: gradient norm              0.019333583352 Eh/a0 ::
         :: HOMO-LUMO gap             11.461463682963 eV    ::
         ::.................................................::
         :: SCC energy             -3478.901535107363 Eh    ::
         :: -> isotropic ES            0.415274780808 Eh    ::
         :: -> anisotropic ES          1.122943804093 Eh    ::
         :: -> anisotropic XC          1.947840510515 Eh    ::
         :: -> dispersion             -4.083858339033 Eh    ::
         :: repulsion energy          50.618794269175 Eh    ::
         :: add. restraining           0.000000000000 Eh    ::
         :: total charge              -0.000000000009 e     ::
         :::::::::::::::::::::::::::::::::::::::::::::::::::::

      ----------------------------------------------------------- 
     |              Fast Inertial Relaxation Engine              |
      ----------------------------------------------------------- 

          ...................................................
          :                      SETUP                      :
          :.................................................:
          :   energy convergence        0.5000000E-05 Eh    :
          :   grad. convergence         0.1000000E-02 Eh/a0 :
          :   optimization log               true           :
          :   writing optlog all                1     steps :
          :   Hessian reset                    20     steps :
          :   time step scaling                 5     steps :
          :   maximium step len.        1.0000000     a0    :
          :   initial time step         0.2500000     fs    :
          :   maximum time step         1.2500000     fs    :
          :   power reset thr           0.0000000     au    :
          :   alpha parameter           0.1000000           :
          :   BFGS update                   false           :
          :   preconditioning               false           :
          ...................................................

........................................................................
.............................. CYCLE    1 ..............................
........................................................................

 iter      E             dE          RMSdq      gap      omega  full diag
   1  -3478.9051987 -0.347891E+04  0.286E-04   11.46       0.0  T
   2  -3478.9051987 -0.310583E-07  0.162E-04   11.46      10.8  T
   3  -3478.9051987 -0.765795E-09  0.511E-05   11.46      34.3  T
     SCC iter.                  ...        2 min, 57.731 sec
     gradient                   ...        3 min, 26.421 sec
 * total energy  : -3427.6238130 Eh     change    :  -0.4206534E-04 Eh
   gradient norm :     0.0177685 Eh/a0  converged?    E=F G=F D=F
   time step     :     0.2500000 fs     power     :   0.2136436E-08
   step length   :     0.0022659 a0     speed     :   0.2192336E-03

........................................................................
.............................. CYCLE    2 ..............................
........................................................................

 iter      E             dE          RMSdq      gap      omega  full diag
   1  -3478.9105299 -0.347891E+04  0.414E-04   11.46       0.0  T
   2  -3478.9105300 -0.650798E-07  0.235E-04   11.46       7.5  T
   3  -3478.9105300 -0.154887E-08  0.741E-05   11.46      23.7  T
     SCC iter.                  ...        2 min, 55.731 sec
     gradient                   ...        3 min, 26.752 sec
 * total energy  : -3427.6238680 Eh     change    :  -0.5501863E-04 Eh
   gradient norm :     0.0155177 Eh/a0  converged?    E=F G=F D=F
   time step     :     0.2500000 fs     power     :   0.2719853E-08
   step length   :     0.0033069 a0     speed     :   0.3199580E-03

........................................................................
.............................. CYCLE    3 ..............................
........................................................................

 iter      E             dE          RMSdq      gap      omega  full diag
   1  -3478.9172938 -0.347892E+04  0.526E-04   11.46       0.0  T
   2  -3478.9172939 -0.104528E-06  0.298E-04   11.46       5.9  T
   3  -3478.9172939 -0.244017E-08  0.938E-05   11.46      18.7  T
     SCC iter.                  ...        2 min, 56.159 sec
     gradient                   ...        3 min, 27.530 sec
 * total energy  : -3427.6239274 Eh     change    :  -0.5932430E-04 Eh
   gradient norm :     0.0127083 Eh/a0  converged?    E=F G=F D=F
   time step     :     0.2500000 fs     power     :   0.2827146E-08
   step length   :     0.0042150 a0     speed     :   0.4078198E-03

........................................................................
.............................. CYCLE    4 ..............................
........................................................................

 iter      E             dE          RMSdq      gap      omega  full diag
   1  -3478.9251874 -0.347893E+04  0.616E-04   11.46       0.0  T
   2  -3478.9251875 -0.141676E-06  0.350E-04   11.46       5.0  T
   3  -3478.9251875 -0.329874E-08  0.109E-04   11.46      16.1  T
     SCC iter.                  ...        2 min, 55.043 sec
     gradient                   ...        3 min, 26.476 sec
 * total energy  : -3427.6239819 Eh     change    :  -0.5455118E-04 Eh
   gradient norm :     0.0095436 Eh/a0  converged?    E=F G=F D=F
   time step     :     0.2500000 fs     power     :   0.2455865E-08
   step length   :     0.0049546 a0     speed     :   0.4793877E-03

........................................................................
.............................. CYCLE    5 ..............................
........................................................................

 iter      E             dE          RMSdq      gap      omega  full diag
   1  -3478.9338375 -0.347893E+04  0.679E-04   11.46       0.0  T
   2  -3478.9338376 -0.168877E-06  0.386E-04   11.46       4.5  T
   3  -3478.9338377 -0.394584E-08  0.118E-04   11.46      14.8  T
     SCC iter.                  ...        2 min, 55.254 sec
     gradient                   ...        3 min, 26.196 sec
 * total energy  : -3427.6240238 Eh     change    :  -0.4184688E-04 Eh
   gradient norm :     0.0064032 Eh/a0  converged?    E=F G=F D=F
   time step     :     0.2500000 fs     power     :   0.1692561E-08
   step length   :     0.0054955 a0     speed     :   0.5317211E-03

........................................................................
.............................. CYCLE    6 ..............................
........................................................................

 iter      E             dE          RMSdq      gap      omega  full diag
   1  -3478.9436939 -0.347894E+04  0.784E-04   11.46       0.0  T
   2  -3478.9436941 -0.216097E-06  0.447E-04   11.46       3.9  T
   3  -3478.9436941 -0.513592E-08  0.133E-04   11.46      13.2  T
     SCC iter.                  ...        2 min, 55.604 sec
     gradient                   ...        3 min, 25.356 sec
 * total energy  : -3427.6240493 Eh     change    :  -0.2550900E-04 Eh
   gradient norm :     0.0042067 Eh/a0  converged?    E=F G=F D=F
   time step     :     0.2750000 fs     power     :   0.6056082E-09
   step length   :     0.0064154 a0     speed     :   0.5642976E-03

........................................................................
.............................. CYCLE    7 ..............................
........................................................................

 iter      E             dE          RMSdq      gap      omega  full diag
   1  -3478.9536950 -0.347895E+04  0.830E-04   11.46       0.0  T
   2  -3478.9536952 -0.215160E-06  0.474E-04   11.46       3.7  T
   3  -3478.9536952 -0.543514E-08  0.129E-04   11.46      13.5  T
     SCC iter.                  ...        3 min,  2.852 sec
     gradient                   ...        3 min, 26.239 sec
 * total energy  : -3427.6240528 Eh     change    :  -0.3504302E-05 Eh
   gradient norm :     0.0053658 Eh/a0  converged?    E=T G=F D=F
   time step     :     0.3025000 fs     power     :  -0.4374079E-09
   step length   :     0.0069150 a0     speed     :   0.5529446E-03

........................................................................
.............................. CYCLE    8 ..............................
........................................................................
 * reset velocities

 iter      E             dE          RMSdq      gap      omega  full diag
   1  -3478.9535712 -0.347895E+04  0.144E-05   11.46       0.0  T
   2  -3478.9535712 -0.111868E-09  0.774E-06   11.46     226.4  T
   3  -3478.9535712 -0.318323E-10  0.340E-06   11.46     514.9  T
     SCC iter.                  ...        2 min, 53.746 sec
     gradient                   ...        3 min, 28.669 sec
 * total energy  : -3427.6240534 Eh     change    :  -0.6152327E-06 Eh
   gradient norm :     0.0052996 Eh/a0  converged?    E=T G=F D=T
   time step     :     0.1512500 fs     power     :   0.5350889E-10
   step length   :     0.0001151 a0     speed     :   0.1840588E-04

........................................................................
.............................. CYCLE    9 ..............................
........................................................................

 iter      E             dE          RMSdq      gap      omega  full diag
   1  -3478.9533255 -0.347895E+04  0.298E-05   11.46       0.0  T
   2  -3478.9533255 -0.197360E-09  0.173E-05   11.46     101.4  T
   3  -3478.9533255 -0.231921E-10  0.412E-06   11.46     424.9  T
     SCC iter.                  ...        2 min, 55.059 sec
     gradient                   ...        3 min, 28.034 sec
 * total energy  : -3427.6240546 Eh     change    :  -0.1199493E-05 Eh
   gradient norm :     0.0051766 Eh/a0  converged?    E=T G=F D=T
   time step     :     0.1512500 fs     power     :   0.1038753E-09
   step length   :     0.0002288 a0     speed     :   0.3658430E-04

........................................................................
.............................. CYCLE   10 ..............................
........................................................................

 iter      E             dE          RMSdq      gap      omega  full diag
   1  -3478.9529636 -0.347895E+04  0.437E-05   11.46       0.0  T
   2  -3478.9529636 -0.514319E-09  0.253E-05   11.46      69.1  T
   3  -3478.9529636 -0.400178E-10  0.611E-06   11.46     286.9  T
     SCC iter.                  ...        3 min,  1.323 sec
     gradient                   ...        3 min, 25.422 sec
 * total energy  : -3427.6240563 Eh     change    :  -0.1728408E-05 Eh
   gradient norm :     0.0049974 Eh/a0  converged?    E=T G=F D=T
   time step     :     0.1512500 fs     power     :   0.1488870E-09
   step length   :     0.0003398 a0     speed     :   0.5433911E-04

........................................................................
.............................. CYCLE   11 ..............................
........................................................................

 iter      E             dE          RMSdq      gap      omega  full diag
   1  -3478.9524937 -0.347895E+04  0.573E-05   11.46       0.0  T
   2  -3478.9524937 -0.785803E-09  0.333E-05   11.46      52.7  T
   3  -3478.9524937  0.727596E-11  0.796E-06   11.46     220.0  T
     SCC iter.                  ...        3 min,  1.281 sec
     gradient                   ...        3 min, 28.251 sec
 * total energy  : -3427.6240585 Eh     change    :  -0.2179762E-05 Eh
   gradient norm :     0.0047672 Eh/a0  converged?    E=T G=F D=T
   time step     :     0.1512500 fs     power     :   0.1866423E-09
   step length   :     0.0004469 a0     speed     :   0.7147268E-04

........................................................................
.............................. CYCLE   12 ..............................
........................................................................

 iter      E             dE          RMSdq      gap      omega  full diag
   1  -3478.9519270 -0.347895E+04  0.702E-05   11.46       0.0  T
   2  -3478.9519270 -0.114778E-08  0.407E-05   11.46      43.0  T
   3  -3478.9519270  0.554792E-10  0.964E-06   11.46     181.8  T
     SCC iter.                  ...        3 min,  2.103 sec
     gradient                   ...        3 min, 27.419 sec
 * total energy  : -3427.6240611 Eh     change    :  -0.2553229E-05 Eh
   gradient norm :     0.0044939 Eh/a0  converged?    E=T G=F D=T
   time step     :     0.1512500 fs     power     :   0.2157311E-09
   step length   :     0.0005490 a0     speed     :   0.8780007E-04

........................................................................
.............................. CYCLE   13 ..............................
........................................................................

 iter      E             dE          RMSdq      gap      omega  full diag
   1  -3478.9512779 -0.347895E+04  0.820E-05   11.46       0.0  T
   2  -3478.9512779 -0.150976E-08  0.476E-05   11.46      36.8  T
   3  -3478.9512779 -0.272848E-10  0.111E-05   11.46     157.8  T
     SCC iter.                  ...        2 min, 57.677 sec
     gradient                   ...        3 min, 28.156 sec
 * total energy  : -3427.6240638 Eh     change    :  -0.2788739E-05 Eh
   gradient norm :     0.0041880 Eh/a0  converged?    E=T G=F D=T
   time step     :     0.1512500 fs     power     :   0.2353505E-09
   step length   :     0.0006450 a0     speed     :   0.1031535E-03

........................................................................
.............................. CYCLE   14 ..............................
........................................................................

 iter      E             dE          RMSdq      gap      omega  full diag
   1  -3478.9504845 -0.347895E+04  0.103E-04   11.46       0.0  T
   2  -3478.9504845 -0.232512E-08  0.600E-05   11.46      29.2  T
   3  -3478.9504845 -0.163709E-10  0.137E-05   11.46     127.6  T
     SCC iter.                  ...        2 min, 59.160 sec
     gradient                   ...        3 min, 25.807 sec
 * total energy  : -3427.6240671 Eh     change    :  -0.3249480E-05 Eh
   gradient norm :     0.0038271 Eh/a0  converged?    E=T G=F D=T
   time step     :     0.1663750 fs     power     :   0.2457826E-09
   step length   :     0.0008172 a0     speed     :   0.1188146E-03

........................................................................
.............................. CYCLE   15 ..............................
........................................................................

 iter      E             dE          RMSdq      gap      omega  full diag
   1  -3478.9495476 -0.347895E+04  0.127E-04   11.46       0.0  T
   2  -3478.9495476 -0.342470E-08  0.740E-05   11.46      23.7  T
   3  -3478.9495476 -0.172804E-10  0.164E-05   11.46     106.7  T
     SCC iter.                  ...        2 min, 57.554 sec
     gradient                   ...        3 min, 24.579 sec
 * total energy  : -3427.6240707 Eh     change    :  -0.3614871E-05 Eh
   gradient norm :     0.0034273 Eh/a0  converged?    E=T G=F D=F
   time step     :     0.1830125 fs     power     :   0.2446062E-09
   step length   :     0.0010167 a0     speed     :   0.1343760E-03

........................................................................
.............................. CYCLE   16 ..............................
........................................................................

 iter      E             dE          RMSdq      gap      omega  full diag
   1  -3478.9484890 -0.347895E+04  0.153E-04   11.46       0.0  T
   2  -3478.9484890 -0.462160E-08  0.893E-05   11.46      19.6  T
   3  -3478.9484890 -0.168257E-10  0.190E-05   11.46      92.4  T
     SCC iter.                  ...        2 min, 58.760 sec
     gradient                   ...        3 min, 25.267 sec
 * total energy  : -3427.6240746 Eh     change    :  -0.3844018E-05 Eh
   gradient norm :     0.0030274 Eh/a0  converged?    E=T G=F D=F
   time step     :     0.2013138 fs     power     :   0.2307168E-09
   step length   :     0.0012424 a0     speed     :   0.1492809E-03

........................................................................
.............................. CYCLE   17 ..............................
........................................................................

 iter      E             dE          RMSdq      gap      omega  full diag
   1  -3478.9473666 -0.347895E+04  0.180E-04   11.46       0.0  T
   2  -3478.9473666 -0.572209E-08  0.105E-04   11.46      16.7  T
   3  -3478.9473666 -0.795808E-10  0.208E-05   11.46      84.1  T
     SCC iter.                  ...        2 min, 59.203 sec
     gradient                   ...        3 min, 25.784 sec
 * total energy  : -3427.6240784 Eh     change    :  -0.3869339E-05 Eh
   gradient norm :     0.0026988 Eh/a0  converged?    E=T G=F D=F
   time step     :     0.2214451 fs     power     :   0.2058211E-09
   step length   :     0.0014903 a0     speed     :   0.1627878E-03

........................................................................
.............................. CYCLE   18 ..............................
........................................................................

 iter      E             dE          RMSdq      gap      omega  full diag
   1  -3478.9462926 -0.347895E+04  0.205E-04   11.46       0.0  T
   2  -3478.9462926 -0.622003E-08  0.120E-04   11.46      14.6  T
   3  -3478.9462926 -0.131422E-09  0.213E-05   11.46      82.1  T
     SCC iter.                  ...        2 min, 58.329 sec
     gradient                   ...        3 min, 26.366 sec
 * total energy  : -3427.6240821 Eh     change    :  -0.3723535E-05 Eh
   gradient norm :     0.0025297 Eh/a0  converged?    E=T G=F D=F
   time step     :     0.2435896 fs     power     :   0.1759863E-09
   step length   :     0.0017519 a0     speed     :   0.1739645E-03

........................................................................
.............................. CYCLE   19 ..............................
........................................................................

 iter      E             dE          RMSdq      gap      omega  full diag
   1  -3478.9454406 -0.347895E+04  0.227E-04   11.46       0.0  T
   2  -3478.9454406 -0.578075E-08  0.134E-04   11.46      13.1  T
   3  -3478.9454406 -0.172349E-09  0.199E-05   11.46      88.2  T
     SCC iter.                  ...        2 min, 57.720 sec
     gradient                   ...        3 min, 24.523 sec
 * total energy  : -3427.6240858 Eh     change    :  -0.3615286E-05 Eh
   gradient norm :     0.0025497 Eh/a0  converged?    E=T G=F D=F
   time step     :     0.2679486 fs     power     :   0.1513162E-09
   step length   :     0.0020161 a0     speed     :   0.1820030E-03

........................................................................
.............................. CYCLE   20 ..............................
........................................................................

 iter      E             dE          RMSdq      gap      omega  full diag
   1  -3478.9450209 -0.347895E+04  0.244E-04   11.46       0.0  T
   2  -3478.9450209 -0.446425E-08  0.144E-04   11.46      12.2  T
   3  -3478.9450209 -0.982254E-10  0.171E-05   11.46     102.6  T
     SCC iter.                  ...        2 min, 55.930 sec
     gradient                   ...        3 min, 27.116 sec
 * total energy  : -3427.6240893 Eh     change    :  -0.3577038E-05 Eh
   gradient norm :     0.0026677 Eh/a0  converged?    E=T G=F D=F
   time step     :     0.2947435 fs     power     :   0.1407410E-09
   step length   :     0.0022812 a0     speed     :   0.1872122E-03
 * RMSD in coord.:     0.0005795 a0     energy gain  -0.3183781E-03 Eh

........................................................................
.............................. CYCLE   21 ..............................
........................................................................

 iter      E             dE          RMSdq      gap      omega  full diag
   1  -3478.9451508 -0.347895E+04  0.198E-04   11.46       0.0  T
   2  -3478.9451508 -0.177715E-08  0.116E-04   11.46      15.0  T
   3  -3478.9451508 -0.104592E-10  0.114E-05   11.46     153.4  T
     SCC iter.                  ...        2 min, 59.436 sec
     gradient                   ...        3 min, 27.956 sec
 * total energy  : -3427.6240924 Eh     change    :  -0.3062782E-05 Eh
   gradient norm :     0.0027116 Eh/a0  converged?    E=T G=F D=F
   time step     :     0.2500000 fs     power     :   0.1490699E-09
   step length   :     0.0019444 a0     speed     :   0.1881325E-03

........................................................................
.............................. CYCLE   22 ..............................
........................................................................

 iter      E             dE          RMSdq      gap      omega  full diag
   1  -3478.9457538 -0.347895E+04  0.192E-04   11.46       0.0  T
   2  -3478.9457538 -0.143336E-08  0.113E-04   11.46      15.6  T
   3  -3478.9457538  0.727596E-11  0.114E-05   11.46     153.8  T
     SCC iter.                  ...        3 min,  1.366 sec
     gradient                   ...        3 min, 27.007 sec
 * total energy  : -3427.6240957 Eh     change    :  -0.3269916E-05 Eh
   gradient norm :     0.0026290 Eh/a0  converged?    E=T G=F D=F
   time step     :     0.2500000 fs     power     :   0.1624696E-09
   step length   :     0.0019611 a0     speed     :   0.1897488E-03

........................................................................
.............................. CYCLE   23 ..............................
........................................................................

 iter      E             dE          RMSdq      gap      omega  full diag
   1  -3478.9467831 -0.347895E+04  0.192E-04   11.46       0.0  T
   2  -3478.9467831 -0.192131E-08  0.111E-04   11.46      15.7  T
   3  -3478.9467831 -0.422915E-10  0.128E-05   11.46     137.2  T
     SCC iter.                  ...        3 min,  3.198 sec
     gradient                   ...        3 min, 26.670 sec
 * total energy  : -3427.6240991 Eh     change    :  -0.3457748E-05 Eh
   gradient norm :     0.0024063 Eh/a0  converged?    E=T G=F D=F
   time step     :     0.2500000 fs     power     :   0.1713587E-09
   step length   :     0.0019929 a0     speed     :   0.1928257E-03

........................................................................
.............................. CYCLE   24 ..............................
........................................................................

 iter      E             dE          RMSdq      gap      omega  full diag
   1  -3478.9481659 -0.347895E+04  0.195E-04   11.46       0.0  T
   2  -3478.9481659 -0.300406E-08  0.112E-04   11.46      15.6  T
   3  -3478.9481659 -0.123237E-09  0.150E-05   11.46     117.2  T
     SCC iter.                  ...        3 min,  0.027 sec
     gradient                   ...        3 min, 27.813 sec
 * total energy  : -3427.6241026 Eh     change    :  -0.3452910E-05 Eh
   gradient norm :     0.0020678 Eh/a0  converged?    E=T G=F D=F
   time step     :     0.2500000 fs     power     :   0.1686224E-09
   step length   :     0.0020383 a0     speed     :   0.1972176E-03

........................................................................
.............................. CYCLE   25 ..............................
........................................................................

 iter      E             dE          RMSdq      gap      omega  full diag
   1  -3478.9498036 -0.347895E+04  0.199E-04   11.46       0.0  T
   2  -3478.9498036 -0.417958E-08  0.114E-04   11.46      15.3  T
   3  -3478.9498036 -0.173713E-09  0.173E-05   11.46     101.0  T
     SCC iter.                  ...        2 min, 54.478 sec
     gradient                   ...        3 min, 27.817 sec
 * total energy  : -3427.6241058 Eh     change    :  -0.3192853E-05 Eh
   gradient norm :     0.0016777 Eh/a0  converged?    E=T G=F D=F
   time step     :     0.2500000 fs     power     :   0.1515388E-09
   step length   :     0.0020904 a0     speed     :   0.2022563E-03

........................................................................
.............................. CYCLE   26 ..............................
........................................................................

 iter      E             dE          RMSdq      gap      omega  full diag
   1  -3478.9517467 -0.347895E+04  0.221E-04   11.46       0.0  T
   2  -3478.9517467 -0.615591E-08  0.126E-04   11.46      13.9  T
   3  -3478.9517467 -0.791260E-10  0.211E-05   11.46      83.1  T
     SCC iter.                  ...        3 min,  1.440 sec
     gradient                   ...        3 min, 26.451 sec
 * total energy  : -3427.6241087 Eh     change    :  -0.2958921E-05 Eh
   gradient norm :     0.0013408 Eh/a0  converged?    E=T G=F D=F
   time step     :     0.2750000 fs     power     :   0.1193388E-09
   step length   :     0.0023622 a0     speed     :   0.2077798E-03

........................................................................
.............................. CYCLE   27 ..............................
........................................................................

 iter      E             dE          RMSdq      gap      omega  full diag
   1  -3478.9537699 -0.347895E+04  0.236E-04   11.46       0.0  T
   2  -3478.9537700 -0.709906E-08  0.135E-04   11.46      13.0  T
   3  -3478.9537700 -0.188265E-09  0.223E-05   11.46      78.7  T
     SCC iter.                  ...        2 min, 57.049 sec
     gradient                   ...        3 min, 27.412 sec
 * total energy  : -3427.6241111 Eh     change    :  -0.2388809E-05 Eh
   gradient norm :     0.0013110 Eh/a0  converged?    E=T G=F D=F
   time step     :     0.3025000 fs     power     :   0.8199046E-10
   step length   :     0.0026422 a0     speed     :   0.2112748E-03

........................................................................
.............................. CYCLE   28 ..............................
........................................................................

 iter      E             dE          RMSdq      gap      omega  full diag
   1  -3478.9554828 -0.347896E+04  0.232E-04   11.46       0.0  T
   2  -3478.9554828 -0.534055E-08  0.133E-04   11.46      13.2  T
   3  -3478.9554828 -0.207820E-09  0.188E-05   11.46      93.1  T
     SCC iter.                  ...        2 min, 58.464 sec
     gradient                   ...        3 min, 25.968 sec
 * total energy  : -3427.6241131 Eh     change    :  -0.1942211E-05 Eh
   gradient norm :     0.0015719 Eh/a0  converged?    E=T G=F D=F
   time step     :     0.3327500 fs     power     :   0.5864619E-10
   step length   :     0.0028706 a0     speed     :   0.2086759E-03

........................................................................
.............................. CYCLE   29 ..............................
........................................................................

 iter      E             dE          RMSdq      gap      omega  full diag
   1  -3478.9565531 -0.347896E+04  0.217E-04   11.46       0.0  T
   2  -3478.9565531 -0.255977E-08  0.125E-04   11.46      14.0  T
   3  -3478.9565531 -0.183718E-09  0.128E-05   11.46     137.3  T
     SCC iter.                  ...        2 min, 55.538 sec
     gradient                   ...        3 min, 26.929 sec
 * total energy  : -3427.6241150 Eh     change    :  -0.1927647E-05 Eh
   gradient norm :     0.0018041 Eh/a0  converged?    E=T G=F D=F
   time step     :     0.3660250 fs     power     :   0.5847367E-10
   step length   :     0.0030529 a0     speed     :   0.2017506E-03

........................................................................
.............................. CYCLE   30 ..............................
........................................................................

 iter      E             dE          RMSdq      gap      omega  full diag
   1  -3478.9567751 -0.347896E+04  0.204E-04   11.46       0.0  T
   2  -3478.9567751 -0.109458E-08  0.119E-04   11.46      14.7  T
   3  -3478.9567751 -0.103682E-09  0.947E-06   11.46     184.9  T
     SCC iter.                  ...        3 min,  0.290 sec
     gradient                   ...        3 min, 26.766 sec
 * total energy  : -3427.6241174 Eh     change    :  -0.2441723E-05 Eh
   gradient norm :     0.0018114 Eh/a0  converged?    E=T G=F D=F
   time step     :     0.4026275 fs     power     :   0.7253679E-10
   step length   :     0.0032607 a0     speed     :   0.1958933E-03

........................................................................
.............................. CYCLE   31 ..............................
........................................................................

 iter      E             dE          RMSdq      gap      omega  full diag
   1  -3478.9560684 -0.347896E+04  0.205E-04   11.46       0.0  T
   2  -3478.9560684 -0.271029E-08  0.120E-04   11.46      14.6  T
   3  -3478.9560684 -0.134150E-09  0.122E-05   11.46     143.2  T
     SCC iter.                  ...        2 min, 58.866 sec
     gradient                   ...        3 min, 26.212 sec
 * total energy  : -3427.6241205 Eh     change    :  -0.3087769E-05 Eh
   gradient norm :     0.0015708 Eh/a0  converged?    E=T G=F D=F
   time step     :     0.4428903 fs     power     :   0.8279859E-10
   step length   :     0.0035524 a0     speed     :   0.1940186E-03

........................................................................
.............................. CYCLE   32 ..............................
........................................................................

 iter      E             dE          RMSdq      gap      omega  full diag
   1  -3478.9545672 -0.347895E+04  0.216E-04   11.46       0.0  T
   2  -3478.9545672 -0.655018E-08  0.127E-04   11.46      13.8  T
   3  -3478.9545672 -0.181899E-09  0.198E-05   11.46      88.4  T
     SCC iter.                  ...        2 min, 53.883 sec
     gradient                   ...        3 min, 27.512 sec
 * total energy  : -3427.6241239 Eh     change    :  -0.3343006E-05 Eh
   gradient norm :     0.0012944 Eh/a0  converged?    E=T G=F D=F
   time step     :     0.4871793 fs     power     :   0.7579146E-10
   step length   :     0.0039446 a0     speed     :   0.1958540E-03

........................................................................
.............................. CYCLE   33 ..............................
........................................................................

 iter      E             dE          RMSdq      gap      omega  full diag
   1  -3478.9528303 -0.347895E+04  0.213E-04   11.46       0.0  T
   2  -3478.9528303 -0.808313E-08  0.125E-04   11.46      14.0  T
   3  -3478.9528303 -0.250111E-09  0.228E-05   11.46      76.9  T
     SCC iter.                  ...        3 min,  0.722 sec
     gradient                   ...        3 min, 26.561 sec
 * total energy  : -3427.6241270 Eh     change    :  -0.3110135E-05 Eh
   gradient norm :     0.0013918 Eh/a0  converged?    E=T G=F D=F
   time step     :     0.5358972 fs     power     :   0.6117765E-10
   step length   :     0.0043906 a0     speed     :   0.1981806E-03

........................................................................
.............................. CYCLE   34 ..............................
........................................................................

 iter      E             dE          RMSdq      gap      omega  full diag
   1  -3478.9517834 -0.347895E+04  0.189E-04   11.46       0.0  T
   2  -3478.9517834 -0.353020E-08  0.112E-04   11.46      15.6  T
   3  -3478.9517834 -0.166892E-09  0.126E-05   11.46     139.2  T
     SCC iter.                  ...        2 min, 56.010 sec
     gradient                   ...        3 min, 25.575 sec
 * total energy  : -3427.6241303 Eh     change    :  -0.3291684E-05 Eh
   gradient norm :     0.0016312 Eh/a0  converged?    E=T G=F D=F
   time step     :     0.5894869 fs     power     :   0.6496047E-10
   step length   :     0.0048183 a0     speed     :   0.1977110E-03

........................................................................
.............................. CYCLE   35 ..............................
........................................................................

 iter      E             dE          RMSdq      gap      omega  full diag
   1  -3478.9521080 -0.347895E+04  0.201E-04   11.46       0.0  T
   2  -3478.9521080 -0.920409E-09  0.118E-04   11.46      14.9  T
   3  -3478.9521080 -0.891305E-10  0.684E-06   11.46     256.1  T
     SCC iter.                  ...        2 min, 57.953 sec
     gradient                   ...        3 min, 26.399 sec
 * total energy  : -3427.6241347 Eh     change    :  -0.4430756E-05 Eh
   gradient norm :     0.0015319 Eh/a0  converged?    E=T G=F D=F
   time step     :     0.6484356 fs     power     :   0.8407038E-10
   step length   :     0.0053339 a0     speed     :   0.1989713E-03

........................................................................
.............................. CYCLE   36 ..............................
........................................................................

 iter      E             dE          RMSdq      gap      omega  full diag
   1  -3478.9539560 -0.347895E+04  0.270E-04   11.46       0.0  T
   2  -3478.9539560 -0.760656E-08  0.156E-04   11.46      11.2  T
   3  -3478.9539560 -0.228738E-09  0.222E-05   11.46      78.7  T
     SCC iter.                  ...        2 min, 58.870 sec
     gradient                   ...        3 min, 26.954 sec
 * total energy  : -3427.6241400 Eh     change    :  -0.5349869E-05 Eh
   gradient norm :     0.0011510 Eh/a0  converged?    E=F G=F D=F
   time step     :     0.7132792 fs     power     :   0.8659458E-10
   step length   :     0.0060696 a0     speed     :   0.2058318E-03

........................................................................
.............................. CYCLE   37 ..............................
........................................................................

 iter      E             dE          RMSdq      gap      omega  full diag
   1  -3478.9564293 -0.347896E+04  0.310E-04   11.46       0.0  T
   2  -3478.9564293 -0.138330E-07  0.180E-04   11.46       9.7  T
   3  -3478.9564293 -0.362434E-09  0.312E-05   11.46      56.1  T
     SCC iter.                  ...        2 min, 57.419 sec
     gradient                   ...        3 min, 27.789 sec
 * total energy  : -3427.6241452 Eh     change    :  -0.5110820E-05 Eh
   gradient norm :     0.0012521 Eh/a0  converged?    E=F G=F D=F
   time step     :     0.7846071 fs     power     :   0.6931157E-10
   step length   :     0.0069834 a0     speed     :   0.2152924E-03

........................................................................
.............................. CYCLE   38 ..............................
........................................................................

 iter      E             dE          RMSdq      gap      omega  full diag
   1  -3478.9575591 -0.347896E+04  0.278E-04   11.46       0.0  T
   2  -3478.9575591 -0.651517E-08  0.164E-04   11.46      10.7  T
   3  -3478.9575591 -0.330601E-09  0.224E-05   11.46      78.3  T
     SCC iter.                  ...        3 min,  6.753 sec
     gradient                   ...        3 min, 25.837 sec
 * total energy  : -3427.6241507 Eh     change    :  -0.5501196E-05 Eh
   gradient norm :     0.0013837 Eh/a0  converged?    E=F G=F D=F
   time step     :     0.8630678 fs     power     :   0.7476474E-10
   step length   :     0.0078510 a0     speed     :   0.2200362E-03

........................................................................
.............................. CYCLE   39 ..............................
........................................................................

 iter      E             dE          RMSdq      gap      omega  full diag
   1  -3478.9565224 -0.347896E+04  0.307E-04   11.46       0.0  T
   2  -3478.9565224 -0.974751E-08  0.178E-04   11.46       9.8  T
   3  -3478.9565224 -0.393356E-09  0.294E-05   11.46      59.6  T
     SCC iter.                  ...        2 min, 57.232 sec
     gradient                   ...        3 min, 30.453 sec
 * total energy  : -3427.6241573 Eh     change    :  -0.6647341E-05 Eh
   gradient norm :     0.0010756 Eh/a0  converged?    E=F G=F D=F
   time step     :     0.9493746 fs     power     :   0.7989452E-10
   step length   :     0.0089091 a0     speed     :   0.2269936E-03

........................................................................
.............................. CYCLE   40 ..............................
........................................................................

 iter      E             dE          RMSdq      gap      omega  full diag
   1  -3478.9549491 -0.347895E+04  0.330E-04   11.46       0.0  T
   2  -3478.9549491 -0.111845E-07  0.191E-04   11.46       9.2  T
   3  -3478.9549491 -0.436557E-09  0.279E-05   11.46      62.9  T
     SCC iter.                  ...        2 min, 56.698 sec
     gradient                   ...        3 min, 27.639 sec
 * total energy  : -3427.6241640 Eh     change    :  -0.6654211E-05 Eh
   gradient norm :     0.0013193 Eh/a0  converged?    E=F G=F D=F
   time step     :     1.0443120 fs     power     :   0.6949277E-10
   step length   :     0.0102331 a0     speed     :   0.2370245E-03

........................................................................
.............................. CYCLE   41 ..............................
........................................................................

 iter      E             dE          RMSdq      gap      omega  full diag
   1  -3478.9559406 -0.347896E+04  0.324E-04   11.46       0.0  T
   2  -3478.9559406 -0.465479E-08  0.189E-04   11.46       9.3  T
   3  -3478.9559406 -0.364707E-09  0.136E-05   11.46     128.6  T
     SCC iter.                  ...        3 min,  0.700 sec
     gradient                   ...        3 min, 25.309 sec
 * total energy  : -3427.6241722 Eh     change    :  -0.8251279E-05 Eh
   gradient norm :     0.0011938 Eh/a0  converged?    E=F G=F D=F
   time step     :     1.1487432 fs     power     :   0.8736015E-10
   step length   :     0.0115883 a0     speed     :   0.2440116E-03

........................................................................
.............................. CYCLE   42 ..............................
........................................................................

 iter      E             dE          RMSdq      gap      omega  full diag
   1  -3478.9585031 -0.347896E+04  0.406E-04   11.46       0.0  T
   2  -3478.9585032 -0.205732E-07  0.236E-04   11.46       7.4  T
   3  -3478.9585032 -0.626187E-09  0.353E-05   11.46      49.6  T
     SCC iter.                  ...        2 min, 57.046 sec
     gradient                   ...        3 min, 25.513 sec
 * total energy  : -3427.6241815 Eh     change    :  -0.9321001E-05 Eh
   gradient norm :     0.0012400 Eh/a0  converged?    E=F G=F D=F
   time step     :     1.2500000 fs     power     :   0.8204639E-10
   step length   :     0.0132909 a0     speed     :   0.2571934E-03
 * RMSD in coord.:     0.0016916 a0     energy gain  -0.9219459E-04 Eh

........................................................................
.............................. CYCLE   43 ..............................
........................................................................

 iter      E             dE          RMSdq      gap      omega  full diag
   1  -3478.9585657 -0.347896E+04  0.627E-05   11.46       0.0  T
   2  -3478.9585657 -0.995897E-10  0.369E-05   11.46      47.4  T
   3  -3478.9585657 -0.195541E-10  0.225E-06   11.46     779.1  T
     SCC iter.                  ...        2 min, 59.652 sec
     gradient                   ...        3 min, 26.521 sec
 * total energy  : -3427.6241833 Eh     change    :  -0.1780571E-05 Eh
   gradient norm :     0.0012634 Eh/a0  converged?    E=T G=F D=F
   time step     :     0.2500000 fs     power     :   0.9346688E-10
   step length   :     0.0025686 a0     speed     :   0.2485216E-03

........................................................................
.............................. CYCLE   44 ..............................
........................................................................

 iter      E             dE          RMSdq      gap      omega  full diag
   1  -3478.9582186 -0.347896E+04  0.627E-05   11.46       0.0  T
   2  -3478.9582186 -0.274213E-09  0.365E-05   11.46      48.0  T
   3  -3478.9582186 -0.623004E-10  0.449E-06   11.46     390.3  T
     SCC iter.                  ...        2 min, 57.167 sec
     gradient                   ...        3 min, 25.707 sec
 * total energy  : -3427.6241853 Eh     change    :  -0.1965178E-05 Eh
   gradient norm :     0.0011772 Eh/a0  converged?    E=T G=F D=F
   time step     :     0.2500000 fs     power     :   0.1029799E-09
   step length   :     0.0025067 a0     speed     :   0.2425376E-03

........................................................................
.............................. CYCLE   45 ..............................
........................................................................

 iter      E             dE          RMSdq      gap      omega  full diag
   1  -3478.9575505 -0.347896E+04  0.743E-05   11.46       0.0  T
   2  -3478.9575505 -0.906311E-09  0.430E-05   11.46      40.8  T
   3  -3478.9575505 -0.104592E-10  0.796E-06   11.46     220.2  T
     SCC iter.                  ...        2 min, 56.694 sec
     gradient                   ...        3 min, 26.580 sec
 * total energy  : -3427.6241873 Eh     change    :  -0.2043485E-05 Eh
   gradient norm :     0.0010328 Eh/a0  converged?    E=T G=F D=F
   time step     :     0.2500000 fs     power     :   0.1059055E-09
   step length   :     0.0024779 a0     speed     :   0.2397539E-03

........................................................................
.............................. CYCLE   46 ..............................
........................................................................

 iter      E             dE          RMSdq      gap      omega  full diag
   1  -3478.9567008 -0.347896E+04  0.844E-05   11.46       0.0  T
   2  -3478.9567008 -0.132559E-08  0.487E-05   11.46      35.9  T
   3  -3478.9567008 -0.363798E-10  0.104E-05   11.46     169.2  T
     SCC iter.                  ...        2 min, 58.127 sec
     gradient                   ...        3 min, 25.979 sec
 * total energy  : -3427.6241893 Eh     change    :  -0.2023806E-05 Eh
   gradient norm :     0.0009254 Eh/a0  converged?    E=T G=T D=F
   time step     :     0.2500000 fs     power     :   0.1024182E-09
   step length   :     0.0024781 a0     speed     :   0.2397657E-03

   *** GEOMETRY OPTIMIZATION CONVERGED AFTER 46 CYCLES ***

------------------------------------------------------------------------
 total energy gain   :        -0.0004184 Eh       -0.2625 kcal/mol
 total RMSD          :         0.0020890 a0        0.0011 Å
 total power (kW/mol):        -0.0238798 (step)   -0.0001 (real)
------------------------------------------------------------------------

 FIRE (total)                  0 d,  5 h,  9 min, 29.903 sec
 setup                          ...        0 min,  0.116 sec (  0.001%)
 velocities                     ...        0 min,  0.003 sec (  0.000%)
 propagation                    ...        0 min,  0.005 sec (  0.000%)
 singlepoint calculation        ...      309 min, 29.029 sec ( 99.995%)
 log and printout               ...        0 min,  0.686 sec (  0.004%)
 preconditioner                 ...        0 min,  0.000 sec (  0.000%)
 model hessian                  ...        0 min,  0.000 sec (  0.000%)
 hessian update                 ...        0 min,  0.000 sec (  0.000%)

================
 final structure:
================
3258
 xtb: 6.6.1 (8d0f1dd)
C          105.32506485862339       99.13676419889251      120.94860656087459
C          105.89166432403303      100.53222252140363      120.71896023886833
C          107.26983826005753      100.49028919760219      120.06440561391454
C          107.81623337002773      101.88915251790561      119.78980061557830
C          109.16685945541289      101.84743119233252      119.07775704906612
C          109.63269235435017      103.23503599955964      118.64387788239429
C          110.94769643047429      103.18573336511436      117.86866855214271
C          111.45913813598385      104.56914106417032      117.46243491125765
C          110.59379918407058      105.23334266965674      116.39357247093429
C          111.12647755800459      106.58981737763237      115.93156934028431
C          111.06667597931656      107.66404501369804      117.01604869396866
C          111.34984622378502      109.05727548544331      116.45933048686142
C          111.29763796462483      110.13026740229571      117.54323832371141
C          111.48426464181622      111.53725032636868      116.98085932542769
C          111.46560602901677      112.59360088887752      118.08183074994207
C          111.57926207732785      114.01771738261968      117.54327837722720
C          111.60144763277542      115.03847947565768      118.67669007847486
C          111.66871086703604      116.48421889442851      118.19204923539013
C          111.74971327951066      117.45372231463514      119.36768985433412
C          111.74295416415404      118.92100045226684      118.94622131291290
C          112.00250776634869      119.82838963183998      120.14659225902092
C          111.67783918937664      121.30228192525924      119.90485710612926
C          112.44804230247502      121.96112834121983      118.76154283407020
C          113.96386273906734      121.95595882245205      118.94731793996175
C          114.65231669934462      122.85354390315605      117.91990403596446
C          116.17295177223087      122.82598186065559      118.05922704039126
C          116.88830428165460      123.83638470061894      117.15989450775949
C          116.67952436420245      123.57325491257242      115.66992630504734
C          117.56064891416328      124.46400689167650      114.79683324305105
C          117.52445342511170      124.07978692557168      113.31543426866938
C          116.13596325996004      124.11642442989303      112.67515767649999
C          115.50308547091149      125.50566902061992      112.69780194428306
C          114.18961782685479      125.58413288653313      111.91740965590711
C          113.08438984294293      124.65871921432965      112.42901692106652
C          112.67196267630834      124.92975369871111      113.87395876559478
C          111.48497912782457      124.06799901853333      114.29999512575625
C          111.11271714892260      124.30455025597476      115.76200969866767
C          109.96220111149549      123.42435008607325      116.25081699916740
C          108.60356608447954      123.81560174722942      115.67368915331444
C          107.47802766942917      122.98270298450312      116.28197177715683
C          106.10920527563276      123.33509700998631      115.70456835892554
C          105.01390544209032      122.43135594881018      116.26715001404874
C          103.68027518973564      122.62200041003649      115.54773402421793
C          102.59962989790498      121.62222841495770      115.96874964041069
C          103.01383647764483      120.15198746812469      115.86057707992553
C          103.51899156432853      119.76443712375904      114.47209316296218
C          104.12121862654911      118.35911757815167      114.41949278705169
C          105.49035404513330      118.25244829514158      115.09300370496602
C          106.63182544253043      118.88499185907760      114.29796848777383
C          107.93919714897196      118.81156150218622      115.08285751222395
C          109.15336663096687      119.29998412278204      114.29797403510966
C          110.42337847463888      119.21822944930508      115.14248318482466
C          111.68415871268654      119.55605560771139      114.35251638442378
C          112.93712335519797      119.48555193895524      115.22214566977392
C          114.21789772104388      119.70017817476504      114.42201711169449
C          115.46952555371479      119.62648569979541      115.29404019895844
C          116.74164375124649      119.79649813976120      114.46760371115489
C          118.00676598109507      119.84238944789203      115.32160970717727
C          119.25857563413976      120.05277801682801      114.47265569610248
C          120.48739969405453      120.37725300686090      115.31850541670272
C          121.76141979636607      120.43403522908808      114.47687971721056
C          122.96377868397290      120.91753231080318      115.28875383214228
C          124.31148620017950      120.61419353937193      114.63177726957912
C          124.49413984146220      121.29007613591916      113.27387445309014
C          125.92606261456355      121.19499906259122      112.74322330140433
C          126.35596721780449      119.77093530788845      112.39436693612933
C          127.77271290289968      119.73695870610358      111.82294075768989
C          128.25177763851531      118.33286289987983      111.44967098432440
C          128.46292672316511      117.42267901059590      112.65849680424064
C          129.07936679949634      116.08133750793928      112.26587629104348
C          129.14853813693358      115.11041664514018      113.44398856454004
C          129.57632871037325      113.71161014050425      113.00687265635653
C          129.58542936641268      112.70829783454440      114.15995233867883
C          129.78409058016419      111.28031003419599      113.65557180960570
C          129.53413979766609      110.21764832259812      114.72449990436590
C          129.61762784560128      108.80981992262367      114.13349251465721
C          129.06397892997762      107.73660860052784      115.06942427946710
C          129.01815467583748      106.34771716453183      114.42633485537665
C          130.39796541220213      105.71088819988221      114.27340776197215
C          130.35870563632884      104.32072573015184      113.63391616108539
C          130.07763661242092      104.35294816201241      112.13241461412548
C          130.21584933878680      102.97344606887961      111.49074906054746
C          130.03656199387339      103.02405916421559      109.97473945958173
C          130.13757057008081      101.63968665190933      109.33606803097058
C          130.25434300176599      101.67867826264600      107.81148853341762
C          129.03146158336190      102.27533369272393      107.11939136872243
C          129.13880592528034      102.19328154578325      105.59795537124656
C          127.99277230079196      102.92319555082913      104.90278381117312
C          128.10579529895236      102.87692791128153      103.37979590831576
C          127.10165873237169      103.81497482487588      102.71546310038572
C          127.20573201482974      103.81038058082429      101.19180715705272
C          126.36565065421209      104.91140402922811      100.54162887405047
C          124.86050969201170      104.66660992418647      100.63283301942158
C          124.05676412789701      105.89529336726169      100.21304706384318
C          122.55375694965736      105.68373961294272      100.37963709730245
C          121.75944263687232      106.96251358196338      100.12759473665960
C          120.25702561282294      106.75015901678755      100.29349619020803
C          119.47169961270016      108.05126230851147      100.15204690278796
C          117.96645900646699      107.83151930959903      100.27513540753654
C          117.18471656241569      109.14151770766125      100.23111025294784
C          115.67720097182212      108.91355015829032      100.29627283497940
C          114.89422147108272      110.22294926842679      100.33094662403460
C          113.38616597735762      109.99012748278346      100.34173099961836
C          112.59894813122573      111.29371324792298      100.43903863832288
C          111.09184802548387      111.05689207034295      100.40598060166708
C          110.29744437957140      112.35048581276723      100.56051223080308
C          108.79211940578398      112.10919541819598      100.49176487463397
C          107.98909890800964      113.38919897117567      100.70305428945110
C          106.48522967178963      113.14383088776312      100.61448345342544
C          105.67762764772860      114.40968788810854      100.88404534009891
C          104.17361972257915      114.16495086465864      100.79529562618841
C          103.37063107124450      115.41761959148808      101.13160002894422
C          101.86516643343492      115.18812458394407      101.03303941663678
C          101.07496668570184      116.42530162412326      101.44876420928831
C           99.56943388241137      116.23347452611979      101.29515858415320
C           98.78762873389009      117.44591909593437      101.79302945019214
C           97.28740123177637      117.29412206889890      101.56170138089162
C           96.49876263042782      118.45690303315446      102.15977915106373
C           95.02490038902795      118.45603038050400      101.75705840255762
C           94.29971137276917      117.17416776475466      102.14404181762856
H           94.53383870614607      119.30611645398923      102.23783830143232
H           94.94526227221743      118.59859246633587      100.67726677885064
H           96.57439221075433      118.41899645415450      103.24956417277248
H           96.94896501495457      119.39910746988663      101.83614950099090
H           97.09262615844209      117.23559241626420      100.48802716726124
H           96.95439610597596      116.35631097204265      102.00927136028501
H           98.97645327382875      117.58416070356367      102.86097456051259
H           99.14564465857185      118.34445297031560      101.28439066793196
H           99.33238279699681      116.05397514266936      100.24398965917575
H           99.25666310228851      115.34911781063886      101.85508552590026
H          101.30311382641794      116.66728974910568      102.49002046957850
H          101.39389560999328      117.27798201996893      100.84440982573112
H          101.60471890831980      114.91624519786261      100.00779857471242
H          101.58315544345481      114.34953515446902      101.67379117255048
H          103.62073663304187      115.74604813333843      102.14363660948426
H          103.65850248363266      116.22398040961056      100.45261373378233
H          103.91754402194690      113.82653031847174       99.78901097310502
H          103.89594934871967      113.36562434364215      101.48637287469545
H          105.92507787837901      114.79102140248399      101.87783103312741
H          105.96203262113738      115.18024694145343      100.16320824358108
H          106.23594693515211      112.75662507088003       99.62414108653169
H          106.20207532281398      112.37810371368562      101.34069602432044
H          108.23103949787733      113.80979489655239      101.68182326018952
H          108.28024734418520      114.12712461967725       99.95132341674477
H          108.53602333343248      111.67504175756069       99.52275973727022
H          108.51051704322037      111.38022815326113      101.25563769582061
H          110.54632604385371      112.81425891503342      101.51733841691770
H          110.58795881162422      113.04983526168215       99.77244891898171
H          110.81958457507265      110.57334715045698       99.46514075410605
H          110.81903818350246      110.37090673886105      101.21186234832037
H          112.86347646019496      111.80531930031175      101.36661112620449
H          112.87998924873440      111.94885537923327       99.61049428061456
H          113.09411604196411      109.45597455979306       99.43485590725152
H          113.12792025417137      109.35194145919337      101.19056051044782
H          115.17754687892594      110.78688183224918      101.22195910732687
H          115.16021576745088      110.82728341178522       99.45985054196564
H          115.36154087939562      108.32342302719519       99.43308162566831
H          115.44105624570629      108.33259966291791      101.19131583015235
H          117.48987532023239      109.76834250591813      101.07166795572928
H          117.42971118109539      109.68025658598773       99.31218084026827
H          117.62808357005991      107.17791553974665       99.46777185126723
H          117.75544256576073      107.32328586701607      101.21931680405166
H          119.79725502685680      108.74932310704943      100.92652791757926
H          119.69329860600874      108.50742372089832       99.18395816236811
H          119.90703064773868      106.02988271547733       99.54944098338656
H          120.06373200165268      106.32436474917428      101.28104171080085
H          122.09180033478759      107.73091275248248      100.82945157123697
H          121.96550413060496      107.32775262882460       99.11866610705019
H          122.21558177945185      104.90271664201539       99.69339859649564
H          122.35403155044480      105.33775409681554      101.39660308781222
H          124.36363299577549      106.74554125734791      100.82720583341101
H          124.28148527398376      106.14393506904149       99.17303916296572
H          124.59128667607031      103.81874499431370       99.99835208023421
H          124.59318578993141      104.41051574095400      101.65883977909219
H          126.60291523717405      105.86129259736973      101.02615730901543
H          126.64504380383519      105.00321177142655       99.48897368216367
H          128.25202031393695      103.96248355909447      100.91484795358751
H          126.90067426820043      102.83574480959186      100.80508928387708
H          126.09413489354390      103.52670415719220      103.01820367349059
H          127.27768369405767      104.83085031159396      103.07662884352430
H          129.11682528508342      103.16756897705319      103.08507891607971
H          127.94013821815476      101.85538384572448      103.03107119473020
H          127.04058831706143      102.48564382080997      105.20976047782796
H          127.99249898248405      103.96658296480697      105.22930447861039
H          130.08576185741867      102.63864916323301      105.28323835629593
H          129.14695192848956      101.14592877860791      105.28747815924029
H          128.13599829704043      101.74243559756307      107.44786270788666
H          128.92608260826455      103.32295354589716      107.40744844587137
H          131.13901257357062      102.25731560461462      107.53409320268041
H          130.40249568903201      100.65864957732798      107.44704806120804
H          131.02021333965516      101.13319752249713      109.73562509389431
H          129.26380025343903      101.04819382283873      109.61569911645000
H          129.06306368785104      103.46257424060859      109.74790691749807
H          130.80345436046096      103.67339554269066      109.54672635519975
H          131.20391448927901      102.56695243633202      111.72118506664853
H          129.47358797034369      102.29800372604616      111.92069428335441
H          129.06919260664290      104.72897464863539      111.95295031690587
H          130.78052328812993      105.03985658395662      111.65360470915604
H          131.32716128947195      103.83925032854370      113.79239307441858
H          129.60262198091948      103.71055606197865      114.13346692536166
H          131.03762985161370      106.35655160130167      113.66920209005839
H          130.85235206685999      105.62970361052638      115.26418656939936
H          128.40001873253499      105.69239258097519      115.04533433598012
H          128.54005650239259      106.42761630112985      113.44898346892111
H          129.66387158865732      107.69759478514219      115.98146772926759
H          128.04756705562252      108.01965760193914      115.35604310609546
H          129.04543066188126      108.78642369538650      113.20320601641340
H          130.65556164978091      108.58839624864920      113.88137299780114
H          130.25741322683618      110.32444557788317      115.53544154866412
H          128.53915487585601      110.37101555402148      115.14908989438138
H          129.08452440871341      111.10849259690676      112.83401344920333
H          130.79386226575468      111.16870864388505      113.25447688024721
H          130.37133838796083      112.96715609535700      114.87216389501769
H          128.63116785958886      112.76918183956592      114.68891032410163
H          128.87624597439697      113.36074401466090      112.24347476057322
H          130.56797428111011      113.75572635392842      112.55075557183446
H          129.84350911449962      115.49268984194750      114.19467302192255
H          128.16183527708935      115.04550825742218      113.91055141165219
H          128.47805622130716      115.63264052419352      111.47072493524536
H          130.08187499511146      116.24105667179330      111.86278337057512
H          129.11268161407176      117.92207074553289      113.38084281109886
H          127.50397788925734      117.23875859985002      113.14636196460489
H          127.52655840485151      117.87136727627374      110.77546644180586
H          129.19634683263999      118.41981143807239      110.90671237504351
H          127.80556875953046      120.36657637298592      110.92964295563687
H          128.46344503932821      120.16784083067749      112.55188456491257
H          126.31221259507595      119.15104463753215      113.28950012906498
H          125.66080058286313      119.35602060549252      111.66013177505407
H          126.00756802467370      121.81515114743893      111.84648632443411
H          126.61308816496073      121.60465308308117      113.48786519957919
H          123.81651142061307      120.84239255448550      112.54497744907087
H          124.22900596140765      122.34606616428694      113.37017545502800
H          125.10619877252665      120.95183295661812      115.30202365224109
H          124.41299512157485      119.53322788091195      114.51965678307940
H          122.87526646653555      121.99339086446440      115.45741838002746
H          122.94650687795486      120.43407749993321      116.26961473879491
H          121.96512072094291      119.43757515567511      114.07794934770774
H          121.60036696684105      121.10446032649567      113.63019729331165
H          120.33713689738474      121.33917935762821      115.81513095712205
H          120.60174689986781      119.61869715867270      116.09619670135910
H          119.44978350372524      119.15481548533579      113.88108621922717
H          119.08405109043569      120.87554086377209      113.77460858794072
H          117.92729843260808      120.65673816957418      116.04614580857016
H          118.10352239282001      118.91298992426491      115.88660394291452
H          116.81898106350053      118.97401493403341      113.75389577945212
H          116.66681364144661      120.72212659433205      113.89131958849462
H          115.42235209201367      120.40709885990930      116.05652659131896
H          115.49834025539496      118.66402777945619      115.81064496974632
H          114.28133725016819      118.94117455478425      113.63933329447484
H          114.17835515611667      120.67572577408359      113.93183744304989
H          112.87314951765465      120.24163984566991      116.00824092309080
H          112.97801696232411      118.50674091364482      115.70639600310778
H          111.78321909439796      118.85122724404904      113.52354917018069
H          111.59100157088552      120.55658241132740      113.92444929805761
H          110.33454732729309      119.89877381559407      115.99336625180248
H          110.52069568312430      118.20592062818348      115.54212518046201
H          109.27524547176218      118.68394230894293      113.40328006916204
H          108.99528092916620      120.33075685697683      113.97256054165025
H          107.84011996467399      119.40773826491463      115.99338752074298
H          108.10992063530219      117.77574353559859      115.38585002455238
H          106.74502316350738      118.35612791899510      113.34828240747676
H          106.40728914006922      119.92940877924832      114.07253732620730
H          105.44799203947638      118.71598672090792      116.08025553063402
H          105.72304569105026      117.19521285880177      115.23924765177532
H          103.43618694041253      117.65730340910604      114.90229175638248
H          104.22396516862085      118.05260991402564      113.37557322891671
H          102.68128594675144      119.82703793167136      113.77236939180824
H          104.27461404280771      120.47481824847711      114.14118301730416
H          103.78166907703636      119.94206881455366      116.60509114409845
H          102.15068556542842      119.52978601260651      116.11130497226203
H          102.31104377421278      121.82335804028565      117.00401569957040
H          101.71967834898555      121.79179244785796      115.34309772502525
H          103.30824170742029      123.63173346409135      115.73625337325879
H          103.84338411636789      122.53997025535654      114.47198371424227
H          105.34337251957146      121.39805610694607      116.15463878786815
H          104.88916790898917      122.62530865338357      117.33534437838948
H          105.87697505468422      124.38160960404879      115.91594765817813
H          106.14284734368947      123.21982474823609      114.61747238384032
H          107.68055544420500      121.92483847442053      116.09646529816278
H          107.46226658154239      123.12833881680670      117.36473278155434
H          108.41816629620286      124.87430965221641      115.86989123447582
H          108.60624974287003      123.67546825843246      114.59078558344085
H          110.17491197741157      122.38268425978465      115.99956641489183
H          109.90733386895711      123.49395875113045      117.34026097990220
H          111.99221754865549      124.10236109961234      116.37856279009776
H          110.84709900667119      125.35508494924217      115.90221002049404
H          110.63204815888307      124.29152423182873      113.65652152272122
H          111.73842139903078      123.01320195498292      114.16361775792357
H          113.51020435259680      124.72619227390103      114.54283383759088
[...]
  3011   6 C     3012   6 C                                       1.5264895
  3012   6 C     3013   6 C                                       1.5260296
  3013   6 C     3014   6 C                                       1.5263237
  3014   6 C     3015   6 C                                       1.5258288
  3015   6 C     3016   6 C                                       1.5235334
  3015   6 C     3017   1 H                                       1.0928125
  3015   6 C     3018   1 H                                       1.0928276
  3014   6 C     3019   1 H                                       1.0927037
  3014   6 C     3020   1 H                                       1.0930065
  3013   6 C     3021   1 H                                       1.0928525
  3013   6 C     3022   1 H                                       1.0931317
  3012   6 C     3023   1 H                                       1.0926824
  3012   6 C     3024   1 H                                       1.0924898
  3011   6 C     3025   1 H                                       1.0926007
  3011   6 C     3026   1 H                                       1.0931187
  3010   6 C     3027   1 H                                       1.0935909
  3010   6 C     3028   1 H                                       1.0922639
  3009   6 C     3029   1 H                                       1.0924239
  3009   6 C     3030   1 H                                       1.0930479
  3008   6 C     3031   1 H                                       1.0929896
  3008   6 C     3032   1 H                                       1.0920506
  3007   6 C     3033   1 H                                       1.0923946
  3007   6 C     3034   1 H                                       1.0928347
  3006   6 C     3035   1 H                                       1.0923095
  3006   6 C     3036   1 H                                       1.0923439
  3005   6 C     3037   1 H                                       1.0923168
  3005   6 C     3038   1 H                                       1.0925726
  3004   6 C     3039   1 H                                       1.0928501
  3004   6 C     3040   1 H                                       1.0932643
  3003   6 C     3041   1 H                                       1.0922130
  3003   6 C     3042   1 H                                       1.0924202
  3002   6 C     3043   1 H                                       1.0931287
  3002   6 C     3044   1 H                                       1.0927842
  3001   6 C     3045   1 H                                       1.0922652
  3001   6 C     3046   1 H                                       1.0923878
  3000   6 C     3047   1 H                                       1.0925254
  3000   6 C     3048   1 H                                       1.0925705
  2999   6 C     3049   1 H                                       1.0925753
  2999   6 C     3050   1 H                                       1.0924889
  2998   6 C     3051   1 H                                       1.0921111
  2998   6 C     3052   1 H                                       1.0939338
  2997   6 C     3053   1 H                                       1.0904230
  2997   6 C     3054   1 H                                       1.0924773
  2996   6 C     3055   1 H                                       1.0933194
  2996   6 C     3056   1 H                                       1.0909073
  2995   6 C     3057   1 H                                       1.0929242
  2995   6 C     3058   1 H                                       1.0931460
  2994   6 C     3059   1 H                                       1.0889925
  2994   6 C     3060   1 H                                       1.0929450
  2993   6 C     3061   1 H                                       1.0931699
  2993   6 C     3062   1 H                                       1.0878367
  2992   6 C     3063   1 H                                       1.0929254
  2992   6 C     3064   1 H                                       1.0933363
  2991   6 C     3065   1 H                                       1.0915966
  2991   6 C     3066   1 H                                       1.0931456
  2990   6 C     3067   1 H                                       1.0924777
  2990   6 C     3068   1 H                                       1.0902525
  2989   6 C     3069   1 H                                       1.0933090
  2989   6 C     3070   1 H                                       1.0926995
  2988   6 C     3071   1 H                                       1.0919345
  2988   6 C     3072   1 H                                       1.0922263
  2987   6 C     3073   1 H                                       1.0928569
  2987   6 C     3074   1 H                                       1.0927610
  2986   6 C     3075   1 H                                       1.0924985
  2986   6 C     3076   1 H                                       1.0925992
  2985   6 C     3077   1 H                                       1.0925672
  2985   6 C     3078   1 H                                       1.0927287
  2984   6 C     3079   1 H                                       1.0933573
  2984   6 C     3080   1 H                                       1.0925461
  2983   6 C     3081   1 H                                       1.0922989
  2983   6 C     3082   1 H                                       1.0927157
  2982   6 C     3083   1 H                                       1.0928051
  2982   6 C     3084   1 H                                       1.0920924
  2981   6 C     3085   1 H                                       1.0921805
  2981   6 C     3086   1 H                                       1.0926810
  2980   6 C     3087   1 H                                       1.0921553
  2980   6 C     3088   1 H                                       1.0925289
  2979   6 C     3089   1 H                                       1.0921279
  2979   6 C     3090   1 H                                       1.0926115
  2978   6 C     3091   1 H                                       1.0924641
  2978   6 C     3092   1 H                                       1.0930011
  2977   6 C     3093   1 H                                       1.0920709
  2977   6 C     3094   1 H                                       1.0925289
  2976   6 C     3095   1 H                                       1.0934382
  2976   6 C     3096   1 H                                       1.0926800
  2975   6 C     3097   1 H                                       1.0921252
  2975   6 C     3098   1 H                                       1.0925623
  2974   6 C     3099   1 H                                       1.0929643
  2974   6 C     3100   1 H                                       1.0909979
  2973   6 C     3101   1 H                                       1.0924982
  2973   6 C     3102   1 H                                       1.0930668
  2972   6 C     3103   1 H                                       1.0929893
  2972   6 C     3104   1 H                                       1.0927144
  2971   6 C     3105   1 H                                       1.0914880
  2971   6 C     3106   1 H                                       1.0921886
  2970   6 C     3107   1 H                                       1.0926815
  2970   6 C     3108   1 H                                       1.0927888
  2969   6 C     3109   1 H                                       1.0929091
  2969   6 C     3110   1 H                                       1.0919627
  2968   6 C     3111   1 H                                       1.0918991
  2968   6 C     3112   1 H                                       1.0929527
  2967   6 C     3113   1 H                                       1.0927973
  2967   6 C     3114   1 H                                       1.0930323
  2966   6 C     3115   1 H                                       1.0906167
  2966   6 C     3116   1 H                                       1.0918631
  2965   6 C     3117   1 H                                       1.0929316
  2965   6 C     3118   1 H                                       1.0911979
  2964   6 C     3119   1 H                                       1.0925638
  2964   6 C     3120   1 H                                       1.0925904
  2963   6 C     3121   1 H                                       1.0928113
  2963   6 C     3122   1 H                                       1.0929414
  2962   6 C     3123   1 H                                       1.0912088
  2962   6 C     3124   1 H                                       1.0927589
  2961   6 C     3125   1 H                                       1.0929840
  2961   6 C     3126   1 H                                       1.0912658
  2960   6 C     3127   1 H                                       1.0929037
  2960   6 C     3128   1 H                                       1.0925792
  2959   6 C     3129   1 H                                       1.0933699
  2959   6 C     3130   1 H                                       1.0920326
  2958   6 C     3131   1 H                                       1.0918431
  2958   6 C     3132   1 H                                       1.0930811
  2957   6 C     3133   1 H                                       1.0914226
  2957   6 C     3134   1 H                                       1.0931726
  2956   6 C     3135   1 H                                       1.0936033
  2956   6 C     3136   1 H                                       1.0910871
  2955   6 C     3137   1 H                                       1.0938066
  2955   6 C     3138   1 H                                       1.0919259
  2954   6 C     3139   1 H                                       1.0923383
  2954   6 C     3140   1 H                                       1.0936462
  2953   6 C     3141   1 H                                       1.0919935
  2953   6 C     3142   1 H                                       1.0941551
  2952   6 C     3143   1 H                                       1.0927458
  2952   6 C     3144   1 H                                       1.0917632
  2951   6 C     3145   1 H                                       1.0940289
  2951   6 C     3146   1 H                                       1.0928199
  2950   6 C     3147   1 H                                       1.0928579
  2950   6 C     3148   1 H                                       1.0918687
  2949   6 C     3149   1 H                                       1.0932595
  2949   6 C     3150   1 H                                       1.0917174
  2948   6 C     3151   1 H                                       1.0932590
  2948   6 C     3152   1 H                                       1.0924840
  2947   6 C     3153   1 H                                       1.0909153
  2947   6 C     3154   1 H                                       1.0921754
  2946   6 C     3155   1 H                                       1.0927849
  2946   6 C     3156   1 H                                       1.0931474
  2945   6 C     3157   1 H                                       1.0933460
  2945   6 C     3158   1 H                                       1.0936419
  2944   6 C     3159   1 H                                       1.0911175
  2944   6 C     3160   1 H                                       1.0913071
  2943   6 C     3161   1 H                                       1.0937336
  2943   6 C     3162   1 H                                       1.0917281
  2942   6 C     3163   1 H                                       1.0927120
  2942   6 C     3164   1 H                                       1.0933831
  2941   6 C     3165   1 H                                       1.0920573
  2941   6 C     3166   1 H                                       1.0913879
  2940   6 C     3167   1 H                                       1.0932238
  2940   6 C     3168   1 H                                       1.0931932
  2939   6 C     3169   1 H                                       1.0912908
  2939   6 C     3170   1 H                                       1.0927227
  2938   6 C     3171   1 H                                       1.0935802
  2938   6 C     3172   1 H                                       1.0930943
  2937   6 C     3173   1 H                                       1.0911773
  2937   6 C     3174   1 H                                       1.0934200
  2936   6 C     3175   1 H                                       1.0933828
  2936   6 C     3176   1 H                                       1.0908522
  2935   6 C     3177   1 H                                       1.0926839
  2935   6 C     3178   1 H                                       1.0930727
  2934   6 C     3179   1 H                                       1.0932784
  2934   6 C     3180   1 H                                       1.0907733
  2933   6 C     3181   1 H                                       1.0920496
  2933   6 C     3182   1 H                                       1.0934440
  2932   6 C     3183   1 H                                       1.0934450
  2932   6 C     3184   1 H                                       1.0915522
  2931   6 C     3185   1 H                                       1.0919763
  2931   6 C     3186   1 H                                       1.0931152
  2930   6 C     3187   1 H                                       1.0911964
  2930   6 C     3188   1 H                                       1.0909003
  2929   6 C     3189   1 H                                       1.0918790
  2929   6 C     3190   1 H                                       1.0932001
  2928   6 C     3191   1 H                                       1.0930739
  2928   6 C     3192   1 H                                       1.0933153
  2927   6 C     3193   1 H                                       1.0906153
  2927   6 C     3194   1 H                                       1.0923832
  2926   6 C     3195   1 H                                       1.0925169
  2926   6 C     3196   1 H                                       1.0932981
  2925   6 C     3197   1 H                                       1.0933982
  2925   6 C     3198   1 H                                       1.0923800
  2924   6 C     3199   1 H                                       1.0926978
  2924   6 C     3200   1 H                                       1.0913836
  2923   6 C     3201   1 H                                       1.0914959
  2923   6 C     3202   1 H                                       1.0931447
  2922   6 C     3203   1 H                                       1.0931146
  2922   6 C     3204   1 H                                       1.0931391
  2921   6 C     3205   1 H                                       1.0931633
  2921   6 C     3206   1 H                                       1.0911714
  2920   6 C     3207   1 H                                       1.0915680
  2920   6 C     3208   1 H                                       1.0926719
  2919   6 C     3209   1 H                                       1.0922804
  2919   6 C     3210   1 H                                       1.0925484
  2918   6 C     3211   1 H                                       1.0931427
  2918   6 C     3212   1 H                                       1.0925588
  2917   6 C     3213   1 H                                       1.0922469
  2917   6 C     3214   1 H                                       1.0928666
  2916   6 C     3215   1 H                                       1.0931602
  2916   6 C     3216   1 H                                       1.0925038
  2915   6 C     3217   1 H                                       1.0923011
  2915   6 C     3218   1 H                                       1.0929792
  2914   6 C     3219   1 H                                       1.0931670
  2914   6 C     3220   1 H                                       1.0925590
  2913   6 C     3221   1 H                                       1.0922840
  2913   6 C     3222   1 H                                       1.0929447
  2912   6 C     3223   1 H                                       1.0933237
  2912   6 C     3224   1 H                                       1.0926922
  2911   6 C     3225   1 H                                       1.0921852
  2911   6 C     3226   1 H                                       1.0927859
  2910   6 C     3227   1 H                                       1.0933765
  2910   6 C     3228   1 H                                       1.0927402
  2909   6 C     3229   1 H                                       1.0920726
  2909   6 C     3230   1 H                                       1.0925542
  2908   6 C     3231   1 H                                       1.0935239
  2908   6 C     3232   1 H                                       1.0927167
  2907   6 C     3233   1 H                                       1.0920210
  2907   6 C     3234   1 H                                       1.0923020
  2906   6 C     3235   1 H                                       1.0936852
  2906   6 C     3236   1 H                                       1.0927033
  2905   6 C     3237   1 H                                       1.0920795
  2905   6 C     3238   1 H                                       1.0921237
  2904   6 C     3239   1 H                                       1.0937939
  2904   6 C     3240   1 H                                       1.0927361
  2903   6 C     3241   1 H                                       1.0921978
  2903   6 C     3242   1 H                                       1.0920786
  2902   6 C     3243   1 H                                       1.0938836
  2902   6 C     3244   1 H                                       1.0927890
  2901   6 C     3245   1 H                                       1.0923297
  2901   6 C     3246   1 H                                       1.0921648
  2900   6 C     3247   1 H                                       1.0939515
  2900   6 C     3248   1 H                                       1.0926823
  2899   6 C     3249   1 H                                       1.0924788
  2899   6 C     3250   1 H                                       1.0922628
  2898   6 C     3251   1 H                                       1.0933018
  2898   6 C     3252   1 H                                       1.0915593
  2897   6 C     3253   1 H                                       1.0879369
  2897   6 C     3254   1 H                                       1.0872205
  2897   6 C     3255   1 H                                       1.0876453
  3016   6 C     3256   1 H                                       1.0883335
  3016   6 C     3257   1 H                                       1.0869552
  3016   6 C     3258   1 H                                       1.0883821

 * 2 distinct bonds (by element types)

   Z      Z             #   av. dist./Å        max./Å        min./Å
   1 H    6 C        2178     1.0923156     1.0941877     1.0861478
   6 C    6 C        1071     1.5273050     1.5365062     1.5221068


optimized geometry written to: xtbopt.xyz


           -------------------------------------------------
          | TOTAL ENERGY            -3427.624189343799 Eh   |
          | GRADIENT NORM               0.000925580763 Eh/α |
          | HOMO-LUMO GAP              11.461082519427 eV   |
           -------------------------------------------------

------------------------------------------------------------------------
 * finished run on 2024/10/04 at 02:51:56.099     
------------------------------------------------------------------------
 total:
 * wall-time:     0 d,  5 h, 30 min, 35.452 sec
 *  cpu-time:     1 d,  5 h, 57 min, 36.724 sec
 * ratio c/w:     5.438 speedup
 SCF:
 * wall-time:     0 d,  0 h, 13 min, 36.204 sec
 *  cpu-time:     0 d,  1 h, 27 min, 43.756 sec
 * ratio c/w:     6.449 speedup
 ANC optimizer:
 * wall-time:     0 d,  5 h, 16 min, 17.912 sec
 *  cpu-time:     1 d,  4 h, 28 min, 56.300 sec
 * ratio c/w:     5.403 speedup

