3795
 energy: -5103.589941020414 gnorm: 0.000931852818 xtb: 6.6.1 (8d0f1dd)
C          112.52088160977353      109.94607709563383      107.58146743689301
C          111.34474190406598      110.88336485242490      107.72981558870906
C          113.86054242763760      110.66007990596971      107.43886735272150
C          114.28513923294895      111.34554545845049      108.73590045385217
H          114.62605643139986      109.93878329661936      107.14774152983316
H          113.78095271262333      111.40261075649408      106.64320702281645
C          114.77166728484320      110.35369114677908      109.79063909317917
H          115.09485319110166      112.04177848817159      108.51853597796264
H          113.44475415500762      111.90898643528364      109.14413102402851
C          115.39724641444435      111.05882050107719      110.97412923975951
H          113.94532937057775      109.74178819777654      110.15183210701194
H          115.53071452357257      109.69858783827414      109.35151651070684
N          115.42338349390172      110.33865880197334      112.10319674440910
O          110.26891350497083      110.24974541557947      108.14323380091570
O          111.35696314105509      112.06347986452029      107.44718653793272
H          109.47267312948205      110.85439683062845      108.26042911542247
H          112.31163110545862      109.32704965912377      106.70391071759715
H          112.51591713699791      109.28375370179675      108.44557513081681
C          115.95478745332426      110.83556960921989      113.35400253346737
H          114.95611469710479      109.44047207479827      112.14639840925700
C          114.94567541575559      110.64864750901593      114.48442848113331
H          116.88332755588353      110.30541592024801      113.59339835383894
H          116.19481113415628      111.89160941517315      113.21169586975263
C          115.40566356956960      111.31282392384885      115.78270382311813
H          113.98187291149787      111.05267670236583      114.17162219831631
H          114.81691754739614      109.57962986614814      114.64884992793557
C          114.91225458271548      110.58149156861064      117.03026898498959
H          116.49604873300639      111.31616360972720      115.81042768975378
H          115.09013321115049      112.35560991173796      115.80601914626162
C          113.39341757164559      110.44002250489331      117.13851312636852
H          115.33358487915459      109.57527065184931      117.03853602229235
H          115.28797842008642      111.10797191373925      117.90729161481019
C          112.63502904065702      111.75542072263070      117.05939737604416
H          113.01762381062649      109.79324479940142      116.34497391575557
H          113.15983045547149      109.95664155295736      118.08798697452558
N          113.09120507535228      112.71633248368813      118.04424498729583
H          112.74497171664228      112.20715913442324      116.06851760916082
H          111.56356839678178      111.57252208754647      117.21051792686553
C          112.67219224134965      113.97557998634794      118.00317162967713
H          113.76562352105866      112.41409485495510      118.74194907570825
O          115.88805951258198      112.18140429816775      110.90028951832339
C          113.24399976005881      114.90379436878852      119.05248163644788
C          114.74599835167206      115.13220766699050      118.84019764881779
H          112.69209006945069      115.84425197932262      119.01641192320250
H          113.09725543627989      114.45834515029469      120.03790962565500
C          115.08289278287674      115.60510917529754      117.42729890642427
H          115.10099802692685      115.87186664725579      119.55833848865824
H          115.26984073995354      114.19400770339628      119.03281102646028
C          114.59145640872259      117.01519375632758      117.10543135429005
H          116.16232492901814      115.57549354627650      117.27544601460033
H          114.63556043871152      114.91695112771437      116.70763084946239
C          115.37862701801242      118.12258051510614      117.78029987565637
H          114.64058821776105      117.18428226819259      116.02898942220693
H          113.54689979667401      117.12978592034440      117.40530900894369
N          115.21022265529736      119.31591099064768      117.20001537532666
C          115.81814287203358      120.53979632454138      117.67042494750730
H          114.63859634946418      119.38032990223793      116.36447688857031
O          111.86530178951598      114.35102616476442      117.14182578793104
C          114.82222786786033      121.69943940333435      117.64437704504650
H          116.17972111598607      120.35548914069560      118.68602048082803
H          116.68879821824190      120.78726772340818      117.04960100605703
C          114.64685058428947      122.27034615300954      116.23670551011921
H          113.86292475869550      121.34575704561651      118.02563171890202
H          115.18246536888765      122.48441340249329      118.31255411160343
C          113.62690268150460      123.41053571272774      116.19744882629043
H          115.61194395662237      122.64653964578250      115.88954278450416
H          114.34134295055041      121.47626441198477      115.55514636177394
C          113.79053071017067      124.31224855217560      114.97536854194891
H          112.61374826538423      123.00583539256283      116.20515618203510
H          113.74839328835323      124.02226103625534      117.09474875059790
C          113.41383475134927      123.63242856263052      113.66505969733358
N          113.73885980362121      124.49942116323346      112.54470862717999
H          113.96636551617243      122.69421889093981      113.54359036452129
H          112.34565946408327      123.39002094363110      113.65128459087660
C          113.64057914524517      124.09661187956429      111.27160910554608
H          114.14240898933436      125.39903812355519      112.77310502677021
O          116.07845447986797      117.96356033758718      118.77996324314265
C          114.30115271580937      125.02825439326595      110.26219059028836
C          114.00598183391337      124.64404080552026      108.81213676757210
H          114.00339617481247      126.05724091561264      110.46554506852226
H          115.37813162887230      124.94921123055681      110.44547927805294
C          115.01601750502412      125.29182020928091      107.87039151130610
H          114.05778156629016      123.55684550208132      108.72585617251474
H          112.98967461971411      124.94594412586382      108.54998418442327
C          114.89906828929188      124.84056120040582      106.40961782073030
H          114.92400850382859      126.37412737957695      107.94348478372386
H          116.01936218808326      125.02632183386531      108.20947529049364
C          113.58137021642914      125.15333406994344      105.75096297410741
H          115.69701081972839      125.31986256212096      105.83847472877578
H          115.03203758566997      123.75912660032142      106.36040831732694
N          113.27714647379203      126.41339224998640      105.46660624169003
C          113.97893698436282      127.62084997545163      105.83931089122383
H          112.37176492319652      126.55655096087490      105.03744362733386
H          113.17101080887801      125.20445071160036      115.09790386105574
H          114.82970015444990      124.63896393232699      114.90834458117230
O          113.10434407188829      123.04779477392775      110.94333787137623
O          112.80502539590637      124.24438003217124      105.41385793143613
C          113.54016862610870      128.80902860172216      104.98519063875921
H          113.77995135578722      127.84321006876763      106.89239249093006
H          115.05545078140764      127.46926622648886      105.72379359284538
C          112.02410943275994      129.04711731461526      104.94825824589907
H          114.03822621718800      129.69159658636113      105.38651820743515
H          113.89232752614046      128.66927626908000      103.96211562368973
C          111.30485766868604      128.90642074066395      106.29238427357585
H          111.85453533700461      130.05346460800499      104.56158738339361
H          111.55980361200832      128.35825222376184      104.23843869145335
C          111.80688230325941      129.87986141504564      107.35692325422785
H          110.24214283515660      129.09763716877580      106.12445311180731
H          111.39331013445322      127.88497474407843      106.66482002007358
C          110.97443737775571      129.79692861143874      108.63679469955078
H          112.84926614624024      129.68030230281678      107.60575156312639
H          111.74324059489173      130.90069589606838      106.97733631116463
N          111.06904749438735      128.51366237100862      109.30208322548113
H          111.32278425479798      130.54068415839035      109.35748219654124
H          109.92253606769124      129.99396875102980      108.40490338070943
C          111.56506755068797      128.36472892931553      110.54037778915330
H          110.71093506995970      127.70222432762004      108.81903413781927
C          111.35861435551895      126.98484274840906      111.13470333948800
C          109.92764932918389      126.89744504258485      111.68135013767049
H          111.51179982480816      126.21378396692282      110.37890419513400
H          112.08015363313659      126.84495803836299      111.94017465417750
C          109.69029729026222      125.65449633585673      112.53900062317581
H          109.71714023234139      127.78832343462894      112.27797968623750
H          109.23421526889241      126.89000699448982      110.83820806226508
C          110.26397341750135      125.79205165945505      113.94672128378346
H          108.61569866202549      125.47633969206824      112.61600495899683
H          110.14375297919824      124.78289539099914      112.06494339265410
C          109.98545016622867      124.55865966838978      114.78130071196142
H          111.34850825952483      125.90800714246913      113.88833053833955
H          109.85615962228076      126.66983478748188      114.44637561485496
N          109.63875308289380      124.80377658177355      116.04680969075567
C          109.42266410654221      123.74562204726185      117.01555684212177
H          109.69203570479739      125.75378369858916      116.39696010245652
O          112.08943379609183      129.27977203372407      111.16500999371250
C          109.58183929504574      124.27519533560955      118.43606385351656
H          108.41874178900211      123.32718800178752      116.87945948478675
H          110.14264125999584      122.94808383888549      116.80746721829037
C          109.76844444758254      123.15364117250472      119.46038453546265
H          110.44520215335939      124.93971180436962      118.45922429387376
H          108.70508279569549      124.87170887783984      118.69270236293457
C          111.19563159282275      122.59762395142623      119.47794675410709
H          109.51323522279384      123.52834060983757      120.45149383946649
H          109.07220796794805      122.34746010954770      119.22371897897287
C          112.20443578637804      123.48711158927497      120.20608537711996
H          111.19138249426317      121.61512281324981      119.95122756845670
H          111.53665591684879      122.46170944270929      118.45162441062129
C          112.03743131532106      123.46190227042104      121.72322973982821
H          113.21496752903515      123.14400722761054      119.97550980480273
H          112.12298940883809      124.51664518900947      119.85905691661407
N          113.10835622322215      124.18810700436136      122.36736953539005
H          111.09567077419983      123.91622004346297      122.03817976071909
H          112.05920243835305      122.42266084095215      122.07196923907512
O          110.06085975419255      123.41726165497165      114.32766923986101
C          112.92719432991213      125.09306092316626      123.32850649995243
H          114.04498664453472      124.00437937000639      122.01162906128248
C          114.20974032594071      125.68098074082984      123.88447264535729
C          114.67542375492884      124.82559015867643      125.06794281687853
H          114.97782292491934      125.69026612771957      123.11114910890956
H          114.02481614162132      126.70307741957804      124.21631866387639
C          116.08624996572324      125.19212178449179      125.51934308336575
H          113.97534887719237      124.94491355038136      125.89665517036600
H          114.65991726157448      123.77280021997336      124.77385412467754
C          116.53528209047168      124.32410980933365      126.70171282105163
H          116.77559401096198      125.04404014954672      124.68552337290808
H          116.12716447407473      126.24560691697832      125.80333166321616
C          115.97365621967140      124.83850298319676      128.00811106687109
H          116.21670120417892      123.29627260843053      126.53869824778420
H          117.62313013497533      124.34845054526947      126.77950221196940
N          114.97676926641645      124.13928761059542      128.53928120168942
O          111.81841725393576      125.39609125543674      123.77094790411580
C          114.35540537617139      124.50758624083056      129.79477000445999
H          114.60497778194174      123.33755201037894      128.03879531791415
C          112.96154083227334      125.11942446813106      129.61673021472782
H          114.29570365892586      123.61775061093563      130.42576683871789
H          115.01913147740228      125.23701373049580      130.26470357904381
C          111.85702825527396      124.07082279316589      129.48674715479808
H          112.75036856670542      125.74914344077150      130.48234091146301
H          112.97170873557850      125.76433678103416      128.73581433491199
C          110.49825852351157      124.73764053702642      129.25622471879097
H          112.09842716521865      123.39347785393188      128.66615677226804
H          111.81872536746852      123.48764458809418      130.40886881053623
C          109.29768697584450      123.82898402832319      129.54332933821226
H          110.41716550651626      125.60133287574875      129.91932455147850
H          110.45044539517271      125.12298994696886      128.23548508088129
C          109.32247439021752      122.49750767084389      128.79908035904674
H          109.26702051938649      123.60642412013486      130.61048952814008
H          108.38190549191501      124.36503197650966      129.28828689180165
N          109.36948083721248      122.68845316570959      127.36549067304455
H          110.19249040743189      121.91049704436455      129.11541026082193
H          108.42249290973463      121.91885587147164      129.02181367932178
C          108.84405389692442      121.84024941053524      126.47449467299367
H          109.97803975084391      123.42087442016552      127.03433169318549
O          116.43180825614691      125.85483025420589      128.55067445445081
C          109.21080420919581      122.13902275251742      125.03695952936791
C          110.46564233916062      121.33715534532047      124.66248719698677
H          108.38272450829365      121.83867746518240      124.39330130977126
H          109.39895191045500      123.20356664582101      124.89779871348416
C          111.69617744559278      121.73583115558975      125.47721934302658
H          110.26074464227915      120.27290073828244      124.80350825405266
H          110.66861234378798      121.49958086099613      123.60470892527147
C          112.92389696189917      120.92400555680747      125.07532762147385
H          111.90311500750028      122.79891627214414      125.33524231122702
H          111.51525985410883      121.56599974395975      126.53986146037880
C          114.08092098165491      121.07311334098624      126.04849998716500
H          112.67341988336797      119.86337426221242      125.02109952086096
H          113.27740802909983      121.21678447303348      124.08515780080589
N          115.11164033753271      120.26597474841442      125.77882128139161
C          116.33696070861338      120.22865574745342      126.55304878552981
H          115.03327169983808      119.63722833719515      124.98493177508453
O          108.15769703498046      120.87399163931062      126.79651006865436
C          117.51487996690611      119.81422866398847      125.67656496380977
H          116.49609758760988      121.22417113534095      126.97480131024757
H          116.23453416897979      119.52570311296859      127.38825365410838
C          118.87239207570560      120.03374425922509      126.34851015430903
H          117.40101407109348      118.75748431918170      125.42416193901373
H          117.48238602924859      120.38928005634554      124.74930970270432
C          119.30084086063329      121.50156222066917      126.35954514463148
H          118.83307993263425      119.65161506895463      127.37014438776848
H          119.62715976034821      119.45326587286630      125.81183726852345
C          120.78711699971687      121.69298959759169      126.66461509621034
H          119.10342422062224      121.93650685059104      125.37727977383810
H          118.71280468692019      122.05670537148417      127.09087790107530
C          121.19939586102723      121.24893357415284      128.06428070420966
H          121.38598332567010      121.12698680130742      125.94964776606194
H          121.02641763219735      122.75188569521701      126.54957352913773
N          120.45150015977340      121.96163647701479      129.07704333566161
H          121.03492091328106      120.17717705063293      128.19802553373486
H          122.27262497680329      121.43261172608324      128.19788766353204
C          120.10374228352813      121.43778918292058      130.25041209622165
H          120.13084231124387      122.89447808737580      128.83841214640248
O          114.06973941180031      121.86119011420865      126.99143205931141
C          119.23590783854200      122.33417604144564      131.11282891237099
C          117.82039520450934      122.47546178537142      130.53852306790037
H          119.19797990416400      121.90597516067106      132.11458387316182
H          119.69249585453855      123.32282483432034      131.17159021131474
C          117.17266299907712      121.13827069964545      130.17931690762691
H          117.20301819652364      122.99289639126754      131.27510797551321
H          117.85834398693612      123.09997671642320      129.64472045284879
C          117.17745392291603      120.14920477240555      131.35143890051876
H          116.14509931983676      121.32198763806149      129.85617869029628
H          117.70329446349940      120.68262566703129      129.34183604970940
C          116.30207363700039      118.95150996390879      131.03504955715579
H          118.19741064391938      119.79308345436317      131.50433627532564
H          116.83568365354314      120.64336399955226      132.26054453060203
N          115.20061885045240      118.85526565842112      131.78992816546398
O          120.45338101082670      120.31692029086535      130.62337228890021
C          114.21379408445232      117.79921926260305      131.69622431635628
H          115.03665949068633      119.54736681090259      132.50481584731781
C          113.72479283442432      117.37665097089832      133.08120372352766
H          113.36621414257343      118.15402242899935      131.09748973936678
H          114.68853589044261      116.96788703488276      131.17375635764918
C          112.37490729871483      116.66001527133612      133.02462231989813
H          114.47579347758915      116.74712772374401      133.55724638799444
H          113.60151043939736      118.27350777555019      133.69312691108175
C          112.41653456618212      115.27724400944663      132.37429497670985
H          111.99253078411721      116.55582030906578      134.04148913538413
H          111.67250757636960      117.28814915957588      132.47178542401915
C          113.05511701015870      114.21780962985105      133.27124171186966
H          111.39208917537519      114.96864524375248      132.15093798278699
H          112.95909623865528      115.33149243753529      131.43020226363117
C          112.96573628496452      112.84356669384010      132.61497790327681
H          114.09805532904292      114.46898122182843      133.46883854881179
H          112.52530533243150      114.19561868118532      134.22640242370542
N          113.43838562837578      111.78842062429011      133.48569747888288
H          111.92644622012317      112.63970318588740      132.32638509377915
H          113.58408899209510      112.80996897462140      131.71805544079695
C          114.20067011815634      110.76732175941565      133.06744607347025
H          113.12799600522634      111.82560441204633      134.44392760697599
O          116.57197625824676      118.15888032473492      130.13716919885141
C          114.53380725130400      109.75242435706875      134.14914806475036
C          115.99524606758204      109.28839925927186      134.11873021991610
H          114.31024109917048      110.18203732517284      135.12562069302618
H          113.88011110226904      108.88941660528120      133.99905285636981
C          116.26136892414924      108.29380289880983      132.99178854142633
H          116.64572787296235      110.15775276678411      134.00531103881457
H          116.23015368868283      108.81878616365663      135.07604109944069
C          117.73256916141484      107.87073346895781      132.93465436289242
H          115.63674198866489      107.41112998842080      133.14540555578509
H          115.98165047680101      108.74766625441835      132.04108220902776
C          117.96345848693319      106.97260103377118      131.73459986191844
H          118.35363157270167      108.75936757828809      132.82149252283517
H          118.01347998267352      107.36078445419675      133.85649086143775
N          117.76770551791377      105.66925127575480      131.95855752418794
C          117.89133901909030      104.63957563634693      130.94555994576965
H          117.50505292054447      105.35918971202646      132.88159337016288
O          114.57942375558642      110.66603784688134      131.90525379535879
C          116.82435327705167      103.56362503421742      131.13192044480289
H          117.79382720120053      105.13110336632737      129.97697169126778
H          118.88885900732043      104.18750786503175      131.00671686979223
C          117.03675024236348      102.36615578944406      130.20316355651801
H          116.86849445326229      103.21679670985837      132.16761518355764
H          115.83827492822934      103.99463457202465      130.94467168160782
C          116.69689504066622      102.68859472774567      128.75006425508113
H          118.07088551639610      102.02639720510783      130.27687749048459
H          116.39641431307311      101.54468808051823      130.53090786422069
C          116.71128717807680      101.46047302256746      127.84104661753288
H          115.70150091993655      103.13684256710583      128.71950878077612
H          117.40943824638103      103.41727156123353      128.36362171307036
C          118.08750474296282      100.80491521605298      127.73829012235727
H          115.99769942202740      100.71907154853943      128.20519485009052
H          116.39861725277572      101.75112595143399      126.83627324023850
N          118.14179042079874       99.91015113878120      126.60055046138065
H          118.87001425451557      101.55493481684906      127.59781697256281
H          118.31199382631637      100.23690048934357      128.64791446106176
C          119.14656292426724       99.89586096048109      125.72017004900518
H          117.30292995038120       99.37822145135931      126.39891354446677
O          118.29232241476160      107.41704933168114      130.63856556150526
C          118.97970260136728       98.90160423319068      124.58381295363333
C          119.16725965273410       99.58181803072669      123.22697986945055
H          119.74346227993649       98.12972726450627      124.70625258628895
H          117.99638225028258       98.43759935140136      124.64599014405820
C          119.14252880169553       98.56351202010653      122.09076504960763
H          118.36900266884454      100.31479578038706      123.08739126452917
H          120.11823997063443      100.11884279916968      123.23138346095004
C          119.26832374794056       99.21329849604811      120.70863551304754
H          119.95831099355055       97.85025301959084      122.22565801401727
H          118.20296011645044       98.00841375481295      122.13685784979920
C          119.08606553724255       98.14483545200675      119.65165606018823
H          118.48947768735090       99.96537731625713      120.58041787178814
H          120.23967099422764       99.69406526262580      120.60012774131557
N          120.15498872649945       97.37923413832470      119.42966187086307
O          120.14520062907393      100.60583262384058      125.82510655094788
C          120.13997997463665       96.25564972915224      118.51258286079918
H          121.05528003076765       97.62889473478970      119.82060765011421
C          121.43831459234178       95.47091950474649      118.64149254106263
H          119.27836728871299       95.62224210986331      118.75149567816024
H          120.00833087113378       96.62389657749338      117.48852469533861
C          121.42408926430221       94.14214780924630      117.88607555527275
H          122.26268612717065       96.09553503692956      118.29788598425040
H          121.60900400756161       95.26193116442640      119.69948507335472
C          121.17761598423921       94.25687584613706      116.38088238669350
H          122.38583366569210       93.65065197615905      118.04698719065085
H          120.65022971521041       93.50003886177855      118.31340018980126
C          122.17110184815422       95.17779822987201      115.67209507623937
H          121.25659230751808       93.25416686871927      115.95155045199920
H          120.15792735265853       94.60817505961086      116.20876903401853
C          122.18685965221130       94.96005634959801      114.15043625161817
H          121.91907236294387       96.21942354361914      115.88228073087778
H          123.17644893178128       94.98881079875980      116.05186797856778
N          120.91192515536882       95.13786548898926      113.47493377550200
H          122.89314914518815       95.66092313692195      113.69596988846794
H          122.53250468548097       93.94639834901076      113.93073667930787
H          120.51845263735174       96.04063163455757      113.71849789113850
H          120.25626576586923       94.42866765126858      113.78118341289023
O          118.00830754200878       97.96151882915164      119.08427249123511
C          104.61194439018938      111.58803135345529       97.71720567010824
C          105.46824552020240      110.48799999318067       97.13449193674685
C          104.67860097995153      111.49132848335086       99.24759603151860
C          103.97987631349808      112.65593442110722       99.94241255849251
H          104.22543904434463      110.55097787565666       99.56830775309605
H          105.72713298614998      111.47830947915472       99.55182712307774
C          104.25829013058227      112.63577371199503      101.44498731712692
H          104.34175759179834      113.59666558685784       99.52401119006730
H          102.90270004354080      112.59708632750825       99.77925674497108
C          103.50682299482094      111.52907025165507      102.17200020954778
H          105.32681006720026      112.53647049995588      101.63097985638603
H          103.91116064535804      113.57354594375784      101.88297312568473
N          104.26568727854735      110.80665251396097      103.00224928931800
O          106.72948791444766      110.86005398832997       97.00203260075371
O          105.06381687700021      109.37884930081918       96.86245112625765
H          107.33360122510504      110.11732895758433       96.71427452793290
H          103.58424863152027      111.46652613886876       97.37827807340578
H          105.00546598126614      112.55008001419070       97.39072248046097
C          103.74605980822015      109.80237274151786      103.90712568391191
H          105.27430656434882      110.91041602899195      102.97594421969166
C          104.76095507301306      108.68745850644319      104.14220257865749
H          103.49499820969497      110.28511259066892      104.85984099859687
H          102.81752657604218      109.40880018713045      103.48327049536074
C          104.33684382180576      107.77527873950255      105.29626499276493
H          104.85951443563974      108.10320894635851      103.22591396693836
H          105.73172450472254      109.13553282399809      104.35987002742284
C          104.59417818251872      108.38654307792413      106.67742266789153
H          103.27295303843805      107.55604968422921      105.19132112621044
H          104.87604289003038      106.82989412697546      105.22413949762418
C          106.02391752423311      108.16056356000320      107.16875905504631
H          104.39416709992864      109.45771202917163      106.64389770535506
H          103.89713533972582      107.95070050822834      107.39429352767903
C          106.28241977274146      108.90787271559904      108.47246418842327
H          106.19664857842548      107.09461596347936      107.32831891472742
H          106.73589886491659      108.50352467241164      106.41630302860371
N          107.58596081271718      108.59430398895407      109.01185035125765
H          106.21713446406322      109.98939297815404      108.30340197923064
H          105.53677573634735      108.63981228972399      109.22418247675861