3795
 energy: -5102.958843378624 gnorm: 0.000940720884 xtb: 6.6.1 (8d0f1dd)
C          112.45185456454936      110.02609666614674      107.68745698232310
C          111.29355885359819      110.98722535535634      107.81976359872695
C          113.80136208942297      110.70758775660731      107.48696777812067
C          114.28647706338748      111.39443039601613      108.76230986208311
H          114.54317535416101      109.96945063230719      107.17799664143470
H          113.71096114027715      111.44534935806757      106.68783635347820
C          114.79685946873322      110.39597416160808      109.80006275072968
H          115.09654663290945      112.07961878359220      108.51172528517058
H          113.46957478261521      111.96682232375161      109.20320795663812
C          115.43677430103764      111.09035429746474      110.97829102872910
H          113.97567175458101      109.78504720718426      110.17204041655447
H          115.54995325599720      109.74679148044852      109.34201990228365
N          115.42564737043051      110.38325067148457      112.11706672676770
O          110.20213217238773      110.36969483402326      108.21203087856816
O          111.33448001105096      112.17014796213118      107.55463595522936
H          109.39906368999362      110.97089952501918      108.29334773063070
H          112.21257914273571      109.36766383423999      106.84734501826991
H          112.45558531821159      109.41006765487521      108.58560596863678
C          115.95465391698808      110.88160600745731      113.36653616222283
H          114.94239987050682      109.49279466792538      112.16336691627514
C          114.95544312419176      110.66275031778268      114.49920809543282
H          116.89769962579589      110.37108640795124      113.60059072395404
H          116.17377602907533      111.94356095898935      113.23174541715890
C          115.40309234185335      111.31489626276890      115.80741808050385
H          113.98250624459362      111.04966043247083      114.19409262415815
H          114.84962243736348      109.58863283989729      114.64813107193595
C          114.93245434663898      110.54361469638732      117.03941149758796
H          116.49412031660333      111.34805405144927      115.83110384807837
H          115.05995817831975      112.34746602143039      115.85425505672121
C          113.41810260953400      110.36976534949682      117.15830350943251
H          115.37193843073997      109.54423840460775      117.01893382515225
H          115.30564576425428      111.05161284900151      117.92814545381735
C          112.63413378706048      111.67085949819409      117.10780157103142
H          113.04733597846545      109.72435294474481      116.36122473991168
H          113.20805740055611      109.86688459209043      118.10353362558864
N          113.09957684014302      112.63436825116204      118.08361222743224
H          112.70878364633548      112.12966538304863      116.11653369786134
H          111.57076584438832      111.46292479281442      117.28426229551376
C          112.69482301539146      113.90052171785092      118.01444602009576
H          113.76790757726307      112.33180156346842      118.78606746538813
O          115.96602276642759      112.19567941318581      110.90164483057923
C          113.27154979694579      114.84170173734982      119.04657763435863
C          114.76271427733739      115.09854879016210      118.78549258003115
H          112.70093750507188      115.77102250015420      119.02060680863704
H          113.16235898046314      114.39531635628528      120.03659845487601
C          115.03228699619441      115.60707842377840      117.37010797817922
H          115.13186812985690      115.83062438542163      119.50349522472942
H          115.30695731276374      114.16408857806245      118.93812132249322
C          114.52066570203853      117.02572403894069      117.11655837393550
H          116.10176481420564      115.57499543272084      117.16153410668240
H          114.54556508505893      114.93690329487953      116.65911175158340
C          115.33233495883663      118.11497468873888      117.79121576921327
H          114.50803791535067      117.22541891086897      116.04479746444231
H          113.49384145664519      117.12041245757079      117.47861547543043
N          115.26069086191039      119.29271354934815      117.15931469290939
C          115.87233130766433      120.50834004101657      117.64420720704203
H          114.70952561521824      119.36456608479548      116.31009130831654
O          111.90497742552647      114.26176681562963      117.13648315203930
C          114.88364737402092      121.67516372891883      117.61144206699015
H          116.21802594297097      120.31555684629919      118.66346443260404
H          116.75128160703730      120.75428212722012      117.03560868440539
C          114.69186975963459      122.22565692071090      116.19708209571866
H          113.92661742215481      121.33410209291829      118.01100709207462
H          115.25518207904105      122.46869320048762      118.26415418784407
C          113.66031160881190      123.35567872989219      116.15339962171905
H          115.65022391526027      122.60762627344063      115.83908327023278
H          114.38467353253344      121.42223834779465      115.52853485958424
C          113.81432625666812      124.25461668199789      114.92798572101653
H          112.65085496702363      122.94159584850188      116.16591724988589
H          113.77572793578655      123.97357837328650      117.04847680327084
C          113.43960748295530      123.57370919585321      113.61637213782241
N          113.75296794374016      124.45787689735904      112.50448934222894
H          114.00434856814684      122.64467871817831      113.48825946368167
H          112.37445790730685      123.32068447466796      113.60511609404648
C          113.64725775536570      124.07839296765877      111.22538846209510
H          114.15568795504014      125.35595598745745      112.74655291007366
O          115.96926446479119      117.95857202132247      118.82959398876635
C          114.30872577920830      125.02967755261875      110.23316110030706
C          114.00956288126127      124.67306002385554      108.77652402327490
H          114.01559352162842      126.05654368524972      110.45027179359090
H          115.38573290391568      124.94191466106778      110.40921824077299
C          115.02446773770197      125.34055420493955      107.85416513400521
H          114.05786039943658      123.58809346215911      108.66482928965267
H          112.99609025162222      124.98562414298961      108.51693831276114
C          114.90250425077777      124.94856568236418      106.37630323804056
H          114.94226875848253      126.42050636656727      107.96325124184878
H          116.02653611553407      125.05276334364640      108.17683886591935
C          113.55258237279534      125.22834862688160      105.77491103917428
H          115.66650802531846      125.48777029426704      105.81105556547335
H          115.08328074694856      123.87769502980301      106.27064860755951
N          113.15788931441199      126.48684057968789      105.60865835918972
C          113.80566781887786      127.70930292376026      106.02126181595722
H          112.21520697830378      126.59807444620563      105.25812778076617
H          113.19132398271509      125.14316330929114      115.05471664203489
H          114.85106701285706      124.58772553418817      114.86096384891707
O          113.11174043037046      123.03936398761785      110.87341210595595
O          112.81618468831033      124.30589794408336      105.39802045883741
C          113.37703446618806      128.89006345656469      105.14950422471972
H          113.55114137724249      127.91883275734070      107.06556514396735
H          114.88919863571230      127.58901346023622      105.94844701158055
C          111.85949398840296      129.09087051444081      105.03919889576368
H          113.83404858201570      129.78548645474211      105.57205478564728
H          113.78165988348451      128.76107247333934      104.14348628095823
C          111.08745848569485      128.94334956306244      106.35216643553500
H          111.68392740372660      130.08923228740571      104.63282292691495
H          111.44832810192663      128.38264279403549      104.31470555494137
C          111.52998715022702      129.92501737438272      107.43480221220895
H          110.02860783011963      129.11394607485170      106.14080950955052
H          111.17950554837380      127.92478859679819      106.72992435368003
C          110.72142672234497      129.74071297454751      108.72015496306396
H          112.58600142329213      129.79209907086988      107.66959294231981
H          111.39274263211450      130.94859304031235      107.08108615621393
N          110.91814128867688      128.44986086835473      109.33858332147075
H          111.03098428495792      130.48293863683691      109.46021966706473
H          109.65505739009718      129.87460507855596      108.50593111764019
C          111.50534209428983      128.30590700123656      110.54409747386204
H          110.57582866432976      127.63013924727302      108.85847059833492
C          111.37080871359673      126.91227628177579      111.12572254485335
C          109.94301585128424      126.75165093972197      111.66349244789379
H          111.56224094216404      126.15666698506189      110.36332237783471
H          112.09413591027473      126.80064031494209      111.93296977251465
C          109.76533467900144      125.49660464279631      112.51747369881670
H          109.68312796870597      127.62877560978404      112.26077844734500
H          109.25274270543798      126.71362485624186      110.81750474133857
C          110.30001229187053      125.67610232659419      113.93516760256553
H          108.70197810715830      125.25083068980402      112.57256298651799
H          110.28078303026182      124.65407556193728      112.05560232856662
C          110.00840690300736      124.46330389346373      114.79223370763482
H          111.38306345337251      125.80638312943130      113.90305085418214
H          109.86631651112749      126.55911828559177      114.40252786842706
N          109.68309516732299      124.74268645928088      116.05645943699894
C          109.43866492337918      123.70607194789693      117.03732356326286
H          109.77529530563582      125.69824985159670      116.39064717811416
O          112.03673924782372      129.22727545736004      111.13777288295400
C          109.61797777629339      124.24555807472683      118.45170140811010
H          108.42183414148667      123.31322504661226      116.90987948833357
H          110.13202808033171      122.88252143308826      116.83759386569996
C          109.82166403008331      123.12638705091008      119.47447336133591
H          110.48189855008191      124.90922096077365      118.45945790270881
H          108.74581837937959      124.84336265862295      118.71987506122160
C          111.25184999577921      122.57742633021716      119.46670681965441
H          109.57989781118997      123.49855004093536      120.47033476796508
H          109.12381584656602      122.31712723981532      119.24921851781927
C          112.25845456979768      123.45641493949053      120.20906117529967
H          111.25866635618036      121.58297143769057      119.91481003557796
H          111.58397868132758      122.46863705391605      118.43406873281620
C          112.09659578418780      123.39391570263705      121.72542891744401
H          113.27093617634367      123.12790674995114      119.96622658699852
H          112.16638067386658      124.49324636870060      119.88691041006898
N          113.13966987139291      124.14588567512497      122.38068888172555
H          111.13976755351715      123.80859980581599      122.05135494596288
H          112.15224576282246      122.34759608760098      122.05059757886715
O          110.05105448878275      123.31244596767003      114.36182199468799
C          112.91466318620608      125.01641853751444      123.36742962428492
H          114.08273235347409      124.00565106341794      122.01953022212102
C          114.16987961197842      125.65861593583475      123.92617411566852
C          114.70066488827921      124.78538985819104      125.06804031937816
H          114.92353469162400      125.74185094603305      123.14266716172946
H          113.93080716737551      126.65473997324415      124.29977074724118
C          116.10893432888918      125.18778069602439      125.49629848342953
H          114.01835635120450      124.84905651688801      125.91732525849626
H          114.71668876346182      123.74297936819801      124.73913334707429
C          116.61461784214964      124.29697436252881      126.63892107553083
H          116.78210529494652      125.08995967775817      124.64182281486262
H          116.12180256652137      126.23237527045966      125.81408713594651
C          116.05909046590159      124.75630337972697      127.96745803472623
H          116.32392167255159      123.26579675463519      126.44687762819747
H          117.70227025366600      124.35194715707476      126.69501923259043
N          115.04312582518246      124.05078459159355      128.45984321226257
O          111.79699003181135      125.24350539356951      123.82148134480983
C          114.41291390519801      124.40432191524607      129.71237160070234
H          114.65868984966131      123.27044048635869      127.93197023781694
C          113.04837365412440      125.07768884803028      129.52450048184326
H          114.30328123889456      123.50132191972008      130.31925782188537
H          115.09366810429903      125.09479955985624      130.21643074066236
C          111.90605954640718      124.07749427013125      129.35152645008759
H          112.84437432158231      125.69920395261643      130.39861903726666
H          113.10054076328016      125.73771785221689      128.65673109264381
C          110.57890344203642      124.79863026388367      129.10005777894835
H          112.14026721148795      123.40268689541269      128.52694884720242
H          111.82330987031351      123.48087430316617      130.26347633402855
C          109.33956230198157      123.94387268870234      129.38713232504213
H          110.52799139845192      125.67451360682709      129.75121024208380
H          110.55560799996827      125.17087377204513      128.07352669242249
C          109.31419297367215      122.60779168399873      128.65279741815309
H          109.29362986135870      123.73292087256134      130.45702625641420
H          108.44764914028630      124.51554036211004      129.12336945076098
N          109.35107888190809      122.78372959052966      127.21824604751455
H          110.16640816462906      121.99397424317107      128.97118314461784
H          108.39751925470556      122.06013904782095      128.88780130874278
C          108.84518422636506      121.88656903777765      126.35659334248479
H          109.96672541663827      123.49909367119041      126.86525263133788
O          116.52633196540404      125.73525264833143      128.55861185100602
C          109.20593343879850      122.13841984299798      124.91060622961491
C          110.46410409466802      121.32595793522671      124.57382576728847
H          108.37953380208560      121.81234234734738      124.27766054115757
H          109.39373047548037      123.19748025986121      124.73363893687410
C          111.68493685735663      121.75312015203346      125.38913026707482
H          110.25895617972702      120.26620826784591      124.74718035938376
H          110.67879676009449      121.45390573483671      123.51346163949266
C          112.92322493043375      120.95082342248553      125.00281320368404
H          111.87693958877335      122.81673471019184      125.23313226230790
H          111.50069646367864      121.59566414553605      126.45355604774588
C          114.06214838194551      121.08849795225134      125.99958408905098
H          112.67643658916558      119.89040470284269      124.92762047528440
H          113.29425490011656      121.25725657243878      124.02340596854972
N          115.10357180595977      120.29781562301145      125.72419288220676
C          116.31885639452622      120.24385476393419      126.51530307867711
H          115.02833150216270      119.67742909128816      124.92123610523700
O          108.18780016780656      120.92218118746450      126.71980638295381
C          117.48619503929787      119.75666702058123      125.66193724504407
H          116.51207962552763      121.24660073689134      126.90477157924857
H          116.18332618683171      119.57698343560516      127.37439264100945
C          118.84812730766302      119.93666966140732      126.33715728558532
H          117.32976287608679      118.69973899881511      125.43744934468819
H          117.48307267501342      120.30700039184468      124.71872925966288
C          119.34063806840875      121.38458940318499      126.30717420300327
H          118.78504749700137      119.58502175368254      127.36766911803068
H          119.58081218011456      119.31269691457929      125.81993374264333
C          120.83723483442827      121.51519038808146      126.59556990971858
H          119.15554271612184      121.80280143751691      125.31481221138250
H          118.78527526802796      121.98789183781365      127.02568595685233
C          121.23586545514038      121.10609125298586      128.00907984080544
H          121.40280826266928      120.88927032963589      125.90396330260241
H          121.12914611863260      122.55514694592915      126.43299756556711
N          120.52903947152291      121.89146136361630      128.99702458636011
H          121.01971070592683      120.04978703043534      128.17986575737277
H          122.31802863135064      121.24167478962906      128.13104057000626
C          120.18006726902205      121.42297243613062      130.19289883659982
H          120.23181660289154      122.82279884992796      128.72275967482005
O          114.02601993389109      121.85428228884847      126.95859997561328
C          119.35353527166869      122.37564803213772      131.03618800017503
C          117.94063007499047      122.55518282050866      130.46570788995876
H          119.30658471121147      121.97341746765933      132.04897984727120
H          119.84773268064947      123.34770520828184      131.07118941370416
C          117.26406940047761      121.23594922561334      130.09524443469851
H          117.33439256873751      123.08173526105223      131.20645581265578
H          117.99228425877844      123.18456034536656      129.57704523617838
C          117.27386274915229      120.22361808488047      131.24640146666195
H          116.23312916958011      121.44186881837464      129.79573794689333
H          117.77022355373396      120.78653191904600      129.24074223546154
C          116.38563239727755      119.04268619266021      130.91210275075991
H          118.29273476924024      119.85747559172262      131.38230037386464
H          116.94477285296610      120.69978185278067      132.17135598630159
N          115.38293730768295      118.83916170067764      131.78198054635391
O          120.49060125535469      120.30573605739852      130.59897441519220
C          114.38575729933918      117.79627899413978      131.66152411226207
H          115.29022780507840      119.45217145666609      132.57600189638785
C          113.85702654602534      117.38836712204534      133.03466335274575
H          113.55824758147773      118.15925285013550      131.03723035272225
H          114.85997033912032      116.95537723746695      131.15284351900166
C          112.49373552569675      116.70157434550190      132.95134095973481
H          114.58275500490329      116.74230871045641      133.52638890125573
H          113.73879781527697      118.29031383948202      133.64233656086017
C          112.52414395384687      115.31772295887801      132.30388315693037
H          112.08663135844010      116.60633366971780      133.95990494710040
H          111.81359164903675      117.34237496777168      132.38325157642808
C          113.14044967115301      114.25516739053651      133.21193720333073
H          111.49857323804079      115.02189147635437      132.06625588235269
H          113.07920541378891      115.36434898472065      131.36656914899262
C          113.06247109836853      112.88387164177087      132.55097214364238
H          114.17891609732783      114.50510623175514      133.43252060664389
H          112.58774631126489      114.23141981614509      134.15493859299610
N          113.50128404370398      111.82819201224852      133.43872931852729
H          112.03216096708391      112.68394309563170      132.22737462623650
H          113.71079729859771      112.84420715452553      131.67574152995033
C          114.20032646484026      110.76068161385673      133.02441710837971
H          113.20727041264682      111.89797707180107      134.39986998551242
O          116.55309334108618      118.34938277292071      129.91994035379682
C          114.50984515503977      109.75053013274132      134.11893520122936
C          115.97145185687010      109.28708252268331      134.10362616556733
H          114.27456653098282      110.18500589286748      135.09141023908890
H          113.85722039805849      108.88720797512168      133.96502890276264
C          116.24182848211342      108.29855331692384      132.97292593986828
H          116.62285262942970      110.15666771580651      133.99791857773241
H          116.20017863580041      108.81432678497464      135.06202883643419
C          117.71409500883506      107.88255188055122      132.90661578381827
H          115.62226265553315      107.41123408942754      133.12489816746029
H          115.95575152435514      108.75574756409539      132.02601212271142
C          117.93859078691688      106.98728062767989      131.70333929321359
H          118.33218321767662      108.77280900998119      132.79181492988818
H          118.00468947904986      107.36968914275795      133.82554516429053
N          117.71581471539962      105.68442003436654      131.92147853052703
C          117.83007689426488      104.66013585151799      130.90282918296464
H          117.43981731829392      105.37566193395283      132.84040868681507
O          114.55171694485023      110.62130457710676      131.86188026319152
C          116.76414157832322      103.58472124662484      131.09215709596620
H          117.72456188383092      105.15844769224638      129.93854454791349
H          118.82938475645331      104.20791395641960      130.95170230033364
C          116.96926038585018      102.39283566037338      130.15506146576536
H          116.81481225757582      103.23555209235305      132.12831480959869
H          115.77684034691310      104.01834613844611      130.91320219340909
C          116.61723318813911      102.72329022645840      128.70671728368791
H          118.00450987002721      102.05319902436453      130.22019951678664
H          116.33271457139156      101.56887147719446      130.48489698217793
C          116.62138237941579      101.49870981635927      127.79369786531329
H          115.62377251674630      103.17651417498755      128.68947112151770
H          117.32942045927152      103.45313977508948      128.32021639407719
C          117.98659880954180      100.81739774775393      127.70704255994319
H          115.88911568189286      100.77102307518321      128.14842336991319
H          116.32684578173038      101.80113185917736      126.78728303649409
N          118.04964990817328       99.93980781222707      126.56130115932841
H          118.78453680465633      101.55568292754201      127.59067220282932
H          118.18246831953832      100.23663631084580      128.61686979472054
C          119.05519935058457       99.97662650302877      125.67541232964705
H          117.22037342938172       99.39567382080405      126.35015568215182
O          118.28067040816951      107.42499105154903      130.61404125440345
C          118.91716390533843       98.98431833178032      124.53391630618567
C          119.12050029823219       99.67481826897377      123.18546716433193
H          119.68692483050761       98.21967226118919      124.66610486973568
H          117.93850235345143       98.50838004864065      124.57734116511854
C          119.11738646941072       98.66012758488372      122.04658253703789
H          118.31855828956446      100.40125335367595      123.03822286837428
H          120.06738800231278      100.21729486262225      123.20875711031795
C          119.22139808118628       99.31149220534195      120.66297210210639
H          119.94815449091550       97.96298905988264      122.17735472932881
H          118.19091824575030       98.08317462991431      122.09433922632711
C          119.04934790387915       98.23270105388090      119.61719651306178
H          118.42554411148105      100.04571725644617      120.53743825502309
H          120.18181763876642       99.81074522438421      120.54364942972639
N          120.11849153637495       97.45628798235114      119.42594265294696
O          120.01654914271218      100.72441963057419      125.78225937798308
C          120.11002585547791       96.32408932163736      118.52212198139183
H          121.02092342087030       97.72166526476487      119.80422342003997
C          121.36535776851753       95.48833884656388      118.73458235831633
H          119.21160263959351       95.72857022411186      118.71774667219232
H          120.05451647866094       96.68128440621592      117.48658119005010
C          121.34291421064732       94.15738343198765      117.98275629292597
H          122.23496705230308       96.07738388625637      118.44292964123817
H          121.46089503689423       95.27696550791649      119.80173188189353
C          121.15779048122113       94.27330699728672      116.46901389910367
H          122.28209732326214       93.63654392693265      118.18318777577663
H          120.53339287111466       93.53997603784113      118.37988809871914
C          122.21020519555474       95.15166533381947      115.79386758440901
H          121.21312352755260       93.26723761825099      116.04393367313065
H          120.15980164065783       94.66359981564997      116.25888390537213
C          122.20486169715814       94.99702148059684      114.26371760686301
H          122.03044288436756       96.19915380169969      116.04662700511589
H          123.20135825882019       94.88148777184402      116.16340682476032
N          120.95268164786931       95.31866457051511      113.60579506825636
H          122.97176037070378       95.65137044374133      113.83771382069557
H          122.46036110837557       93.96753574089909      113.99978386502782
H          120.62696886745960       96.23182742280787      113.90271078797825
H          120.23897715377008       94.64255382071590      113.85209648906527
O          117.98074523392015       98.04482167551210      119.03820486902474
C          104.56502273564543      111.37844023999163       97.78243228344478
C          105.46815466103604      110.28456771425373       97.25063403767612
C          104.68977851857514      111.40412619416713       99.31090486910489
C          103.99160290472891      112.60327737066393       99.94350837999229
H          104.27209768410825      110.48357029676322       99.72113669779296
H          105.74949079571655      111.43972597754930       99.57439824867122
C          104.31801454599494      112.70002999999765      101.43442774980717
H          104.31995247207581      113.51847261939335       99.44359342701451
H          102.91074024237253      112.51743873078831       99.82403521579772
C          103.55890706950358      111.66882656474381      102.26270904218470
H          105.39073701216084      112.59565363715487      101.59581776226372
H          104.00076108555076      113.67749057184690      101.80203137830426
N          104.34199242779107      110.89204144875892      103.02931662031129
O          106.68850343924881      110.74063697117703       96.99774431668472
O          105.14210747651966      109.13299200620662       97.12312851534479
H          107.31975892858421      110.01597604135722       96.74373186115417
H          103.53486063855826      111.17479305640975       97.49344922139016
H          104.88619448148863      112.33436797143395       97.36751043995945
C          103.81040882250119      109.94038426959943      103.98020541221798
H          105.35020406647310      110.93908722874394      102.94430056869905
C          104.76050260657198      108.76213896479365      104.17345795269496
H          103.64494442190899      110.44746557588296      104.93996779752887
H          102.83659974373039      109.60455191366378      103.61287544094665
C          104.31131932708156      107.84928765667411      105.31719359873374
H          104.80263290937917      108.19015059512631      103.24465636440728
H          105.76299459433163      109.14532316415652      104.37343533222148
C          104.60278229503298      108.42273377945176      106.70759603490623
H          103.23834707989813      107.67625436750112      105.22107701838773
H          104.80952180169953      106.88183112165059      105.22452644869715
C          106.03462257263561      108.16154583350064      107.17516255013452
H          104.42306283608812      109.49808741086126      106.70065060510439
H          103.90758564587092      107.98416006105214      107.42474173119132
C          106.33220003080336      108.90220542196171      108.47441147932095
H          106.18402990022636      107.09092054209927      107.33066036280923
H          106.74324214538377      108.48791968237282      106.41194387515733
N          107.63599621049181      108.55622408342269      108.99460065959870
H          106.29327781452596      109.98534722079494      108.30656428447755
H          105.59073924729009      108.65438701200981      109.23824342422130