3864
 energy: -5104.232347722289 gnorm: 0.000976521748 xtb: 6.6.1 (8d0f1dd)
C           46.80679780654651       27.11383586616289       50.91647347585609
C           47.97727730348595       27.51407742038368       50.28121208364119
C           49.19257872576250       27.10205930592164       50.81528898724453
C           49.24178166720653       26.30728733822260       51.94739181290322
C           48.06943736817070       25.91734551874355       52.57218323357661
C           46.85237007177476       26.32663107641401       52.05382272951493
C           47.94530038118885       28.34334982535685       49.01991174813626
C           47.55985019269118       27.44516662601810       47.84098018892068
C           46.98287460933085       29.52957572020746       49.16219168820455
C           47.20065028583671       30.65756930758151       48.13717993172523
C           45.97100279444491       31.53442755669383       48.14628417133917
C           45.01476628631756       31.40111184004298       47.14645816430984
C           43.86479995743839       32.17079071574231       47.15333300830172
C           43.64996560694523       33.09370523219842       48.16258369924800
C           44.58865510370676       33.22934336764495       49.17035891460934
C           45.73377458952101       32.45326682529851       49.16086618160775
C           48.49009878531178       31.43638521715044       48.42987465199243
C           48.64229629767638       32.69515578598879       47.56446890430485
C           48.62644419029255       32.33497282760855       46.10132165251759
C           49.65362618108156       31.59129693006518       45.53043270636299
C           49.62343800598467       31.24510378113153       44.19200393826594
C           48.55252534694528       31.62400054514864       43.40039000190877
C           47.51984092866950       32.35709048185547       43.95856236120154
C           47.56168671870872       32.71693872549998       45.29440262154019
C           49.91673765673435       33.45954130283490       47.94561072011555
C           49.89211285820476       34.90026915950039       47.42317026631724
C           48.82498608212921       35.70719166384618       48.11590269399767
C           48.95227199024352       36.01947120545451       49.46449788338856
C           48.04016433107221       36.84572344331455       50.09209966846082
C           46.97549683215891       37.36900038001563       49.37821094362718
C           46.81461764201452       37.03190448117127       48.04659478074546
C           47.73327490275548       36.20638772805377       47.42103309969215
C           51.25507128683647       35.58766939489419       47.63153516235192
C           52.17986991480389       35.55622931357151       46.40566714937015
C           53.56246600280433       35.96503729618014       46.84996529978020
C           54.60649861542661       35.04890185167048       46.82976051265828
C           55.87145450422647       35.39827947760143       47.27017426320624
C           56.11231722055809       36.67482586038343       47.74604994317651
C           55.08090369639680       37.59838848411611       47.76753400970973
C           53.81803694435238       37.24734510577134       47.32578860693702
C           51.64437280981377       36.47432234715760       45.29950906017169
C           52.61290361510674       36.62347419481386       44.12106098787297
C           52.90094368892073       35.29492085685365       43.47045333320285
C           54.19778447364988       34.80029202287979       43.41164436510589
C           54.47322790683633       33.59264314016931       42.79426822059803
C           53.45049596105629       32.85622297651862       42.22135818265651
C           52.15220117149414       33.33504605069806       42.27686218276219
C           51.88268276438842       34.54087579376922       42.89679512536472
C           52.06023160600717       37.61233263697488       43.08530404490953
C           53.15284442063660       38.10969846095876       42.12131863348829
C           53.96658401746203       39.17241416704686       42.81422686005145
C           53.52892042727777       40.49078445541335       42.85899233840936
C           54.25092316218804       41.45574897450108       43.53455553400651
C           55.41375085529134       41.11284042490446       44.20119837318056
C           55.86293843710868       39.80478773127695       44.16613384140405
C           55.15032761850394       38.84780313727332       43.46500034124797
C           52.53592070524058       38.62622419794117       40.81527783355855
C           52.24903839831401       37.49991529200418       39.81378124541923
C           53.53960807973773       36.98207064783637       39.23338197749980
C           54.01227850236454       35.72357503079758       39.58300197022043
C           55.20102707499274       35.24331628171462       39.06165150596099
C           55.93351640200811       36.01375250104711       38.17499890709453
C           55.47085758288431       37.26892743649103       37.81659111075657
C           54.28708549701508       37.74816068996842       38.34601852456002
C           51.29262323271450       37.98524470948156       38.70917211897842
C           49.82215843408708       37.71800992410264       39.05527817441888
C           49.58718430979153       36.23299126101902       39.17504687063576
C           49.22669334679544       35.67306615478882       40.39327550330664
C           49.03827579221043       34.30838120190790       40.52368166612335
C           49.20525765542556       33.47949713154555       39.42936164601213
C           49.55529394611209       34.02567732159967       38.20563342981357
C           49.74506537524298       35.38939901638387       38.08101452678473
C           48.88648197958293       38.33146232004454       37.99796892097753
C           48.57442928206162       39.82630689987703       38.20918426399339
C           48.63820403602062       40.61741588781392       36.92444850431311
C           48.07690383292528       40.13451835431854       35.74802714296756
C           48.06680159823665       40.90510853569181       34.59773774320159
C           48.60557885021885       42.17986121588068       34.60935900359323
C           49.16695816797864       42.67291757457075       35.77487893595518
C           49.18609757063162       41.89488942164525       36.91821732234500
C           47.16666590250914       40.04757061407111       38.79849165803466
C           47.04983496664727       39.73704446845610       40.30063810996569
C           47.69838389450913       40.83420922569263       41.10573685280495
C           48.89343294381411       40.60917249538410       41.77798850841613
C           49.50518185414602       41.61591909873940       42.50463487293135
C           48.92240271390911       42.86788073269144       42.58207576258383
C           47.73042034261297       43.10501840658178       41.91835335954113
C           47.12912218243290       42.10082706296397       41.18140148097167
C           45.56984367484382       39.54839471507174       40.66227446663929
C           45.31079478807831       39.30576442886344       42.15783121834694
C           46.13539258941140       38.13834171344484       42.63553810843176
C           47.21822961266180       38.32664104188334       43.48341953524353
C           47.98501393571014       37.25591909444028       43.90904878481466
C           47.67075170750223       35.97136704558432       43.50035570041159
C           46.59406939143935       35.77142849871317       42.65213366698157
C           45.83892373193379       36.84456943940474       42.22017120867102
C           43.80585505218889       39.05924412352006       42.40715441638709
C           43.10121149729764       40.17426449963824       43.19314186725509
C           43.38538163506517       41.54693413298600       42.63012141466287
C           43.89724641490830       42.54885453715333       43.44530234489122
C           44.14392806315784       43.81560730962838       42.94473560508980
C           43.88573478674002       44.10303903621676       41.61627222429495
C           43.36705413965785       43.11550035871237       40.79448082033620
C           43.11423977258409       41.85172691129698       41.30020056114255
C           41.57641325829377       39.96179250739377       43.19482924608281
C           41.08127752138035       38.67236736602843       43.87061795826098
C           39.67165833298871       38.37296888811567       43.42630758720086
C           38.63959118947849       39.28153810039977       43.63060437650665
C           37.35552179543784       39.00749834695149       43.19648928842921
C           37.07582242461336       37.80740060400794       42.56561893444051
C           38.09015040167535       36.88567669913762       42.37133852897057
C           39.37681610219754       37.17292379901276       42.79265793010092
C           41.14724777758620       38.74438673609188       45.40090015346188
C           40.90679076862195       37.37153053718461       46.04407919583362
C           41.94299015031785       36.37786351432694       45.57984224475747
C           43.30015517375144       36.61050688292514       45.77499591933667
C           44.24752182786331       35.70336849018572       45.33929768842437
C           43.85331129883713       34.53957152585734       44.70270008279598
C           42.50624498922576       34.28851052441527       44.51232635042323
C           41.56105671062011       35.19999516836790       44.95073547317174
C           40.90353989392843       37.46104982235212       47.58392949232845
C           39.49648807257139       37.43527523229951       48.19704024085629
C           38.63595948324040       38.56510770950970       47.69537422492628
C           37.45734481122980       38.30385944078984       47.00928637105621
C           36.63776176677032       39.33506504925987       46.58507904054727
C           36.99317179205524       40.65013836729810       46.82740896672757
C           38.17977239519963       40.92574076597413       47.48618922135163
C           38.98659781743716       39.89139194146681       47.92219994445567
C           39.60214429048995       37.47765700178767       49.72800816037465
C           38.24762726953522       37.28312751484081       50.42501268589088
C           37.70442890506880       35.90202992251735       50.16614549616644
C           36.50294358478084       35.73500221494555       49.48859156090770
C           35.99236692411700       34.47158955656929       49.24734660375121
C           36.67776445800951       33.34954844996138       49.68168026724633
C           37.87957066102687       33.50215708642800       50.35191456620947
C           38.38646235359245       34.76697715843250       50.58855494588487
C           38.40144641173219       37.56205702090698       51.92744013090043
C           37.12035763021436       37.33661199824970       52.74507600067247
C           35.94594559141364       38.03899581335599       52.11304278653019
C           35.96406990957670       39.41337694243919       51.90731532813530
C           34.90074959337765       40.06077029592031       51.30774723937472
C           33.78696581286032       39.33988877875804       50.91225474249702
C           33.74459298694085       37.97399243699041       51.13047972945753
C           34.81614235755344       37.33094294411904       51.72660016072124
C           37.29634687421711       37.84449661609943       54.18713296889516
C           38.23510808562231       36.97293149788342       55.04314893934195
H           48.95563418869116       28.72543495749641       48.84272497332555
H           45.95738001868488       29.16621176276623       49.06209533470525
H           47.08757489120090       29.94597934744542       50.16578078227807
H           47.28581894931384       30.21647197620711       47.13825689921051
H           48.50920017352558       31.72777720248658       49.48147454552568
H           49.35000455027344       30.78595091501484       48.26187791801655
H           47.78530098910993       33.34797771174096       47.76457865006022
H           50.01558886011627       33.47344614213537       49.03284256046043
H           50.79575968604203       32.94772039950100       47.55125132238290
H           49.66090021876195       34.86253008946003       46.35416445853639
H           51.76669669988391       35.10681197189179       48.46768727518957
H           52.22895313138083       34.53179148069281       46.01736828642731
H           50.69658061131122       36.07596093298197       44.93625784928918
H           51.45348266992646       37.46522874731794       45.71729721336069
H           53.54990395639118       37.03136938699072       44.51454053061592
H           51.26436903954574       37.12979728153648       42.51553965505877
H           51.63013545799271       38.47309151134170       43.60360992706693
H           53.81254349911703       37.26886664081107       41.87755351115889
H           51.60715069491233       39.15564598360294       41.03366276145386
H           53.22709784138949       39.33254487704722       40.35112417703477
H           51.77138643397795       36.66869650695531       40.34296193233095
H           49.60627596729175       38.17095731802653       40.02654907586616
H           49.35201166841352       38.19538696160088       37.01994637427870
H           47.95188297775719       37.76542680364323       37.99529253035472
H           49.30401446917151       40.25343255889923       38.90462422087207
H           46.87498008475827       41.08871288380558       38.63509535436692
H           46.45881841370947       39.42633996893874       38.24397910571413
H           47.56359001948199       38.79304852541827       40.50692124618814
H           45.00127990152591       40.42425447742500       40.34760587021106
H           45.19397513761901       38.68913683114256       40.10181608821905
H           45.62496688147646       40.20025045416093       42.70632218473666
H           43.29321862327249       38.91850137353770       41.45313681332193
H           43.69547507556535       38.13131926628527       42.97194221708460
H           43.46894323391342       40.15230404916750       44.22461620235775
H           41.10793802050015       40.82277937164181       43.67713387594276
H           41.24268804928683       39.94088037821446       42.15524630115640
H           41.71276989497943       37.84300835983552       43.53979529147222
H           42.12524906250003       39.11992827413057       45.70351440028219
H           40.38695199852723       39.43652944157648       45.76571524681535
H           39.92399531589750       37.01555103425780       45.71381602237650
H           41.45522738042634       36.61098746160855       47.99115354234186
H           41.42418490686820       38.36454745299542       47.90335496076059
H           39.02019658911839       36.48808456851622       47.91471459531981
H           40.29285209131059       36.69789953486419       50.05246821984871
H           40.02550408468351       38.43575723571846       50.03325295340108
H           37.53970329360022       38.01010411861392       50.01097020135064
H           39.19649943372293       36.93089283666494       52.32507997465736
H           38.71819496359213       38.59933623844326       52.04513350831816
H           45.84582810066085       27.41915394170649       50.52945209206916
H           45.93047342389092       26.03505613008308       52.53656239291607
H           48.10367418588336       25.30231585615783       53.45958269499988
H           50.19795781226458       25.99496025369263       52.34331835809498
H           50.11466995013011       27.40447728409283       50.33736492824214
H           45.17629355377841       30.68789082426894       46.34900712504609
H           43.13366412829092       32.05467383361408       46.36626031938854
H           42.75523885026419       33.69943551825351       48.15656654644358
H           44.43377325384304       33.93887149051601       49.96977806543143
H           46.45594589184479       32.57616138789849       49.95200109042042
H           50.48959170311333       31.27215497940615       46.13641777722577
H           50.43491571095119       30.67260113246029       43.76479735780934
H           48.52106018255179       31.34415367397120       42.35653584420870
H           46.67599861223937       32.64678178645340       43.34777082107556
H           46.75113535444304       33.29220396617159       45.72084364585815
H           49.78961570821146       35.62247481933449       50.01864724972265
H           48.15889269847332       37.09392694263422       51.13645104216461
H           46.27711693466070       38.03443899534616       49.86343981804788
H           45.98007109621663       37.42015062136645       47.48108918845305
H           47.61078661612216       35.96048444648709       46.37471449546070
H           51.09532530086496       36.63345649463027       47.90081407954222
H           54.42738413090954       34.04907358686918       46.45625237743030
H           56.67186389353610       34.67289389446704       47.24485882694847
H           57.09798279769906       36.94582016482762       48.09683841600700
H           55.26555824382477       38.59769626837250       48.13352154373784
H           53.02575638324011       37.98174031565274       47.35110198087334
H           55.00368770735095       35.36543289579004       43.86033845485675
H           55.49013886869289       33.22686297003970       42.75606191207210
H           53.66432281486831       31.91638521394219       41.73191914756195
H           51.34656274261646       32.77077145674448       41.82913604039718
H           50.86272421713552       34.89488773357100       42.92617385354890
H           52.61925454260798       40.77273222820052       42.35169658606420
H           53.90115891214074       42.47804355499402       43.53783145867243
H           55.97208438521232       41.86012041296177       44.74431026781585
H           56.77105691244887       39.52746212479033       44.68372207689080
H           55.52449362237108       37.83366061311718       43.41810399330330
H           53.44431469168828       35.10984497223213       40.26924942585287
H           55.55367514491096       34.26223958926097       39.34770984585217
H           56.85911432969758       35.63724198453638       37.76315947806208
H           56.03137087489336       37.87772687934064       37.12088587927217
H           53.94262799194414       38.72802838498851       38.05269275457126
H           51.43030588999132       39.05514135992862       38.54274739721674
H           51.53173543965319       37.47174796300785       37.77651567781052
H           49.08413571768340       36.31174865452248       41.25429539805722
H           48.76371075505551       33.89214446918302       41.48223271730286
H           49.06287178616614       32.41197057513192       39.52437523060110
H           49.68430858589665       33.38368898093957       37.34547470715400
H           50.02068265043279       35.79876605268400       37.12021435463181
H           47.63174846545821       39.14992213557493       35.72723414749270
H           47.62483600375037       40.51148398528949       33.69227240840045
H           48.58017124828203       42.79238424883829       33.71916196683160
H           49.58708247056889       43.66793114474615       35.78656873306197
H           49.62626403649676       42.28887980783233       37.82310907092452
H           49.34570282618279       39.62650114303810       41.74579252059731
H           50.43614974239464       41.42174116110502       43.01827247897320
H           49.39495876686123       43.64642907163959       43.16298699388273
H           47.25436486756347       44.07407370058554       41.97515021302074
H           46.19941649735559       42.30778095671256       40.67161015565016
H           47.47088866700632       39.32531114018301       43.81008858372238
H           48.83049730564849       37.42826891286349       44.55901242076858
H           48.25737047458895       35.12623569184626       43.83706999078112
H           46.34581393849670       34.77529268214405       42.31545669300355
H           45.00479088032054       36.67216558711433       41.55493329431754
H           44.10194815197629       42.33882373271121       44.48601999906742
H           44.53806031657670       44.58251035621573       43.59581000525620
H           44.08934824802688       45.08997859324536       41.22585193179447
H           43.16311388516346       43.32646526716737       39.75232057643297
H           42.70185416511487       41.09368850209577       40.64964345408088
H           38.83634291376364       40.21503721903926       44.13718873242328
H           36.56994564900352       39.73382864083848       43.34428024340621
H           36.07206838770205       37.59163092461258       42.22696549273621
H           37.87942892096348       35.94367817087323       41.88290406432848
H           40.16764264882294       36.45447529123356       42.62626875048199
H           43.61694072325536       37.51355532159451       46.27398055034190
H           45.29825045830262       35.90346606278469       45.48720427006174
H           44.59186535191706       33.82909056439733       44.36202056456555
H           42.18778359709127       33.38020157496939       44.01801158197642
H           40.50924561509218       34.99530105912255       44.79967166339263
H           37.17098725319754       37.27887661037722       46.81235571233442
H           35.71773461767721       39.10581761903641       46.06499380091149
H           36.34620212062875       41.45587171167070       46.51056151531943
H           38.47618912723088       41.94902049978511       47.66639227234514
H           39.90353051198361       40.12036012353260       48.44502974448095
H           35.95958809088156       36.60632981453044       49.14904974521616
H           35.05473557732425       34.36145098655733       48.71985391651378
H           36.27816479547058       32.36238379900485       49.49672279089312
H           38.42406039751751       32.63316637746166       50.69465135206415
H           39.32653966485395       34.86095385452914       51.10999277944390
H           34.77582313526202       36.26148171416644       51.88476184101778
H           32.87521452628607       37.40428752878410       50.83168023751827
H           32.95460075573094       39.84072847328393       50.43892421567363
H           34.93618064590927       41.12987067755452       51.15560973739294
H           36.82123839247848       39.98926691507561       52.21957999354795
H           47.57512201204821       28.00427890675658       46.90841634910677
H           48.25780315620501       26.61465761290574       47.75349989951278
H           46.56130646757003       27.03800819474582       47.98586320189728
H           36.90228492714031       36.26280146551385       52.76970088849285
H           37.68511044681154       38.86386904046136       54.14957996035469
H           36.31423877368061       37.89651550399702       54.66361798793591
C           37.43855267080111       36.02620034654488       55.95202783629621
C           39.16721877627120       37.82528975795056       55.86657752846646
C           40.54018388311116       37.61293619581424       55.83150562883151
C           41.40125723366688       38.39003949124613       56.58600563664186
C           40.89758129948584       39.39866167198657       57.38728206503226
C           39.53103488342541       39.61879162375355       57.43354841090392
C           38.67179378121246       38.83680636736187       56.68078604963125
H           40.93799688103307       36.82254910522821       55.20982447841456
H           42.46643451571763       38.21543072892390       56.55194472079060
H           41.57442764629250       40.00683445271015       57.96713022751941
H           39.12405092262415       40.40394720717484       58.05468943020364
H           37.60569341712172       39.01942071409879       56.72100878687270
C           38.35882625879550       35.05753433114621       56.70442806755432
H           36.86296038083140       36.60987512574718       56.67488661846715
H           36.72854025285068       35.45517178517191       55.34805060693147
C           37.57501754529029       34.19988712833540       57.65260193364382
C           37.20016307592154       34.69118882133845       58.89764709815221
C           36.45580935986165       33.92099836854009       59.77182381414110
C           36.06983597526507       32.64189370972627       59.40856202790069
C           36.43451715717979       32.14124207895800       58.16991089432072
C           37.18255495991824       32.91494042936250       57.29979613379327
H           37.48978793316260       35.69062938968619       59.18874320784009
H           36.18155134166336       34.32101457242194       60.73754066421547
H           35.48825616139925       32.03658545407163       60.08944691570170
H           36.13769682061328       31.14201322136980       57.88240535685372
H           37.47361834835259       32.51492325507721       56.33853530433080
H           38.84122187322861       36.34849651376570       54.38200583648314
H           38.88746379315148       34.42678902781680       55.98682226044209
H           39.09673941398862       35.64156696422360       57.25824959061205
C           34.24597866473871       51.14115225365033       47.73955129622843
C           34.51815601085907       52.48408888955172       47.50219882803312
C           34.74661907753557       52.88977594512986       46.19319983615204
C           34.69430852986057       51.98568902231910       45.14586262777878
C           34.40577133955226       50.65554855722258       45.39552465426473
C           34.18543266828271       50.23547590936723       46.69674417934375
C           34.58849513779587       53.47725746863370       48.63807830945876
C           33.34241894099156       53.38789453663411       49.52140237541737
C           35.87974025214639       53.21210252486510       49.42825096944713
C           36.07890042426786       54.06703656541682       50.68945451346568
C           37.30591500449286       53.57037297375034       51.41561916349321
C           38.57682322072895       53.71794629349094       50.87306782352979
C           39.69114592367299       53.25031262675781       51.54477989363007
C           39.55370899919646       52.62739528670203       52.77243675357831
C           38.29381442724925       52.46302711273477       53.31758501777849
C           37.18078095096262       52.93320560937665       52.64401740062281
C           36.18157350343917       55.56264744422086       50.36152023475938
C           36.52227649250720       56.40387187533712       51.59930595961772
C           35.56254559213017       56.12115295151867       52.72867850094117
C           34.19554010819512       56.33651379060105       52.59770703140804
C           33.33349860053065       56.07009416304133       53.64682989909272
C           33.82541773760269       55.59479043229562       54.85086252912498
C           35.18563649827266       55.38666235108207       54.99627066357420
C           36.04221254331178       55.64244309330446       53.94081336027531
C           36.51787170731853       57.91170262671370       51.29786872628266
C           37.65181150158183       58.37787263443172       50.37170234491073
C           37.34776514218142       59.75854970301223       49.83984565320085
C           37.18234447017412       59.97160520021526       48.47691448111850
C           36.92764716477394       61.23616260924447       47.97656540479451
C           36.83067427182107       62.31490247107868       48.83718159316486
C           36.98865967905112       62.11699298690315       50.19807136818493
C           37.24444537407041       60.85169925255720       50.69263020912336
C           39.01893321421405       58.38214514098259       51.06787562906874
C           40.13839104923135       58.67247977918566       50.05088960265353
C           40.68427676877387       57.39494702219177       49.46872209595479
C           40.49912390886285       57.09612421650954       48.12579220114589
C           41.02569309022802       55.93967031640300       47.57614709425279
C           41.75530422847826       55.06767834281070       48.36420869398533
C           41.93238860889742       55.34637958680502       49.70823862279948
C           41.39206352104143       56.49395144855173       50.25662648366972
C           41.25894773934446       59.52004203386003       50.66317049304866
C           42.27097640820172       59.98802542998283       49.60802866340802
C           41.58108072317220       60.72407878251516       48.48777010903832
C           41.73219864146029       60.30263382797924       47.17256818461502
C           41.12438398941200       60.98415195811584       46.13307728392399
C           40.34503855436979       62.09767529105941       46.39404383097555
C           40.17976481383646       62.52206190655795       47.70151564601662
C           40.79332494094342       61.84280156417925       48.73752605893156
C           43.32472692625164       60.88386395589013       50.27189747906806
C           44.38012377673552       61.42151300253403       49.29280613648980
C           45.24924209049830       60.31324189593644       48.75755053688539
C           46.02329870719762       59.52431914548790       49.60236731547536
C           46.79688755139804       58.49522618598916       49.09650767131818
C           46.80873068556797       58.23136019788699       47.73669849663780
C           46.04751195057793       59.01391328314892       46.88570495525752
C           45.28083790348648       60.04786650003418       47.39418356550802
C           45.19430374557671       62.51110516262349       50.00452699196435
C           46.26805645241011       63.20889841550766       49.15555241471002
C           47.11990762285905       64.09550646644936       50.03697146003184
C           46.55758991480631       64.95008514589850       50.97929440396425
C           47.35149345609466       65.71868572731142       51.81092941137621