3864
 energy: -5104.219916796230 gnorm: 0.000742727181 xtb: 6.6.1 (8d0f1dd)
C           53.28334941949533       47.31256912181741       29.23431035020643
C           54.27533398435347       48.27256491099961       29.07756751633855
C           54.97047005357697       48.31371826915657       27.87464659458189
C           54.69029097382275       47.41261129672202       26.86357266111242
C           53.70894365802953       46.45119249525750       27.03809266578508
C           53.00417505162923       46.40611744375477       28.22727371712855
C           54.58130981912366       49.24500130110219       30.19238458214395
C           56.05868824681828       49.17842041208748       30.58573662407052
C           54.15979467300944       50.66121404927471       29.76780846118849
C           54.16907429679321       51.69796888006442       30.90393873661150
C           54.04010268391292       53.08747475751268       30.33067293807116
C           55.05620882759615       54.01562667411378       30.51984989998674
C           54.95165042371897       55.29904890896701       30.01302597772206
C           53.82365059161108       55.67498736636304       29.30485077747631
C           52.80474741695718       54.75840433857794       29.10742616426658
C           52.91237460722506       53.47719818155299       29.61658117110816
C           53.05425428611680       51.42968896301391       31.92371801992099
C           52.93343342687650       52.53801040142034       32.97464074554298
C           54.23488010077817       52.83706831740106       33.67852377284658
C           55.09847088766747       51.83317534750056       34.10101991143758
C           56.26941198937735       52.13828299249466       34.77197944811309
C           56.58775460479195       53.45693108468802       35.04952070247544
C           55.72587359434490       54.46662479017036       34.65675010639914
C           54.56407178265080       54.15489423300253       33.97385635537783
C           51.89260088477322       52.18797084594505       34.05146845219676
C           50.43834534345110       52.06746711580396       33.55862134494659
C           49.67700628575571       51.39526900537711       34.67759153703636
C           49.23165744530123       52.08922715485718       35.79524096711229
C           48.65042173556022       51.42011490191823       36.85899007606658
C           48.51604412281083       50.04316845246541       36.83277120424543
C           48.96096072412172       49.34024612532288       35.72677616075470
C           49.52895571552662       50.01235595724823       34.65959140219289
C           49.88019836578739       53.42651161020630       33.11355951420514
C           48.96234063568992       53.32480709315428       31.88789106043653
C           48.71543141858684       54.69440983290290       31.30493159499007
C           48.06652047062453       55.68622202116865       32.03127192313635
C           47.81738629198308       56.92443618992234       31.46966645633375
C           48.21540708616532       57.19899775624796       30.17321234206004
C           48.87469980733671       56.22515312414215       29.44446633535391
C           49.12129426870516       54.98657597580864       30.00897237227291
C           47.63406728941694       52.64080855745900       32.23058485395707
C           46.73281815238348       52.52428278814935       30.99413069815361
C           47.24478874248623       51.48580542933399       30.03084207907033
C           47.61705181735342       51.85028664450597       28.74270512883003
C           48.08196039325435       50.90842013028682       27.84130047155300
C           48.17285683219357       49.57833742080046       28.21400977375411
C           47.79556243403062       49.20139143452998       29.49205021277734
C           47.34075040018331       50.14653947673625       30.39420456148391
C           45.28744167781593       52.22180513091978       31.39801272699421
C           44.31939885836108       52.34403536303491       30.21656803255723
C           44.37667839495183       53.72337927460748       29.60883072982542
C           44.25391260201773       54.87051224964222       30.38474342786173
C           44.33215734229552       56.12595152540390       29.81106405948154
C           44.52687431972010       56.25945094721649       28.44741425715097
C           44.63644033801980       55.12560276189650       27.66099183387752
C           44.56282482706043       53.87082688515476       28.23965363110033
C           42.88913320768023       52.00166808182055       30.66450100057179
C           42.68544712311488       50.48229442566656       30.79426294388503
C           42.32555032580101       49.89262305950798       29.45457614591544
C           41.09721050502903       50.15433194595781       28.85784582547110
C           40.77926043184134       49.61811823036111       27.62354862469997
C           41.68831040806406       48.81065081072880       26.96023238007829
C           42.91545040462804       48.54461518206858       27.54201929324346
C           43.22846601675570       49.08106905037957       28.77911745713806
C           41.64000930007178       50.11911027674180       31.86102445464908
C           42.15574477392290       50.30101627047286       33.29746324621724
C           43.49171648521693       49.63722134602749       33.51861138634343
C           43.71896000277345       48.31843493548973       33.13893629102873
C           44.96057137477325       47.73399961099103       33.31789402793003
C           45.99417571055790       48.45420965459081       33.89302486362497
C           45.77109350078045       49.75540719171602       34.30607782597085
C           44.53018060334912       50.33872502068937       34.11889858440969
C           41.13196069175310       49.75102767393042       34.30183686965073
C           41.40499239925559       50.24846313720256       35.72753687992360
C           40.89561844522925       51.65377435364316       35.93464205960426
C           41.73404047390747       52.64421031112803       36.42936700038962
C           41.25915056590470       53.92120873752997       36.67713495992602
C           39.93779041093652       54.23480695285411       36.41916117887825
C           39.09111829902250       53.25653631877437       35.92553065458524
C           39.56308850843020       51.97695762182829       35.69719041684942
C           40.75537602998464       49.33616039587352       36.77842222187504
C           41.49598419512228       48.00608686800975       36.96719409250710
C           42.85833344219927       48.21904896014961       37.58237712238054
C           42.99581817224354       48.78665940984258       38.84451297898455
C           44.24371016951517       48.93526585765563       39.42373200269970
C           45.37916431181858       48.51389148028678       38.75121822896086
C           45.25738768790904       47.95900923701236       37.48963870596968
C           44.00686196592857       47.81480683620016       36.91326260780404
C           40.65381021702412       47.03660117128177       37.82301024910677
C           39.87849711371777       46.01002507151160       36.98433036163678
C           39.00740568412257       46.67950610947241       35.95174204736755
C           39.26902993950587       46.50608790455969       34.59837034901692
C           38.49333804926171       47.13051637633742       33.63649774074216
C           37.43352921635964       47.93516084106958       34.01569346051140
C           37.15367694258948       48.10560537191331       35.36161055823371
C           37.93474348311437       47.48530222356721       36.31981685727389
C           39.02351786289463       45.10124655074286       37.88020379843868
C           39.81522143281236       44.06162050507349       38.69036901245875
C           38.89044632036997       43.44768245396833       39.71523805865571
C           39.19099978713363       43.52655030555616       41.06912453927323
C           38.34091443940171       42.99192167646024       42.02218053663881
C           37.16487393164252       42.37536808183425       41.63364688084064
C           36.85378685470661       42.28902998244600       40.28675555218093
C           37.71387576517400       42.80985088829892       39.33676952784138
C           40.44450854712974       42.96296921055308       37.80794504629353
C           41.91051514464961       43.21797831981498       37.38673429752787
C           42.09629011663016       43.00705487881449       35.90526126208651
C           42.61121290006369       44.01921276612614       35.10445073453746
C           42.79388332858218       43.82732896504046       33.74540849498185
C           42.47665114930331       42.61063102340103       33.16718692663490
C           41.97090774193297       41.59092180016405       33.95711952052036
C           41.78059668994110       41.78785790662923       35.31309638551264
C           42.89579558521945       42.30955170759652       38.14315989576520
C           43.17351866621776       42.79702711505772       39.57349733569912
C           43.52359014863943       41.64977452827613       40.48025826762449
C           42.72705682664083       41.36402664988233       41.58142536951943
C           43.08169606462285       40.36562889509319       42.47016495321582
C           44.22664636332804       39.62114778419724       42.25421163434453
C           45.00776990220575       39.87683795861627       41.14217682614166
C           44.66400790666929       40.88621735335243       40.26306426764206
C           44.30280150100173       43.83761357216537       39.59106098538960
C           44.61134491388546       44.33019868200646       41.01171428766511
C           43.37845469747020       44.93012216393000       41.63544065507760
C           42.87753361761389       44.43889828808828       42.83439593714443
C           41.73291516482313       44.97388423203015       43.39783587444585
C           41.05943128728630       45.99512591664192       42.75184585064027
C           41.54789994016359       46.49320172994985       41.55691047764915
C           42.70871238398581       45.97642908849743       41.01302663828425
C           45.75884095561873       45.35150581930068       41.00996804325722
C           47.15211743779489       44.70832183109727       40.87226799150127
C           48.07712894578674       45.70862902788978       40.22981922680626
C           48.50951330643672       45.51153871470954       38.92509076649205
C           49.32240695652496       46.44012226773634       38.30094223370256
C           49.72054982834121       47.58247801118356       38.97229684947666
C           49.29061971762463       47.79048492520595       40.27164435263428
C           48.47133451573889       46.86497265935704       40.89198607721129
C           47.68107830874742       44.20047428119005       42.22178802645693
C           49.11948033597406       43.66257727690759       42.13204371871696
C           49.22776163255508       42.60089468805496       41.06663856840143
C           48.49302562497138       41.42261757954918       41.15059002927791
C           48.60644144976107       40.45022329246384       40.17449752946806
C           49.45796786256609       40.63506585691077       39.10084386934749
C           50.19445989114800       41.80032590089071       39.00610301258124
C           50.07292641338176       42.77520800449861       39.97913029507242
C           49.59793224505393       43.12779404672280       43.50105944964285
C           50.98433882023989       43.64077403391159       43.92422461853190
H           53.98347572621938       48.94698858478935       31.05865790359373
H           54.83167087867420       51.00573574970194       28.97770960738367
H           53.15576953281340       50.60768898984036       29.33899636248757
H           55.13286358413026       51.64494141832832       31.41827930879251
H           52.10619518929035       51.34724828633103       31.39022263438890
H           53.23740973739879       50.47685397843566       32.42122334562740
H           52.62012958219358       53.45338620734471       32.46206306955330
H           52.17922576574440       51.23553711583769       34.50636683857563
H           51.92712927730719       52.95303476260018       34.83059447379946
H           50.42491319486142       51.38976477585740       32.69927077355142
H           50.70719765903343       54.09024957033436       32.85345873013563
H           49.46886676384398       52.72253276860137       31.12388555036788
H           47.82798195996300       51.65285370064297       32.64957970055136
H           47.11610814922586       53.22770433583018       32.99082415247867
H           46.73594867255948       53.49512039371833       30.48532510831866
H           45.22943756101917       51.21859991321620       31.81854917844385
H           44.98518905735899       52.92263023822905       32.17759401923333
H           44.61458023050150       51.62568017085878       29.44226042800330
H           42.69580621714378       52.49099051085249       31.61857250117622
H           42.17809082799960       52.40221040583909       29.93781956633579
H           43.63294980280704       50.03257363587727       31.10342264483701
H           42.27101966443272       51.37325513035543       33.48946021933610
H           40.12758293200896       50.04645256993537       33.99346862647686
H           41.16302531456400       48.66105433573372       34.27529546419790
H           42.48746048072311       50.23991835144643       35.89905237690216
H           40.72943582636956       49.86625943887973       37.73395863508321
H           39.72461072513135       49.13786339209501       36.48419436211334
H           41.64425352862150       47.54869865175584       35.98402651425486
H           41.31291527052697       46.49029487386283       38.49897667626159
H           39.95252637207520       47.60296501874666       38.43954555571615
H           40.59548552795429       45.38502633650373       36.44593966024792
H           38.45859699582975       45.72159507508212       38.58087805765798
H           38.29932116894025       44.58109533178777       37.24826332073336
H           40.60699049224089       44.57980162402717       39.23849495137710
H           40.39691543566393       42.01577806171279       38.35110731277829
H           39.82961133016308       42.84353693281275       36.91267457934169
H           42.17454837023474       44.25476072243960       37.61300565845526
H           42.49425380962674       41.29366852251325       38.17351223705107
H           43.83971162527636       42.27114874317883       37.59409050814529
H           42.26322730635847       43.25974309330457       39.96462320404616
H           45.20313792187844       43.39542595110314       39.16080338491214
H           44.02584545059144       44.68541234120489       38.96139927213613
H           44.91327891411551       43.46716003649567       41.61455278781389
H           45.60446736198703       46.05120547556076       40.18417237031281
H           45.72429738988124       45.93214858935888       41.93513336819260
H           47.07464524573184       43.84771009785121       40.19970784247058
H           47.65981671914096       45.00827617379257       42.95661090026884
H           47.01910239813480       43.41145865249651       42.58414207317582
H           52.72190615356527       47.26323472706074       30.15578669997971
H           52.23730102415620       45.65977884309292       28.37541442428485
H           53.49630777042304       45.74336766424022       26.24987411134869
H           55.24194545565314       47.45870399573153       25.93510730546419
H           55.74093494575495       49.05520721321589       27.72151492491222
H           55.93781006767489       53.73344271700484       31.07906567232807
H           55.75167367918686       56.00767280626530       30.17414293884180
H           53.73738901759279       56.67661061181354       28.90898546641328
H           51.92152038062183       55.04845031562604       28.55694928620096
H           52.10662099122059       52.77552893916624       29.45643505860272
H           54.86825880151525       50.79607403291302       33.90473098499549
H           56.93236724069730       51.34292682457472       35.08142599532965
H           57.50346559299309       53.69587237996532       35.57254289812939
H           55.95937388960574       55.49824670057799       34.88260313889469
H           53.90135244471828       54.94923774279257       33.65782736699310
H           49.34524027582192       53.16192068924168       35.84590824748189
H           48.30841114721699       51.97692606655327       37.71892786615760
H           48.07055397032121       49.52171478913893       37.66612033569012
H           48.87168791531113       48.26420840045775       35.69403294165221
H           49.87030783538668       49.45182014203883       33.80092422278912
H           49.33715192881687       53.90576007794409       33.92709799948918
H           47.74771345957897       55.49303619018513       33.04456185178748
H           47.30520512983099       57.68203252418024       32.04504533900355
H           48.01405554682671       58.16478183559951       29.73234034901126
H           49.19139791798266       56.43030042358161       28.43109734652351
H           49.62976557975038       54.22749069002959       29.43068990696865
H           47.53511353246652       52.88667046587994       28.44318916112487
H           48.37037537171588       51.21219378820552       26.84435812135576
H           48.53469787181507       48.84076962687841       27.51159412631849
H           47.85526971899034       48.16246513129465       29.78371842239391
H           47.05495944840953       49.83358039498469       31.38891576183729
H           44.09398532952656       54.79285234656349       31.44871301386602
H           44.23762344789204       57.00364708774325       30.43395165816458
H           44.59132519868404       57.24014315516670       27.99821775688083
H           44.78434134389990       55.21856589780223       26.59405333070859
H           44.65589103707075       52.98916381257472       27.61930799990922
H           40.37956981356046       50.78494558755211       29.36235993569724
H           39.81923398406263       49.83098725654679       27.17482139833797
H           41.44041736663456       48.39270924788568       25.99522107186573
H           43.63126831586720       47.91723927928420       27.03003011393604
H           44.19063323103507       48.86898745900712       29.22558289582604
H           40.74706533852969       50.73408863178930       31.73218862078887
H           41.34037911115824       49.07859871809675       31.71457524743904
H           42.92221879482528       47.74615991808437       32.68438241751957
H           45.12898884436148       46.71330732095709       33.00299167124977
H           46.96829620414546       48.00413439353640       34.01464850829976
H           46.57080826733130       50.31887850944599       34.76300500489373
H           44.36837108369296       51.36153056610269       34.43000236359874
H           42.77075044556715       52.41305858742749       36.63131208189985
H           41.92635128424432       54.66970110021909       37.07611105027626
H           39.56530642600237       55.23194295712525       36.60443041013755
H           38.05486850606434       53.49107528738801       35.72310096739541
H           38.88092555201553       51.22020514380606       35.33519019150582
H           42.11477319682044       49.10508473845938       39.38252166909765
H           44.33331993791185       49.36775656946605       40.41041123043830
H           46.35176864967922       48.61259268531918       39.21239994467416
H           46.13694812748021       47.63538196629716       36.95261057847782
H           43.92424619815384       47.38527609534187       35.92427925240034
H           40.08955455122032       45.87085762507294       34.29126324087923
H           38.71584844528471       46.98988708478007       32.58804044523282
H           36.82685597991351       48.42494219546364       33.26729226051003
H           36.32452648204171       48.72987026797865       35.66499321179391
H           37.71176513526380       47.63701417017819       37.36570489643934
H           40.09639748970729       44.02356978066716       41.38613910604654
H           38.58975207808036       43.06423357610991       43.07209560604242
H           36.49605140361962       41.96406900686831       42.37512432013083
H           35.93138064208881       41.81662249209990       39.97788614676016
H           37.46063223666877       42.72286090622968       38.28997456898131
H           42.87609100581791       44.96919075317204       35.54885587475811
H           43.18209824157448       44.63164869007249       33.13631645412966
H           42.62247299530859       42.45166601192147       32.10829629541877
H           41.72456890376537       40.63827073579552       33.50961027886095
H           41.38260071254488       40.98541832076348       35.91869456259973
H           41.82837916083664       41.94154626767400       41.75174313602663
H           42.46826365953878       40.17547126560331       43.33785815874576
H           44.51942915491279       38.85517781031016       42.95494803671104
H           45.89795286023936       39.29242265524671       40.96501093552374
H           45.29329951012865       41.08615246482178       39.40761233220692
H           43.38011591253571       43.61806143039972       43.32662434493984
H           41.35556294175415       44.58735163136406       44.33410359004738
H           40.15022724490937       46.39426166098750       43.17253941452008
H           41.01151210054527       47.27468005083977       41.03662002008480
H           43.09500404802642       46.39062008955443       40.09314941968972
H           48.20504874110482       44.61771134615076       38.39754152057598
H           49.64311830954819       46.27333223801789       37.28187001483808
H           50.36072080392427       48.30550968749309       38.48886494222827
H           49.59324433451888       48.68199013699780       40.80015592224089
H           48.13216298592774       47.04632933404257       41.90142191722864
H           50.64203208740251       43.69072318597896       39.89186041173399
H           50.87714842659179       41.94540691791379       38.18293178083733
H           49.55173389775180       39.86913701474069       38.34569657805166
H           48.03814483307239       39.53501437928014       40.25423799607644
H           47.82464388440641       41.25762494749561       41.98430456468312
H           56.24080398555675       49.72591631352856       31.50752002725207
H           56.36122108580097       48.14365627554108       30.73922960618562
H           56.68821365011362       49.60271007008317       29.80734245339078
H           49.75797103379585       44.50363842356916       41.84024944670486
H           48.88722836395841       43.43288556057342       44.27485488641578
H           49.60782405663895       42.03655981798187       43.48138376433622
C           52.10894842735309       43.19786382734069       42.97542583866165
C           51.30959988784629       43.19196286106447       45.32936137388160
C           51.43914265162464       41.84266521945475       45.64395861339914
C           51.82163259862988       41.44639254468371       46.91227249623518
C           52.08089353267722       42.39022646051214       47.89140594541264
C           51.93150398356640       43.73374180972519       47.59791931591963
C           51.54580210537416       44.12754782639202       46.32839673449078
H           51.25267395505517       41.09256138319698       44.88785264048166
H           51.93895954447969       40.39765113738699       47.14900810575905
H           52.40049181675987       42.06671192707141       48.87064733885229
H           52.12662209807920       44.48103295642652       48.35433677044664
H           51.44704165522475       45.18034814397190       46.10520048877162
C           53.47128610989590       43.73922707418867       43.42549550450006
H           52.15264484400051       42.10899627459842       42.94454936052608
H           51.90005892063491       43.54688810375048       41.96313566465235
C           54.59687768291352       43.30779612021138       42.52951695300322
C           54.96897837072840       41.96904998099330       42.45544172580469
C           56.01559969940175       41.56767402174374       41.64558762086033
C           56.72033125261732       42.50211778164983       40.90456740178505
C           56.36543327587805       43.83733111739086       40.97814371312099
C           55.30845594992570       44.23515145338229       41.77880324546250
H           54.44252229246323       41.23230996344378       43.04554250557187
H           56.28920700095183       40.52292022814168       41.60199582085469
H           57.54669026339810       42.19040102283575       40.28126166352734
H           56.91077174176530       44.58072447985122       40.41525523565420
H           55.04842892905179       45.28407533730512       41.82134806039879
H           50.94472251750324       44.73648201380452       43.91956282692424
H           53.43345014722042       44.82949553096344       43.45318014115398
H           53.67109870925703       43.38535071357132       44.44151192499000
C           43.30887319712384       35.89623974607497       63.96844471352507
C           42.67336462668242       36.27652020575560       62.79219675867574
C           43.30931676461847       36.01329672500125       61.58558094726182
C           44.54878427408983       35.39948324103516       61.54924008807271
C           45.17829224203928       35.04301312905629       62.72908712090616
C           44.55269820627711       35.29181978664423       63.93853408850880
C           41.30436773743520       36.91144882646120       62.79447448135221
C           40.25482510747969       35.81308863175668       63.00425315694591
C           41.14734956124256       38.00481891572537       63.85677579188697
C           42.23411785056219       39.08718244348555       63.78416082409058
C           42.13041023181682       39.87014495313345       62.49948746209037
C           43.08875474122989       39.70964168075601       61.50535762216121
C           43.01728939555118       40.42375919196299       60.32229650048919
C           41.97114512989464       41.30407211141553       60.10657184747262
C           41.00117774160412       41.46256894213132       61.08151595575947
C           41.08497319909183       40.75604112340258       62.26817184690368
C           42.14439481687932       39.98517122418375       65.02570416735945
C           43.25363518331135       41.04398967757598       65.08575215127310
C           44.59868928049879       40.36662951919182       64.98021518237668
C           45.09919473164089       39.58928449303187       66.01914394068460
C           46.32521187288158       38.95754140311542       65.90632882946885
C           47.06722860794113       39.08092075142489       64.74353548999116
C           46.57415682876233       39.84015500196910       63.69659474038947
C           45.35283526193951       40.48079601263153       63.81933889811823
C           43.15761042270559       41.86621873701406       66.38212535429705
C           42.09922124436881       42.98607726337828       66.36342709901280
C           41.66470803121103       43.28884396587161       67.77597618053321
C           40.32570438039859       43.23354808783916       68.13802859957892
C           39.92661814719067       43.49935356908159       69.43603084258494
C           40.86702792699793       43.82457376330702       70.39687825316312
C           42.20641272811279       43.88182112791898       70.04889102304442
C           42.60123486381852       43.61758247005515       68.75090400719368
C           42.66896128153943       44.24495892355791       65.69897052983833
C           41.65510317878628       45.38579433981171       65.51085527557029
C           40.68237912648586       45.03778498200982       64.41237743719967
C           41.07548548342495       45.01704695346229       63.07809346723548
C           40.17597831148411       44.71189428377949       62.07389317118551
C           38.86701164071302       44.38757394526156       62.38870901769947
C           38.46565234315345       44.38544248674667       63.71343804553726
C           39.36410357010346       44.71915699305843       64.71302673902917
C           42.42663025839131       46.68236377780235       65.21679854064307
C           41.53418890633461       47.86896810292070       64.83035292550956
C           40.76376451556906       48.40350854810016       66.01168164103487
C           39.39348069837664       48.19466865073084       66.10371633057036
C           38.66154869297833       48.72211980539402       67.15370355575001
C           39.28784057292005       49.48782082342321       68.12161083236099
C           40.65360606671479       49.70130308490393       68.04406588550381
C           41.38509768894063       49.15196109164354       67.00660920355455
C           42.37136890596356       48.98772235628564       64.19230696227343
C           42.82925475252021       48.66830531159768       62.75422766399164
C           44.31267948901477       48.40508611414239       62.68322655878709
C           44.79775672282344       47.17656707340959       62.25491695898555
C           46.15712962064586       46.92100695999159       62.20882891850275
C           47.05815842706270       47.90379114480622       62.57640086097994
C           46.58823462876267       49.14359818170360       62.97302245877017
C           45.22849970336674       49.39171036281169       63.03179517328020
C           42.44655649571573       49.81267899884794       61.80072184836966
C           40.99253771219090       49.71250876655652       61.33514053207202
C           40.73133180209023       48.56253946675972       60.38600543636066
C           41.73090930692150       47.83687368864785       59.75111006930727
C           41.42316431022807       46.83216836230640       58.84935527219506