3864
 energy: -5104.073953432646 gnorm: 0.000994380241 xtb: 6.6.1 (8d0f1dd)
C           53.32042018841777       47.28234556158938       29.32597392291435
C           54.33786607587766       48.21358867552394       29.15956072690815
C           55.05444525793241       48.20385423279217       27.96903548682396
C           54.77257700050883       47.27774349438471       26.98149563022200
C           53.76779025454871       46.34344379165510       27.16688984246447
C           53.03930372835141       46.35147280075255       28.34222827056216
C           54.64565128174628       49.21065027333141       30.25231530277452
C           56.12817581971905       49.17606626446771       30.63059932367971
C           54.19822679013882       50.61291729831187       29.80726967142058
C           54.20636457898470       51.66818671701353       30.92567690250617
C           54.04195852478111       53.04963860629945       30.34098151447193
C           55.03695393797805       54.00212337762240       30.51989079326908
C           54.89430303209514       55.28240665288661       30.01482289906853
C           53.74897234202919       55.63017581970657       29.32063711232093
C           52.75117316407325       54.68886401282687       29.13333015409611
C           52.89707178694979       53.40998482279780       29.63897220342519
C           53.10957584960242       51.39672087569103       31.96451090122769
C           52.98355550936454       52.52097160334603       32.99719843087452
C           54.27944071012006       52.83437523551322       33.70631000726598
C           55.15569806530723       51.84254681228047       34.13030366042123
C           56.31830405854576       52.16424090051790       34.80859325740354
C           56.61439037187991       53.48678583439179       35.09142191227983
C           55.73982383285579       54.48453734951311       34.69607435491482
C           54.58703971810780       54.15671895819117       34.00582180200504
C           51.93478693122523       52.18785188800915       34.07138138113238
C           50.48151996524550       52.08195758860855       33.57144502894086
C           49.71006259487648       51.42039709798701       34.68950077969443
C           49.25402885442828       52.12235479935845       35.79782888315577
C           48.66779889656661       51.46091058105854       36.86378039226640
C           48.53657272100769       50.08342376638038       36.84932134901187
C           48.99079634084512       49.37246632368701       35.75187539981876
C           49.56496622772398       50.03669462408614       34.68333889461863
C           49.93974281626823       53.44403372428122       33.11732646793509
C           48.99258962894947       53.33729640789472       31.91560584660562
C           48.72323584121189       54.70145235043918       31.32837776302443
C           48.11464880700837       55.70448319192720       32.07357697967409
C           47.82625387766394       56.93031252441862       31.50308085971636
C           48.14162715455345       57.17889988577674       30.17922387336834
C           48.76200410217657       56.19417589777923       29.43164513175769
C           49.05067787881446       54.96915701454476       30.00518466581055
C           47.67163920927873       52.65555404315660       32.29177662892346
C           46.75241481565079       52.52139239526955       31.07086037249755
C           47.21898294125747       51.43639876210893       30.13532457913313
C           47.57928500137901       51.74684921867057       28.82975692068163
C           47.98673868555326       50.75980211746896       27.94949581312781
C           48.02976533540619       49.43900807671299       28.36094248772124
C           47.66547305154642       49.11629840911850       29.65723081483819
C           47.26981784370391       50.10634799496538       30.53920031890427
C           45.30344958017393       52.27113154751474       31.49569740974846
C           44.33911003787021       52.39245470567655       30.31089273445265
C           44.40607826028971       53.77554323593868       29.71150954943541
C           44.27133647870831       54.91885483818718       30.49065835778391
C           44.37981286387709       56.17667210732462       29.92683481227894
C           44.61806417508347       56.31539385389905       28.57096374889540
C           44.73701431094008       55.18530401328172       27.78099505140106
C           44.63201620175846       53.92821117101526       28.34896596765464
C           42.91121303673741       52.03176118851254       30.74759137779037
C           42.73716063480642       50.50789511349326       30.87423389055487
C           42.43259831526651       49.91033073002845       29.52437011717402
C           41.20663687764355       50.11724967236862       28.90292275262684
C           40.94435800517850       49.57739632830392       27.65720105385606
C           41.90791442732584       48.82376102282879       27.00828896217629
C           43.13358333714170       48.61385849855055       27.61516579628557
C           43.39133868249459       49.15208076925933       28.86395297260096
C           41.67573776646485       50.12412828110081       31.91738916892682
C           42.17580160440911       50.29445319948274       33.36064632225926
C           43.50554822088499       49.62014234828654       33.58922919018298
C           43.72501845855324       48.29882782817009       33.21343759028623
C           44.96224151099459       47.70667807677598       33.39672484551983
C           45.99963172755702       48.42150362808292       33.97190480927705
C           45.78438724230038       49.72543471493872       34.38069036631462
C           44.54767142359071       50.31644996923012       34.18971039102441
C           41.14172910459600       49.74896006582094       34.35626235150370
C           41.41457791596918       50.24077177728351       35.78453818622622
C           40.89840438333237       51.64306692107400       35.99781858008139
C           41.73483826780068       52.63711586235959       36.48818654644163
C           41.25374677039182       53.91109243046655       36.74088442804258
C           39.92943874210846       54.21766085021084       36.49056628587850
C           39.08570877527159       53.23560062023590       35.99977576369729
C           39.56281350168959       51.95873980189980       35.76792039221097
C           40.77146259068925       49.32170482025208       36.83328351961473
C           41.51429574785915       47.99148592612692       37.01068672981563
C           42.88144570567903       48.19621056170313       37.61812445325968
C           43.03321324535430       48.78247923634412       38.87017574353472
C           44.28552981894576       48.92188133043640       39.44245186485392
C           45.41218590126481       48.47060021833575       38.77430508372522
C           45.27641854725011       47.89367557385790       37.52395039246365
C           44.02178685676130       47.76062364878654       36.95404423948951
C           40.67632880329195       47.01740570971726       37.86631671405975
C           39.90144541819260       45.99191879016399       37.02503455046150
C           39.03961899302836       46.66562180209554       35.98700417352972
C           39.31320378758149       46.49375065601129       34.63592561539242
C           38.55177491344560       47.12833866488635       33.66938237088377
C           37.49577498146097       47.94080692063725       34.04190586953840
C           37.20361738462709       48.10819298719330       35.38533161647691
C           37.97007271273201       47.47785764540937       36.34888838913577
C           39.04330952696089       45.08423277979067       37.91859710373484
C           39.83465937599419       44.04719685376980       38.73258393426875
C           38.91023790793595       43.43004366777090       39.75654405995844
C           39.21253738774580       43.50940935869375       41.10994900849879
C           38.36158008149759       42.97895162296049       42.06477577533587
C           37.18422960124364       42.36429906011873       41.67714976634005
C           36.87374435744137       42.27439321429429       40.33040276165709
C           37.73366515751729       42.79239405337518       39.37877005619493
C           40.47289591544585       42.95253238970545       37.85169169281878
C           41.93458604023106       43.22542589586313       37.42649957083711
C           42.12197304216178       43.03589047649508       35.94204652473208
C           42.64346164158008       44.05946269835059       35.16008450257196
C           42.82643096100610       43.89087992558002       33.79797951658442
C           42.50491537805809       42.68550281843602       33.19892460288990
C           41.99553639167868       41.65372395220935       33.97052623064436
C           41.80289978511115       41.82791637773501       35.32946283064069
C           42.93031133543818       42.31940364305165       38.17183418397829
C           43.20786502965205       42.80293764088457       39.60354974760968
C           43.56865898914069       41.65523173517806       40.50524677430829
C           42.77331337700384       41.35491117171890       41.60352537435553
C           43.13639985668852       40.35307040058658       42.48487868871184
C           44.28749896847879       39.61990692372384       42.26330102703654
C           45.06779593950463       39.89098976305100       41.15442866439699
C           44.71651697112323       40.90441251874535       40.28314189768193
C           44.32963170210613       43.85151190202104       39.62247313326598
C           44.63343562571281       44.34392645813815       41.04442657441415
C           43.39599932877553       44.93679361973484       41.66627817512389
C           42.88851528737629       44.43525522171920       42.85823966507469
C           41.73764453854721       44.96233897810205       43.41645351748647
C           41.06466073737242       45.98431448196379       42.77083448669377
C           41.56052370269632       46.49276583769268       41.58349596518464
C           42.72807443665720       45.98506629785960       41.04557484240991
C           45.77609298515994       45.37041374666170       41.04332080349025
C           47.17137374121675       44.72964448892380       40.91485927624696
C           48.09294702396757       45.72736416860527       40.26334749520748
C           48.49032381273889       45.53970741473800       38.94596034801385
C           49.29508229442894       46.46757513118145       38.31051914969510
C           49.72132438372957       47.59906065055971       38.98331371866352
C           49.32591215314785       47.79760521145993       40.29500042010861
C           48.51306290082155       46.87379921972530       40.92654471944064
C           47.69509322228001       44.23293296455727       42.27046429663602
C           49.13622001299213       43.70010129547516       42.19187903405826
C           49.25190808304271       42.64206565231923       41.12292568327582
C           48.52874203915059       41.45667117504373       41.20711137463407
C           48.64438020956822       40.48989511056467       40.22568302311942
C           49.48458657420015       40.68883791330806       39.14587234162401
C           50.20770047433187       41.86234528446639       39.05012279944152
C           50.08590593314115       42.83134035313671       40.02915692031367
C           49.60313602348852       43.16466476240365       43.56435551898829
C           50.99835903085982       43.65613199976110       43.98430715944364
H           54.06224355409384       48.92010897350845       31.13185506057940
H           54.85610747640894       50.95219551889816       29.00370593007709
H           53.18987085824802       50.53754528528554       29.39226655930738
H           55.17674010703483       51.63841941826799       31.42925595962959
H           52.15600931607534       51.28951429555098       31.44494213277799
H           53.31283928510246       50.45516136763396       32.47659059444464
H           52.67185498126017       53.42735967930042       32.46902483126915
H           52.20695804707469       51.23358172624781       34.53200435298761
H           51.97320723877854       52.95467429885819       34.84864074973338
H           50.46437519252675       51.40068974085982       32.71499674294918
H           50.77349589055926       54.08553343431915       32.82556169763870
H           49.48097189146166       52.72906283907921       31.14485377244606
H           47.87230266139542       51.67389906948042       32.72315659856408
H           47.16692042260735       53.25353988335753       33.05326912818854
H           46.77353944338508       53.47466086427260       30.53153020403970
H           45.22160711987657       51.28143661865197       31.94363676238174
H           45.02520018826472       52.99969489119045       32.25933372918476
H           44.64414874427742       51.67843053328951       29.53713651186441
H           42.70213561441218       52.51719615843548       31.70059307815032
H           42.19976191729018       52.41847776613608       30.01446846486555
H           43.68603333285324       50.07982003929652       31.20895998242915
H           42.29960849732235       51.36447806026683       33.55881669696557
H           40.14242563249110       50.05653042282943       34.04495125455601
H           41.16312957096250       48.65900100050236       34.32658731179552
H           42.49738230757472       50.23662443216030       35.95562785555444
H           40.74882378932164       49.84601156857973       37.79206583694496
H           39.74056197726271       49.12120833706808       36.54252172265760
H           41.65730580889328       47.53906673791209       36.02474236100052
H           41.33886524959082       46.47172447442857       38.53993043137609
H           39.97625214564204       47.58132203767289       38.48661730856108
H           40.62054080004257       45.36644814238667       36.49026982662882
H           38.47619429197234       45.70462933458406       38.61695979096989
H           38.32393099716758       44.56192312771089       37.28386531743411
H           40.62332579344031       44.56837327615879       39.28334600012118
H           40.43895403971641       42.00695063738831       38.39846346480748
H           39.85808934186409       42.82425344524196       36.95812316601513
H           42.19169309280650       44.26140418168424       37.66571487882320
H           42.53758327400050       41.30033353654014       38.19969392764187
H           43.87365255668542       42.29186447444121       37.62074954393639
H           42.29605588271242       43.25859269776314       39.99882704957538
H           45.23392460557999       43.41750263101830       39.19175870574870
H           44.04740839031396       44.69903774700848       38.99449331726520
H           44.93949261745749       43.48197656548321       41.64670853806599
H           45.62380988398417       46.06492169937093       40.21293994573458
H           45.73695756268420       45.95635859606878       41.96496371635799
H           47.09741380989518       43.86349316162088       40.24943593464796
H           47.66486332922073       45.04386528757615       43.00150590951750
H           47.03500517891006       43.44229005837561       42.63260397762632
H           52.74078476628152       47.27454623138978       30.23777027600990
H           52.25230828512770       45.62842583161353       28.49992661037917
H           53.55405220452327       45.61561823173391       26.39801816557649
H           55.34154450698326       47.28366569419108       26.06286854024741
H           55.84252957429825       48.92450959682995       27.80843491064247
H           55.93013804583808       53.74107044675134       31.07050785165416
H           55.67828178028254       56.01001272873217       30.16755912790309
H           53.63236065184090       56.62959747405697       28.92799171231788
H           51.85440981250193       54.95684441232935       28.59426674716454
H           52.10783662927559       52.68771150046153       29.48766678354117
H           54.94284112667249       50.80216627235025       33.93055689111137
H           56.99053386670180       51.37769073655525       35.11914236116936
H           57.52338911546322       53.73715925725156       35.61972083985505
H           55.95594238380926       55.51861268570305       34.92493727844052
H           53.91358854048851       54.94037985315192       33.68723730203739
H           49.36262943129950       53.19562414964918       35.84175364713244
H           48.31920985770896       52.02507406473171       37.71654687767884
H           48.08440515917092       49.56875335873301       37.68341378618747
H           48.90280823675409       48.29644393187979       35.72748520458126
H           49.91301712679569       49.46899262798680       33.83264928235190
H           49.42800005260069       53.94752472273665       33.93671367094258
H           47.85753767596831       55.52926492069825       33.10827113905398
H           47.34722155364378       57.69700237354022       32.09463991544960
H           47.90638935770669       58.13382679527327       29.73309144280629
H           49.01536891558906       56.37922857613913       28.39767536984575
H           49.52821806365782       54.19956358943146       29.41515350859749
H           47.52997569725314       52.77566049521363       28.50098020347603
H           48.26582791456941       51.02087310335965       26.93867455927015
H           48.34362701375093       48.66545907683346       27.67504069186698
H           47.68584145423834       48.08529125374501       29.98055935455602
H           46.99238074889168       49.83506078615336       31.54874697878695
H           44.08029449835777       54.83652170335063       31.54946021395980
H           44.27601870930609       57.05086331840703       30.55282570932478
H           44.70792003705542       57.29781876035997       28.13095908259407
H           44.91660960674057       55.28248590154309       26.71977339666555
H           44.73233525588481       53.04833858298568       27.72799424863986
H           40.44844387139797       50.70690632199305       29.39749072219742
H           39.98529956652085       49.74640240943642       27.18880718624288
H           41.70345108472102       48.40374148981947       26.03434816251865
H           43.89245421212419       48.02947267645283       27.11490211040466
H           44.35244438348866       48.98377031103099       29.33147971736741
H           40.78190907027325       50.73675872015092       31.78543970873498
H           41.38480761056515       49.08354446649988       31.75653506339432
H           42.92584017786378       47.73134911630037       32.75809706462940
H           45.12602746542689       46.68426877260913       33.08592171536370
H           46.97082526128209       47.96612610071752       34.09681211535905
H           46.58710999302238       50.28579476298135       34.83619210260893
H           44.39295997432337       51.34126392965225       34.49833796139139
H           42.77444093904511       52.41107090010689       36.68198644163904
H           41.92030167828811       54.66165316066031       37.13728566528290
H           39.55478109387629       55.21242565819261       36.68000001533257
H           38.04851674364649       53.46499292903356       35.80168452610299
H           38.88477502530302       51.19740008303610       35.40914192572594
H           42.16014882940833       49.12364530422511       39.40701381589081
H           44.38571698678921       49.37020149488809       40.42132018604894
H           46.38788816360326       48.56322916517384       39.23031436041433
H           46.14897896637177       47.54386363675624       36.99225148741642
H           43.93023588695113       47.31568078912785       35.97321022624370
H           40.13163102812425       45.85230951535343       34.33579641065219
H           38.78384812467407       46.98888768513570       32.62327002142267
H           36.90114311918373       48.43838357816185       33.28982898492702
H           36.37707733558999       48.73729174438012       35.68410754349709
H           37.74038775505903       47.62635530028958       37.39350744804572
H           40.12015473661609       44.00414339945777       41.42416713463268
H           38.61229673236125       43.05461761077002       43.11393411376804
H           36.51501643897885       41.95756458982429       42.41992306838682
H           35.95155872714113       41.80274884349838       40.02283531336112
H           37.48199809264456       42.70477539692931       38.33209463867820
H           42.91277989839053       44.99962896502246       35.62297703402326
H           43.21769048730454       44.70538165137566       33.20488958357058
H           42.64995833834104       42.54610042412003       32.13781856609712
H           41.74738920928075       40.70997975788234       33.50723300635745
H           41.40079399948066       41.01828365993264       35.92208966357222
H           41.86937225457203       41.92255394996844       41.77622717882584
H           42.52441840439551       40.14953164576179       43.35026593024265
H           44.58555127710164       38.85004802282107       42.95706856545338
H           45.96199536852887       39.31507386382455       40.97175558820038
H           45.34498614499950       41.11609822797374       39.42978871864958
H           43.39116670792938       43.61243591665409       43.34674559319987
H           41.35533042509059       44.56751759796476       44.34633084368344
H           40.14932196567944       46.37525658433582       43.18383993473256
H           41.02566700263139       47.27455011573356       41.06265668656984
H           43.12129961663553       46.40596683354688       40.13180127927414
H           48.16379538139096       44.65424126934777       38.41820163222434
H           49.58662410085710       46.30873618770551       37.28185065858896
H           50.35597464219013       48.32125064954415       38.49227442896120
H           49.64942827275989       48.68031472311865       40.82507395140207
H           48.19905838074364       47.04924976492067       41.94495149397545
H           50.64413075921701       43.75357714724822       39.94225936423551
H           50.88075965764585       42.01835817800438       38.22155900156476
H           49.58051061367433       39.92728056103154       38.38747770063815
H           48.08726736517615       39.56858394913321       40.30654339629763
H           47.86783282589418       41.28274300281934       42.04471906158455
H           56.30683953279482       49.72841039339065       31.55042259378828
H           56.45446743044174       48.14831711695619       30.78166205536046
H           56.73992394126861       49.61466738349643       29.84633644765655
H           49.77491183409726       44.54348087632854       41.90718130017487
H           48.89768832619207       43.48737417842656       44.33608426141874
H           49.59413251957962       42.07359762975997       43.55069259557182
C           52.11340923394620       43.19285819128437       43.03369289243008
C           51.31979495614795       43.20626430016598       45.39023314712360
C           51.43220574268745       41.85607932540965       45.70794693359303
C           51.81728561562902       41.45837890831473       46.97500306121687
C           52.09520456721143       42.40157119024455       47.94971140614216
C           51.96060986516007       43.74615851034658       47.65383696678996
C           51.57207536065531       44.14169044937184       46.38561215286710
H           51.23109616188111       41.10738305282752       44.95469226731589
H           51.92252166246294       40.40946805528652       47.21410248675240
H           52.41755469162710       42.07713246132453       48.92732148690661
H           52.17027008244065       44.49322866466485       48.40649225819183
H           51.48463892966600       45.19491350104084       46.16025085244163
C           53.48529109187646       43.71872168874665       43.47312930027639
H           52.14209297682494       42.10352761927196       43.01062198547137
H           51.90386204563189       43.53813253199802       42.02031593980592
C           54.59850053399327       43.26821572553587       42.56970362849124
C           54.95042301900288       41.92394668532126       42.49775802670598
C           55.98477352483258       41.50448204999157       41.68118682282903
C           56.69628537162400       42.42623674668717       40.93089323286967
C           56.36114066461376       43.76678501264872       41.00224678063965
C           55.31653717617919       44.18321241733680       41.80994047672959
H           54.41720606507437       41.19790028796053       43.09414586596695
H           56.24155492685028       40.45592155552264       41.64036645333200
H           57.51306739489475       42.10158644890468       40.30262251101008
H           56.91153315437648       44.50038115662311       40.43209004060364
H           55.07095203119263       45.23562616926127       41.85134162125327
H           50.97579071606284       44.75216436551958       43.97741393041449
H           53.46100506055175       44.80978795673831       43.49596242802536
H           53.68680977366233       43.36704727522678       44.48960460309686
C           43.45551325487028       36.08037788914005       63.91186550595032
C           42.76460004911925       36.34501557423788       62.73519318610359
C           43.37240321761029       36.02342059493483       61.52807725694650
C           44.63914785997719       35.46843143669366       61.49094250356306
C           45.32660840159163       35.23577814384608       62.66937103097033
C           44.72917239914371       35.54144322986227       63.87962775648757
C           41.37167744640360       36.92764049233587       62.73381061110889
C           40.36124616074036       35.79363810264316       62.94481644884078
C           41.16815644598558       38.01802012325781       63.79138876966503
C           42.23343583176030       39.12269156238561       63.74106684303727
C           42.12791642131928       39.91585023494532       62.46296475046077
C           43.08720433755559       39.76097423557513       61.46847307963841
C           43.01479376832322       40.47926268186227       60.28810734813214
C           41.96576081619590       41.35683087673221       60.07460421949279
C           40.99542299337217       41.51000177517016       61.05007107229095
C           41.08133937392489       40.80103559625014       62.23522213777585
C           42.12421156851350       40.00291624195012       64.99283455100141
C           43.24066304594866       41.05211699857370       65.08266102353552
C           44.57976712908084       40.36210478839990       64.97720250093968
C           45.06244890805706       39.55971436931586       66.00535882040801
C           46.27746116037930       38.90829863323158       65.88661821129209
C           47.02602764377559       39.03736332827237       64.72877726162496
C           46.55168086696386       39.82327348610840       63.69293467314986
C           45.34100309294147       40.48305550546039       63.82146417012018
C           43.13757363489185       41.85392101873769       66.39087125734430
C           42.08456149121974       42.97798114589524       66.37876361012313
C           41.64553145558407       43.27957004638195       67.79061285015430
C           40.30068000016985       43.27518434088388       68.13430831694203
C           39.89582788185956       43.54875400008434       69.42868339904805
C           40.83619852711082       43.82698782969482       70.40389728215348
C           42.18104457160893       43.83301430644708       70.07413054087566
C           42.58211623761888       43.56447950011997       68.77875351577424
C           42.66303420220478       44.23805190979900       65.72339221935634
C           41.65109776506780       45.37813144278727       65.52383322606696
C           40.69109657510557       45.03221817226482       64.41311965487313
C           41.10100508709335       45.01180835912931       63.08386726896352
C           40.21126582135754       44.71771218783972       62.06751840156913
C           38.89656771453285       44.40096857218060       62.36566148910504
C           38.47988450137922       44.39431211034856       63.68555183409271
C           39.36756448346803       44.72027901561540       64.69699272773433
C           42.42424445324533       46.67556445977783       65.23809967898403
C           41.53286653606719       47.85943941168863       64.84057525986924
C           40.75732612643530       48.40377475361183       66.01459489619963
C           39.38628980183212       48.19878201648741       66.10000006294725
C           38.65100452930710       48.73602832583398       67.14263987213383
C           39.27442728854421       49.50769844930544       68.10739031334634
C           40.64081120027411       49.71840512147999       68.03533933088259
C           41.37615981094193       49.15814815591244       67.00631972775595
C           42.37315895286471       48.97350574323161       64.19879084506839
C           42.83131906653964       48.64915291845460       62.76208396796310
C           44.31587195679730       48.39385003713611       62.68868125425327
C           44.80725698237580       47.17507743382935       62.23973532407078
C           46.16802979883058       46.92784978188796       62.18745157986236
C           47.06415946011542       47.90918268890256       62.57078708825065
C           46.58761086457601       49.13889751181983       62.99086864038709
C           45.22672562488848       49.37908045268694       63.05376428747569
C           42.44264530550159       49.78775982724211       61.80368975024655
C           40.98870550374993       49.67834334314762       61.33943540953761
C           40.73424532277274       48.52573691000335       60.39129793808745
C           41.73783596176604       47.81288753135068       59.74837308050531
C           41.43468138247069       46.81044974630890       58.84222622509852