      -----------------------------------------------------------      
     |                   =====================                   |     
     |                           x T B                           |     
     |                   =====================                   |     
     |                         S. Grimme                         |     
     |          Mulliken Center for Theoretical Chemistry        |     
     |                    University of Bonn                     |     
      -----------------------------------------------------------      

   * xtb version 6.6.1 (8d0f1dd) compiled by 'stahn@M-Bot' on 2023-08-01

   xtb is free software: you can redistribute it and/or modify it under
   the terms of the GNU Lesser General Public License as published by
   the Free Software Foundation, either version 3 of the License, or
   (at your option) any later version.
   
   xtb is distributed in the hope that it will be useful,
   but WITHOUT ANY WARRANTY; without even the implied warranty of
   MERCHANTABILITY or FITNESS FOR A PARTICULAR PURPOSE.  See the
   GNU Lesser General Public License for more details.
   
   Cite this work as:
   * C. Bannwarth, E. Caldeweyher, S. Ehlert, A. Hansen, P. Pracht,
     J. Seibert, S. Spicher, S. Grimme, WIREs Comput. Mol. Sci., 2020, 11,
     e01493. DOI: 10.1002/wcms.1493
   
   for GFN2-xTB:
   * C. Bannwarth, S. Ehlert and S. Grimme., J. Chem. Theory Comput., 2019,
     15, 1652-1671. DOI: 10.1021/acs.jctc.8b01176
   for GFN1-xTB:
   * S. Grimme, C. Bannwarth, P. Shushkov, J. Chem. Theory Comput., 2017,
     13, 1989-2009. DOI: 10.1021/acs.jctc.7b00118
   for GFN0-xTB:
   * P. Pracht, E. Caldeweyher, S. Ehlert, S. Grimme, ChemRxiv, 2019, preprint.
     DOI: 10.26434/chemrxiv.8326202.v1
   for GFN-FF:
   * S. Spicher and S. Grimme, Angew. Chem. Int. Ed., 2020, 59, 15665-15673.
     DOI: 10.1002/anie.202004239
   
   for ALPB and GBSA implicit solvation:
   * S. Ehlert, M. Stahn, S. Spicher, S. Grimme, J. Chem. Theory Comput.,
     2021, 17, 4250-4261. DOI: 10.1021/acs.jctc.1c00471
   
   for DFT-D4:
   * E. Caldeweyher, C. Bannwarth and S. Grimme, J. Chem. Phys., 2017,
     147, 034112. DOI: 10.1063/1.4993215
   * E. Caldeweyher, S. Ehlert, A. Hansen, H. Neugebauer, S. Spicher,
     C. Bannwarth and S. Grimme, J. Chem. Phys., 2019, 150, 154122.
     DOI: 10.1063/1.5090222
   * E. Caldeweyher, J.-M. Mewes, S. Ehlert and S. Grimme, Phys. Chem. Chem. Phys.
     2020, 22, 8499-8512. DOI: 10.1039/D0CP00502A
   
   for sTDA-xTB:
   * S. Grimme and C. Bannwarth, J. Chem. Phys., 2016, 145, 054103.
     DOI: 10.1063/1.4959605
   
   in the mass-spec context:
   * V. Asgeirsson, C. Bauer and S. Grimme, Chem. Sci., 2017, 8, 4879.
     DOI: 10.1039/c7sc00601b
   * J. Koopman and S. Grimme, ACS Omega 2019, 4, 12, 15120-15133.
     DOI: 10.1021/acsomega.9b02011
   
   for metadynamics refer to:
   * S. Grimme, J. Chem. Theory Comput., 2019, 155, 2847-2862
     DOI: 10.1021/acs.jctc.9b00143
   
   for SPH calculations refer to:
   * S. Spicher and S. Grimme, J. Chem. Theory Comput., 2021, 17, 1701-1714
     DOI: 10.1021/acs.jctc.0c01306
   
   with help from (in alphabetical order)
   P. Atkinson, C. Bannwarth, F. Bohle, G. Brandenburg, E. Caldeweyher
   M. Checinski, S. Dohm, S. Ehlert, S. Ehrlich, I. Gerasimov, C. Hölzer
   A. Katbashev, J. Koopman, C. Lavigne, S. Lehtola, F. März, M. Müller,
   F. Musil, H. Neugebauer, J. Pisarek, C. Plett, P. Pracht, F. Pultar,
   J. Seibert, P. Shushkov, S. Spicher, M. Stahn, M. Steiner, T. Strunk,
   J. Stückrath, T. Rose, and J. Unsleber
   
 * started run on 2024/06/20 at 16:44:50.406     

           -------------------------------------------------
          |                Calculation Setup                |
           -------------------------------------------------

          program call               : /home/abt-grimme/AK-bin/xtb input.xyz --input input.inp --opt --gbsa water
          hostname                   : boar099.thch.uni-bonn.de
          coordinate file            : input.xyz
          omp threads                :                     8

   ID    Z sym.   atoms
    1    6 C      1-90, 273-362, 545-634, 817-906, 1089-1178, 1361-1450,
                  1633-1722, 1905-1994, 2177-2266, 2449-2538, 2721-2810,
                  2993-3082, 3265-3354
    2    1 H      91-272, 363-544, 635-816, 907-1088, 1179-1360, 1451-1632,
                  1723-1904, 1995-2176, 2267-2448, 2539-2720, 2811-2992,
                  3083-3264, 3355-3536

molecular fragmentation (1/2 indicates fragments):
111111111111111111111111111111111111111111111111111111111111111111111111
111111111111111111111111111111111111111111111111111111111111111111111111
111111111111111111111111111111111111111111111111111111111111111111111111
111111111111111111111111111111111111111111111111111111112222222222222222
222222222222222222222222222222222222222222222222222222222222222222222222
222222222222222222222222222222222222222222222222222222222222222222222222
222222222222222222222222222222222222222222222222222222222222222222222222
222222222222222222222222222222222222222222222222222222222222222222222222
222222222222222222222222222222222222222222222222222222222222222222222222
222222222222222222222222222222222222222222222222222222222222222222222222
222222222222222222222222222222222222222222222222222222222222222222222222
222222222222222222222222222222222222222222222222222222222222222222222222
222222222222222222222222222222222222222222222222222222222222222222222222
222222222222222222222222222222222222222222222222222222222222222222222222
222222222222222222222222222222222222222222222222222222222222222222222222
222222222222222222222222222222222222222222222222222222222222222222222222
222222222222222222222222222222222222222222222222222222222222222222222222
222222222222222222222222222222222222222222222222222222222222222222222222
222222222222222222222222222222222222222222222222222222222222222222222222
222222222222222222222222222222222222222222222222222222222222222222222222
222222222222222222222222222222222222222222222222222222222222222222222222
222222222222222222222222222222222222222222222222222222222222222222222222
222222222222222222222222222222222222222222222222222222222222222222222222
222222222222222222222222222222222222222222222222222222222222222222222222
222222222222222222222222222222222222222222222222222222222222222222222222
222222222222222222222222222222222222222222222222222222222222222222222222
222222222222222222222222222222222222222222222222222222222222222222222222
222222222222222222222222222222222222222222222222222222222222222222222222
222222222222222222222222222222222222222222222222222222222222222222222222
222222222222222222222222222222222222222222222222222222222222222222222222
222222222222222222222222222222222222222222222222222222222222222222222222
222222222222222222222222222222222222222222222222222222222222222222222222
222222222222222222222222222222222222222222222222222222222222222222222222
222222222222222222222222222222222222222222222222222222222222222222222222
222222222222222222222222222222222222222222222222222222222222222222222222
222222222222222222222222222222222222222222222222222222222222222222222222
222222222222222222222222222222222222222222222222222222222222222222222222
222222222222222222222222222222222222222222222222222222222222222222222222
222222222222222222222222222222222222222222222222222222222222222222222222
222222222222222222222222222222222222222222222222222222222222222222222222
222222222222222222222222222222222222222222222222222222222222222222222222
222222222222222222222222222222222222222222222222222222222222222222222222
222222222222222222222222222222222222222222222222222222222222222222222222
222222222222222222222222222222222222222222222222222222222222222222222222
222222222222222222222222222222222222222222222222222222222222222222222222
222222222222222222222222222222222222222222222222222222222222222222222222
222222222222222222222222222222222222222222222222222222222222222222222222
222222222222222222222222222222222222222222222222222222222222222222222222
222222222222222222222222222222222222222222222222222222222222222222222222
22222222
# atoms in fragment 1/2:   272  3264
 fragment masses (1/2) :     1264.41    15172.94
CMA distance (Bohr)    :  27.606
constraining FC (au)   :  0.0500

           -------------------------------------------------
          |                 G F N 2 - x T B                 |
           -------------------------------------------------

        Reference                      10.1021/acs.jctc.8b01176
      * Hamiltonian:
        H0-scaling (s, p, d)           1.850000    2.230000    2.230000
        zeta-weighting                 0.500000
      * Dispersion:
        s8                             2.700000
        a1                             0.520000
        a2                             5.000000
        s9                             5.000000
      * Repulsion:
        kExp                           1.500000    1.000000
        rExp                           1.000000
      * Coulomb:
        alpha                          2.000000
        third order                    shell-resolved
        anisotropic                    true
        a3                             3.000000
        a5                             4.000000
        cn-shift                       1.200000
        cn-exp                         4.000000
        max-rad                        5.000000

      * Solvation model:               GBSA
        Solvent                        water
        Parameter file                 internal GFN2-xTB/GBSA
        Dielectric constant                8.0200E+01
        Reference state                gsolv [1 M gas/solution]
        Free energy shift                  1.8574E-03 Eh       1.1656E+00 kcal/mol
        Temperature                        2.9815E+02 K
        Density                            1.0000E+00 kg/L
        Solvent mass                       1.8000E+01 g/mol
        Interaction kernel             Still
        Born radius scaling (c1)           1.5524E+00
        Born radii integrator          GBOBC
        Born offset                        2.4628E-02 a0       4.6540E-02 AA
        H-bond correction              true
        Ion screening                  false
        Surface tension                    1.0000E-05 Eh       1.5569E+01 dyn/cm
        Grid points                               230 per atom
q/qsh data taken from xtbrestart
CAMM data taken from xtbrestart

          ...................................................
          :                      SETUP                      :
          :.................................................:
          :  # basis functions                7046          :
          :  # atomic orbitals                7046          :
          :  # shells                         4706          :
          :  # electrons                      7046          :
          :  max. iterations                   250          :
          :  Hamiltonian                  GFN2-xTB          :
          :  restarted?                       true          :
          :  GBSA solvation                   true          :
          :  PC potential                    false          :
          :  electronic temp.          300.0000000     K    :
          :  accuracy                    1.0000000          :
          :  -> integral cutoff          0.2500000E+02      :
          :  -> integral neglect         0.1000000E-07      :
          :  -> SCF convergence          0.1000000E-05 Eh   :
          :  -> wf. convergence          0.1000000E-03 e    :
          :  Broyden damping             0.4000000          :
          ...................................................

 iter      E             dE          RMSdq      gap      omega  full diag
   1  -3764.2055769 -0.376421E+04  0.591E-05   10.52       0.0  T
   2  -3764.2055769 -0.296313E-08  0.463E-05   10.52      36.3  T
   3  -3764.2055769 -0.301361E-08  0.301E-05   10.52      56.0  T

   *** convergence criteria satisfied after 3 iterations ***

         #    Occupation            Energy/Eh            Energy/eV
      -------------------------------------------------------------
         1        2.0000           -0.6177199             -16.8090
       ...           ...                  ...                  ...
      3517        2.0000           -0.3765382             -10.2461
      3518        2.0000           -0.3760713             -10.2334
      3519        2.0000           -0.3754749             -10.2172
      3520        2.0000           -0.3753424             -10.2136
      3521        2.0000           -0.3743026             -10.1853
      3522        2.0000           -0.3732090             -10.1555
      3523        2.0000           -0.3728030             -10.1445 (HOMO)
      3524                          0.0139366               0.3792 (LUMO)
      3525                          0.0153430               0.4175
      3526                          0.0169659               0.4617
      3527                          0.0170881               0.4650
      3528                          0.0176559               0.4804
       ...                                ...                  ...
      7046                          0.3698212              10.0633
      -------------------------------------------------------------
                  HL-Gap            0.3867396 Eh           10.5237 eV
             Fermi-level           -0.1794332 Eh           -4.8826 eV

 SCC (total)                   0 d,  0 h,  9 min, 12.580 sec
 SCC setup                      ...        0 min,  1.996 sec (  0.361%)
 Dispersion                     ...        0 min,  4.193 sec (  0.759%)
 classical contributions        ...        0 min,  0.170 sec (  0.031%)
 integral evaluation            ...        0 min,  7.000 sec (  1.267%)
 iterations                     ...        3 min, 59.827 sec ( 43.401%)
 molecular gradient             ...        4 min, 48.579 sec ( 52.224%)
 printout                       ...        0 min, 10.815 sec (  1.957%)

         :::::::::::::::::::::::::::::::::::::::::::::::::::::
         ::                     SUMMARY                     ::
         :::::::::::::::::::::::::::::::::::::::::::::::::::::
         :: total energy           -3715.362821427578 Eh    ::
         :: total w/o Gsasa/hb     -3715.254299609858 Eh    ::
         :: gradient norm              0.668957170407 Eh/a0 ::
         :: HOMO-LUMO gap             10.523720095136 eV    ::
         ::.................................................::
         :: SCC energy             -3764.205576863435 Eh    ::
         :: -> isotropic ES            0.436400777222 Eh    ::
         :: -> anisotropic ES          1.503693731307 Eh    ::
         :: -> anisotropic XC          2.303491735927 Eh    ::
         :: -> dispersion             -4.697364679879 Eh    ::
         :: -> Gsolv                  -0.044426858525 Eh    ::
         ::    -> Gelec                0.064094959195 Eh    ::
         ::    -> Gsasa               -0.104112112222 Eh    ::
         ::    -> Ghb                 -0.006267148625 Eh    ::
         ::    -> Gshift               0.001857443127 Eh    ::
         :: repulsion energy          48.113055389692 Eh    ::
         :: add. restraining           0.000000000000 Eh    ::
         :: total charge              -0.000000000010 e     ::
         :::::::::::::::::::::::::::::::::::::::::::::::::::::

      ----------------------------------------------------------- 
     |              Fast Inertial Relaxation Engine              |
      ----------------------------------------------------------- 

          ...................................................
          :                      SETUP                      :
          :.................................................:
          :   energy convergence        0.5000000E-05 Eh    :
          :   grad. convergence         0.1000000E-02 Eh/a0 :
          :   optimization log               true           :
          :   writing optlog all                1     steps :
          :   Hessian reset                    20     steps :
          :   time step scaling                 5     steps :
          :   maximium step len.        1.0000000     a0    :
          :   initial time step         0.2500000     fs    :
          :   maximum time step         1.2500000     fs    :
          :   power reset thr           0.0000000     au    :
          :   alpha parameter           0.1000000           :
          :   BFGS update                   false           :
          :   preconditioning               false           :
          ...................................................

........................................................................
.............................. CYCLE    1 ..............................
........................................................................

 iter      E             dE          RMSdq      gap      omega  full diag
   1  -3764.4697805 -0.376447E+04  0.764E-03   10.53       0.0  T
   2  -3764.4698252 -0.447144E-04  0.415E-03   10.53       1.0  T
   3  -3764.4698260 -0.706348E-06  0.181E-03   10.53       1.0  T
   4  -3764.4698265 -0.550673E-06  0.452E-04   10.53       3.7  T
   5  -3764.4698268 -0.286646E-06  0.177E-04   10.53       9.5  T
     SCC iter.                  ...        6 min,  9.430 sec
     gradient                   ...        4 min, 50.409 sec
 * total energy  : -3715.4138577 Eh     change    :  -0.5103629E-01 Eh
   gradient norm :     0.6364740 Eh/a0  converged?    E=F G=F D=F
   time step     :     0.2500000 fs     power     :   0.2641231E-05
   step length   :     0.0784004 a0     speed     :   0.7585655E-02

........................................................................
.............................. CYCLE    2 ..............................
........................................................................

 iter      E             dE          RMSdq      gap      omega  full diag
   1  -3764.8593266 -0.376486E+04  0.112E-02   10.54       0.0  T
   2  -3764.8594226 -0.959919E-04  0.609E-03   10.54       1.0  T
   3  -3764.8594241 -0.156487E-05  0.265E-03   10.54       1.0  T
   4  -3764.8594253 -0.119194E-05  0.669E-04   10.54       2.5  T
   5  -3764.8594259 -0.622404E-06  0.273E-04   10.54       6.2  T
   6  -3764.8594260 -0.454916E-07  0.127E-04   10.53      13.2  T
     SCC iter.                  ...        7 min, 26.373 sec
     gradient                   ...        4 min, 51.896 sec
 * total energy  : -3715.4846405 Eh     change    :  -0.7078279E-01 Eh
   gradient norm :     0.5899514 Eh/a0  converged?    E=F G=F D=F
   time step     :     0.2500000 fs     power     :   0.3610328E-05
   step length   :     0.1156206 a0     speed     :   0.1118691E-01

........................................................................
.............................. CYCLE    3 ..............................
........................................................................

 iter      E             dE          RMSdq      gap      omega  full diag
   1  -3765.3642984 -0.376536E+04  0.145E-02   10.55       0.0  T
   2  -3765.3644553 -0.156942E-03  0.785E-03   10.54       1.0  T
   3  -3765.3644579 -0.258342E-05  0.338E-03   10.54       1.0  T
   4  -3765.3644598 -0.193399E-05  0.858E-04   10.54       2.0  T
   5  -3765.3644608 -0.102257E-05  0.353E-04   10.54       4.8  T
   6  -3765.3644609 -0.728987E-07  0.160E-04   10.54      10.5  T
   7  -3765.3644610 -0.371019E-07  0.103E-04   10.54      16.4  T
     SCC iter.                  ...        8 min, 44.665 sec
     gradient                   ...        5 min,  3.813 sec
 * total energy  : -3715.5685078 Eh     change    :  -0.8386727E-01 Eh
   gradient norm :     0.5313498 Eh/a0  converged?    E=F G=F D=F
   time step     :     0.2500000 fs     power     :   0.4206058E-05
   step length   :     0.1501015 a0     speed     :   0.1452312E-01

........................................................................
.............................. CYCLE    4 ..............................
........................................................................

 iter      E             dE          RMSdq      gap      omega  full diag
   1  -3765.9719360 -0.376597E+04  0.173E-02   10.55       0.0  T
   2  -3765.9721542 -0.218258E-03  0.936E-03   10.55       1.0  T
   3  -3765.9721579 -0.363087E-05  0.398E-03   10.55       1.0  T
   4  -3765.9721605 -0.259275E-05  0.100E-03   10.55       1.7  T
   5  -3765.9721618 -0.139001E-05  0.416E-04   10.55       4.0  T
   6  -3765.9721619 -0.861860E-07  0.177E-04   10.55       9.5  T
   7  -3765.9721620 -0.427258E-07  0.112E-04   10.55      15.0  T
     SCC iter.                  ...        8 min, 42.933 sec
     gradient                   ...        4 min, 51.634 sec
 * total energy  : -3715.6578225 Eh     change    :  -0.8931473E-01 Eh
   gradient norm :     0.4644792 Eh/a0  converged?    E=F G=F D=F
   time step     :     0.2500000 fs     power     :   0.4389548E-05
   step length   :     0.1810164 a0     speed     :   0.1751431E-01

........................................................................
.............................. CYCLE    5 ..............................
........................................................................

 iter      E             dE          RMSdq      gap      omega  full diag
   1  -3766.6667415 -0.376667E+04  0.196E-02   10.56       0.0  T
   2  -3766.6670112 -0.269695E-03  0.106E-02   10.56       1.0  T
   3  -3766.6670159 -0.472633E-05  0.441E-03   10.56       1.0  T
   4  -3766.6670190 -0.310621E-05  0.111E-03   10.56       1.5  T
   5  -3766.6670207 -0.166869E-05  0.478E-04   10.56       3.5  T
   6  -3766.6670208 -0.107342E-06  0.194E-04   10.55       8.7  T
   7  -3766.6670208 -0.503219E-07  0.124E-04   10.55      13.6  T
     SCC iter.                  ...        8 min, 39.200 sec
     gradient                   ...        4 min, 51.664 sec
 * total energy  : -3715.7449477 Eh     change    :  -0.8712522E-01 Eh
   gradient norm :     0.3946364 Eh/a0  converged?    E=F G=F D=F
   time step     :     0.2500000 fs     power     :   0.4174672E-05
   step length   :     0.2076523 a0     speed     :   0.2009147E-01

........................................................................
.............................. CYCLE    6 ..............................
........................................................................

 iter      E             dE          RMSdq      gap      omega  full diag
   1  -3767.5142260 -0.376751E+04  0.237E-02   10.57       0.0  T
   2  -3767.5145957 -0.369732E-03  0.127E-02   10.56       1.0  T
   3  -3767.5146029 -0.714150E-05  0.515E-03   10.57       1.0  T
   4  -3767.5146069 -0.404015E-05  0.128E-03   10.56       1.3  T
   5  -3767.5146090 -0.213477E-05  0.586E-04   10.56       2.9  T
   6  -3767.5146092 -0.147154E-06  0.220E-04   10.56       7.6  T
   7  -3767.5146092 -0.629484E-07  0.143E-04   10.56      11.8  T
     SCC iter.                  ...        8 min, 46.782 sec
     gradient                   ...        4 min, 48.019 sec
 * total energy  : -3715.8308478 Eh     change    :  -0.8590007E-01 Eh
   gradient norm :     0.3230743 Eh/a0  converged?    E=F G=F D=F
   time step     :     0.2750000 fs     power     :   0.3556115E-05
   step length   :     0.2547550 a0     speed     :   0.2240811E-01

........................................................................
.............................. CYCLE    7 ..............................
........................................................................

 iter      E             dE          RMSdq      gap      omega  full diag
   1  -3768.5105556 -0.376851E+04  0.276E-02   10.58       0.0  T
   2  -3768.5110085 -0.452905E-03  0.147E-02   10.57       1.0  T
   3  -3768.5110190 -0.104958E-04  0.570E-03   10.57       1.0  T
   4  -3768.5110235 -0.454964E-05  0.138E-03   10.57       1.2  T
   5  -3768.5110257 -0.220340E-05  0.694E-04   10.57       2.4  T
   6  -3768.5110259 -0.187159E-06  0.232E-04   10.57       7.2  T
   7  -3768.5110260 -0.685309E-07  0.155E-04   10.57      10.8  T
     SCC iter.                  ...        8 min, 38.245 sec
     gradient                   ...        4 min, 50.639 sec
 * total energy  : -3715.9059870 Eh     change    :  -0.7513917E-01 Eh
   gradient norm :     0.2661943 Eh/a0  converged?    E=F G=F D=F
   time step     :     0.3025000 fs     power     :   0.2591015E-05
   step length   :     0.3031559 a0     speed     :   0.2424129E-01

........................................................................
.............................. CYCLE    8 ..............................
........................................................................

 iter      E             dE          RMSdq      gap      omega  full diag
   1  -3769.6208499 -0.376962E+04  0.307E-02   10.58       0.0  T
   2  -3769.6213197 -0.469776E-03  0.164E-02   10.58       1.0  T
   3  -3769.6213346 -0.148923E-04  0.584E-03   10.58       1.0  T
   4  -3769.6213387 -0.416615E-05  0.135E-03   10.58       1.2  T
   5  -3769.6213401 -0.140656E-05  0.768E-04   10.58       2.2  T
   6  -3769.6213404 -0.218191E-06  0.218E-04   10.57       7.7  T
   7  -3769.6213404 -0.591122E-07  0.153E-04   10.57      11.0  T
     SCC iter.                  ...        8 min, 38.667 sec
     gradient                   ...        4 min, 49.539 sec
 * total energy  : -3715.9621368 Eh     change    :  -0.5614978E-01 Eh
   gradient norm :     0.2441110 Eh/a0  converged?    E=F G=F D=F
   time step     :     0.3327500 fs     power     :   0.1489089E-05
   step length   :     0.3473766 a0     speed     :   0.2525211E-01

........................................................................
.............................. CYCLE    9 ..............................
........................................................................

 iter      E             dE          RMSdq      gap      omega  full diag
   1  -3770.7619240 -0.377076E+04  0.326E-02   10.59       0.0  T
   2  -3770.7623092 -0.385245E-03  0.176E-02   10.59       1.0  T
   3  -3770.7623281 -0.188451E-04  0.541E-03   10.59       1.0  T
   4  -3770.7623315 -0.338835E-05  0.130E-03   10.59       1.3  T
   5  -3770.7623320 -0.496885E-06  0.750E-04   10.59       2.2  T
   6  -3770.7623322 -0.204644E-06  0.169E-04   10.59      10.0  T
     SCC iter.                  ...        7 min, 23.887 sec
     gradient                   ...        4 min, 51.919 sec
 * total energy  : -3715.9967668 Eh     change    :  -0.3463005E-01 Eh
   gradient norm :     0.2527315 Eh/a0  converged?    E=F G=F D=F
   time step     :     0.3660250 fs     power     :   0.5581744E-06
   step length   :     0.3797684 a0     speed     :   0.2509708E-01

........................................................................
.............................. CYCLE   10 ..............................
........................................................................

 iter      E             dE          RMSdq      gap      omega  full diag
   1  -3771.8200107 -0.377182E+04  0.334E-02   10.61       0.0  T
   2  -3771.8202576 -0.246901E-03  0.186E-02   10.60       1.0  T
   3  -3771.8202738 -0.162068E-04  0.474E-03   10.60       1.0  T
   4  -3771.8202819 -0.809253E-05  0.145E-03   10.60       1.2  T
   5  -3771.8202829 -0.106729E-05  0.818E-04   10.60       2.1  T
   6  -3771.8202831 -0.132238E-06  0.137E-04   10.60      12.2  T
   7  -3771.8202831 -0.215778E-07  0.103E-04   10.60      16.3  T
     SCC iter.                  ...        8 min, 36.325 sec
     gradient                   ...        4 min, 52.424 sec
 * total energy  : -3716.0137145 Eh     change    :  -0.1694772E-01 Eh
   gradient norm :     0.2625289 Eh/a0  converged?    E=F G=F D=F
   time step     :     0.4026275 fs     power     :  -0.4672576E-07
   step length   :     0.3978424 a0     speed     :   0.2390137E-01

........................................................................
.............................. CYCLE   11 ..............................
........................................................................
 * reset velocities

 iter      E             dE          RMSdq      gap      omega  full diag
   1  -3771.8013177 -0.377180E+04  0.106E-03   10.60       0.0  T
   2  -3771.8013185 -0.861872E-06  0.648E-04   10.60       2.6  T
   3  -3771.8013185 -0.120367E-07  0.274E-04   10.60       6.1  T
     SCC iter.                  ...        3 min, 44.813 sec
     gradient                   ...        4 min, 50.766 sec
 * total energy  : -3716.0163015 Eh     change    :  -0.2587007E-02 Eh
   gradient norm :     0.2562277 Eh/a0  converged?    E=F G=F D=F
   time step     :     0.2013138 fs     power     :   0.1684706E-06
   step length   :     0.0099755 a0     speed     :   0.1198603E-02

........................................................................
.............................. CYCLE   12 ..............................
........................................................................

 iter      E             dE          RMSdq      gap      omega  full diag
   1  -3771.7638676 -0.377176E+04  0.212E-03   10.60       0.0  T
   2  -3771.7638709 -0.323241E-05  0.130E-03   10.60       1.3  T
   3  -3771.7638709 -0.301138E-07  0.529E-04   10.60       3.2  T
   4  -3771.7638710 -0.844493E-07  0.137E-04   10.60      12.2  T
     SCC iter.                  ...        5 min,  0.548 sec
     gradient                   ...        5 min,  0.233 sec
 * total energy  : -3716.0212304 Eh     change    :  -0.4928864E-02 Eh
   gradient norm :     0.2439360 Eh/a0  converged?    E=F G=F D=F
   time step     :     0.2013138 fs     power     :   0.3168554E-06
   step length   :     0.0197113 a0     speed     :   0.2368414E-02

........................................................................
.............................. CYCLE   13 ..............................
........................................................................

 iter      E             dE          RMSdq      gap      omega  full diag
   1  -3771.7088864 -0.377171E+04  0.305E-03   10.60       0.0  T
   2  -3771.7088936 -0.727539E-05  0.188E-03   10.60       1.0  T
   3  -3771.7088938 -0.108612E-06  0.796E-04   10.60       2.1  T
   4  -3771.7088939 -0.190179E-06  0.209E-04   10.60       8.0  T
     SCC iter.                  ...        4 min, 56.533 sec
     gradient                   ...        4 min, 52.471 sec
 * total energy  : -3716.0280385 Eh     change    :  -0.6808056E-02 Eh
   gradient norm :     0.2261345 Eh/a0  converged?    E=F G=F D=F
   time step     :     0.2013138 fs     power     :   0.4315123E-06
   step length   :     0.0289785 a0     speed     :   0.3481915E-02

........................................................................
.............................. CYCLE   14 ..............................
........................................................................

 iter      E             dE          RMSdq      gap      omega  full diag
   1  -3771.6378162 -0.377164E+04  0.394E-03   10.60       0.0  T
   2  -3771.6378284 -0.121662E-04  0.242E-03   10.60       1.0  T
   3  -3771.6378286 -0.187366E-06  0.103E-03   10.60       1.6  T
   4  -3771.6378289 -0.316738E-06  0.272E-04   10.60       6.2  T
   5  -3771.6378290 -0.924642E-07  0.676E-05   10.60      24.9  T
     SCC iter.                  ...        6 min, 21.656 sec
     gradient                   ...        4 min, 57.389 sec
 * total energy  : -3716.0360969 Eh     change    :  -0.8058419E-02 Eh
   gradient norm :     0.2035955 Eh/a0  converged?    E=F G=F D=F
   time step     :     0.2013138 fs     power     :   0.5025748E-06
   step length   :     0.0375632 a0     speed     :   0.4513404E-02

........................................................................
.............................. CYCLE   15 ..............................
........................................................................

 iter      E             dE          RMSdq      gap      omega  full diag
   1  -3771.5526071 -0.377155E+04  0.471E-03   10.61       0.0  T
   2  -3771.5526246 -0.175616E-04  0.290E-03   10.61       1.0  T
   3  -3771.5526249 -0.275418E-06  0.123E-03   10.61       1.4  T
   4  -3771.5526254 -0.441363E-06  0.325E-04   10.61       5.2  T
   5  -3771.5526255 -0.132186E-06  0.803E-05   10.61      20.9  T
     SCC iter.                  ...        6 min, 16.127 sec
     gradient                   ...        4 min, 48.048 sec
 * total energy  : -3716.0446809 Eh     change    :  -0.8584012E-02 Eh
   gradient norm :     0.1773730 Eh/a0  converged?    E=F G=F D=F
   time step     :     0.2013138 fs     power     :   0.5249718E-06
   step length   :     0.0452735 a0     speed     :   0.5439832E-02

........................................................................
.............................. CYCLE   16 ..............................
........................................................................

 iter      E             dE          RMSdq      gap      omega  full diag
   1  -3771.4557748 -0.377146E+04  0.535E-03   10.61       0.0  T
   2  -3771.4557976 -0.227790E-04  0.330E-03   10.61       1.0  T
   3  -3771.4557979 -0.362294E-06  0.140E-03   10.61       1.2  T
   4  -3771.4557985 -0.560918E-06  0.370E-04   10.61       4.5  T
   5  -3771.4557987 -0.170443E-06  0.915E-05   10.61      18.4  T
     SCC iter.                  ...        6 min, 11.390 sec
     gradient                   ...        4 min, 49.828 sec
 * total energy  : -3716.0530533 Eh     change    :  -0.8372466E-02 Eh
   gradient norm :     0.1490532 Eh/a0  converged?    E=F G=F D=F
   time step     :     0.2013138 fs     power     :   0.4993896E-06
   step length   :     0.0519408 a0     speed     :   0.6240942E-02

........................................................................
.............................. CYCLE   17 ..............................
........................................................................

 iter      E             dE          RMSdq      gap      omega  full diag
   1  -3771.3389487 -0.377134E+04  0.647E-03   10.61       0.0  T
   2  -3771.3389821 -0.334552E-04  0.400E-03   10.61       1.0  T
   3  -3771.3389827 -0.536209E-06  0.170E-03   10.61       1.0  T
   4  -3771.3389835 -0.802899E-06  0.448E-04   10.61       3.7  T
   5  -3771.3389837 -0.247949E-06  0.109E-04   10.61      15.4  T
     SCC iter.                  ...        6 min, 12.787 sec
     gradient                   ...        4 min, 49.359 sec
 * total energy  : -3716.0612734 Eh     change    :  -0.8220064E-02 Eh
   gradient norm :     0.1181898 Eh/a0  converged?    E=F G=F D=F
   time step     :     0.2214451 fs     power     :   0.4232734E-06
   step length   :     0.0637715 a0     speed     :   0.6965873E-02

........................................................................
.............................. CYCLE   18 ..............................
........................................................................

 iter      E             dE          RMSdq      gap      omega  full diag
   1  -3771.2043376 -0.377120E+04  0.752E-03   10.62       0.0  T
   2  -3771.2043829 -0.452395E-04  0.467E-03   10.62       1.0  T
   3  -3771.2043836 -0.726407E-06  0.197E-03   10.62       1.0  T
   4  -3771.2043847 -0.106079E-05  0.522E-04   10.62       3.2  T
   5  -3771.2043850 -0.332980E-06  0.126E-04   10.62      13.4  T
   6  -3771.2043850 -0.119148E-07  0.862E-05   10.62      19.5  T
     SCC iter.                  ...        7 min, 24.916 sec
     gradient                   ...        4 min, 50.307 sec
 * total energy  : -3716.0683308 Eh     change    :  -0.7057427E-02 Eh
   gradient norm :     0.0910277 Eh/a0  converged?    E=F G=F D=F
   time step     :     0.2435896 fs     power     :   0.3002281E-06
   step length   :     0.0760210 a0     speed     :   0.7549007E-02

........................................................................
.............................. CYCLE   19 ..............................
........................................................................

 iter      E             dE          RMSdq      gap      omega  full diag
   1  -3771.0604871 -0.377106E+04  0.823E-03   10.62       0.0  T
   2  -3771.0605408 -0.537162E-04  0.515E-03   10.62       1.0  T
   3  -3771.0605416 -0.822464E-06  0.214E-03   10.62       1.0  T
   4  -3771.0605429 -0.124989E-05  0.569E-04   10.63       3.0  T
   5  -3771.0605432 -0.391335E-06  0.129E-04   10.63      13.1  T
   6  -3771.0605433 -0.103114E-07  0.837E-05   10.63      20.1  T
     SCC iter.                  ...        7 min, 17.396 sec
     gradient                   ...        4 min, 48.387 sec
 * total energy  : -3716.0732893 Eh     change    :  -0.4958476E-02 Eh
   gradient norm :     0.0812148 Eh/a0  converged?    E=F G=F D=F
   time step     :     0.2679486 fs     power     :   0.1554408E-06
   step length   :     0.0872658 a0     speed     :   0.7877846E-02

........................................................................
.............................. CYCLE   20 ..............................
........................................................................

 iter      E             dE          RMSdq      gap      omega  full diag
   1  -3770.9259868 -0.377093E+04  0.825E-03   10.63       0.0  T
   2  -3770.9260379 -0.511094E-04  0.520E-03   10.63       1.0  T
   3  -3770.9260386 -0.670701E-06  0.209E-03   10.63       1.0  T
   4  -3770.9260398 -0.128324E-05  0.559E-04   10.63       3.0  T
   5  -3770.9260402 -0.374768E-06  0.128E-04   10.63      13.1  T
   6  -3770.9260402 -0.845057E-08  0.773E-05   10.63      21.8  T
     SCC iter.                  ...        7 min, 26.197 sec
     gradient                   ...        4 min, 49.544 sec
 * total energy  : -3716.0759609 Eh     change    :  -0.2671581E-02 Eh
   gradient norm :     0.0951233 Eh/a0  converged?    E=F G=F D=F
   time step     :     0.2947435 fs     power     :   0.4173896E-07
   step length   :     0.0948147 a0     speed     :   0.7781198E-02
 * RMSD in coord.:     0.0375707 a0     energy gain  -0.7131395E+00 Eh

........................................................................
.............................. CYCLE   21 ..............................
........................................................................

 iter      E             dE          RMSdq      gap      omega  full diag
   1  -3770.8444366 -0.377084E+04  0.585E-03   10.64       0.0  T
   2  -3770.8444588 -0.221138E-04  0.372E-03   10.64       1.0  T
   3  -3770.8444589 -0.152500E-06  0.137E-03   10.64       1.2  T
   4  -3770.8444596 -0.714743E-06  0.370E-04   10.64       4.5  T
   5  -3770.8444598 -0.165660E-06  0.924E-05   10.64      18.2  T
     SCC iter.                  ...        6 min, 16.855 sec
     gradient                   ...        4 min, 49.938 sec
 * total energy  : -3716.0771689 Eh     change    :  -0.1207995E-02 Eh
   gradient norm :     0.1119344 Eh/a0  converged?    E=F G=F D=F
   time step     :     0.2500000 fs     power     :   0.2180851E-07
   step length   :     0.0750118 a0     speed     :   0.7257793E-02

........................................................................
.............................. CYCLE   22 ..............................
........................................................................

 iter      E             dE          RMSdq      gap      omega  full diag
   1  -3770.7981730 -0.377080E+04  0.481E-03   10.64       0.0  T
   2  -3770.7981834 -0.103279E-04  0.307E-03   10.65       1.0  T
   3  -3770.7981833  0.103385E-06  0.887E-04   10.64       1.9  T
   4  -3770.7981838 -0.553958E-06  0.253E-04   10.65       6.6  T
     SCC iter.                  ...        4 min, 53.912 sec
     gradient                   ...        4 min, 50.138 sec
 * total energy  : -3716.0786685 Eh     change    :  -0.1499574E-02 Eh
   gradient norm :     0.1240622 Eh/a0  converged?    E=F G=F D=F
   time step     :     0.2500000 fs     power     :   0.5596373E-07
   step length   :     0.0696296 a0     speed     :   0.6737036E-02

........................................................................
.............................. CYCLE   23 ..............................
........................................................................

 iter      E             dE          RMSdq      gap      omega  full diag
   1  -3770.7864525 -0.377079E+04  0.419E-03   10.65       0.0  T
   2  -3770.7864557 -0.315644E-05  0.262E-03   10.65       1.0  T
   3  -3770.7864556  0.125639E-06  0.406E-04   10.65       4.1  T
   4  -3770.7864559 -0.341425E-06  0.150E-04   10.65      11.2  T
     SCC iter.                  ...        4 min, 54.492 sec
     gradient                   ...        4 min, 50.760 sec
 * total energy  : -3716.0811396 Eh     change    :  -0.2471178E-02 Eh
   gradient norm :     0.1290489 Eh/a0  converged?    E=F G=F D=F
   time step     :     0.2500000 fs     power     :   0.1181909E-06
   step length   :     0.0659349 a0     speed     :   0.6379554E-02

........................................................................
.............................. CYCLE   24 ..............................
........................................................................

 iter      E             dE          RMSdq      gap      omega  full diag
   1  -3770.8068153 -0.377081E+04  0.409E-03   10.66       0.0  T
   2  -3770.8068158 -0.493609E-06  0.246E-03   10.66       1.0  T
   3  -3770.8068159 -0.917871E-07  0.183E-04   10.66       9.2  T
   4  -3770.8068160 -0.468804E-07  0.102E-04   10.66      16.5  T
     SCC iter.                  ...        4 min, 59.979 sec
     gradient                   ...        4 min, 51.507 sec
 * total energy  : -3716.0847899 Eh     change    :  -0.3650228E-02 Eh
   gradient norm :     0.1268474 Eh/a0  converged?    E=F G=F D=F
   time step     :     0.2500000 fs     power     :   0.1841233E-06
   step length   :     0.0645092 a0     speed     :   0.6241615E-02

........................................................................
.............................. CYCLE   25 ..............................
........................................................................

 iter      E             dE          RMSdq      gap      omega  full diag
   1  -3770.8558882 -0.377086E+04  0.443E-03   10.67       0.0  T
   2  -3770.8558895 -0.130412E-05  0.257E-03   10.67       1.0  T
   3  -3770.8558896 -0.227478E-07  0.363E-04   10.67       4.6  T
   4  -3770.8558897 -0.154466E-06  0.117E-04   10.66      14.4  T
     SCC iter.                  ...        5 min,  5.306 sec
     gradient                   ...        4 min, 50.180 sec
 * total energy  : -3716.0894544 Eh     change    :  -0.4664576E-02 Eh
   gradient norm :     0.1184498 Eh/a0  converged?    E=F G=F D=F
   time step     :     0.2500000 fs     power     :   0.2358972E-06
   step length   :     0.0651688 a0     speed     :   0.6305433E-02

........................................................................
.............................. CYCLE   26 ..............................
........................................................................

 iter      E             dE          RMSdq      gap      omega  full diag
   1  -3770.9387494 -0.377094E+04  0.551E-03   10.67       0.0  T
   2  -3770.9387550 -0.557644E-05  0.314E-03   10.67       1.0  T
   3  -3770.9387549  0.121165E-06  0.766E-04   10.67       2.2  T
   4  -3770.9387553 -0.479076E-06  0.173E-04   10.67       9.7  T
     SCC iter.                  ...        5 min,  1.453 sec
     gradient                   ...        4 min, 50.284 sec
 * total energy  : -3716.0953031 Eh     change    :  -0.5848648E-02 Eh
   gradient norm :     0.1039437 Eh/a0  converged?    E=F G=F D=F
   time step     :     0.2750000 fs     power     :   0.2629882E-06
   step length   :     0.0745742 a0     speed     :   0.6559503E-02

........................................................................
.............................. CYCLE   27 ..............................
........................................................................

 iter      E             dE          RMSdq      gap      omega  full diag
   1  -3771.0569569 -0.377106E+04  0.681E-03   10.68       0.0  T
   2  -3771.0569702 -0.132902E-04  0.386E-03   10.68       1.0  T
   3  -3771.0569700  0.175830E-06  0.114E-03   10.68       1.5  T
   4  -3771.0569708 -0.810892E-06  0.249E-04   10.68       6.7  T
   5  -3771.0569709 -0.979539E-07  0.121E-04   10.68      13.9  T
     SCC iter.                  ...        6 min,  8.114 sec
     gradient                   ...        4 min, 52.512 sec
 * total energy  : -3716.1017995 Eh     change    :  -0.6496441E-02 Eh
   gradient norm :     0.0856718 Eh/a0  converged?    E=F G=F D=F
   time step     :     0.3025000 fs     power     :   0.2550109E-06
   step length   :     0.0867412 a0     speed     :   0.6936095E-02

........................................................................
.............................. CYCLE   28 ..............................
........................................................................

 iter      E             dE          RMSdq      gap      omega  full diag
   1  -3771.2081690 -0.377121E+04  0.809E-03   10.69       0.0  T
   2  -3771.2081917 -0.227252E-04  0.457E-03   10.69       1.0  T
   3  -3771.2081916  0.170136E-06  0.144E-03   10.69       1.2  T
   4  -3771.2081926 -0.106071E-05  0.318E-04   10.69       5.3  T
   5  -3771.2081928 -0.161816E-06  0.133E-04   10.69      12.7  T
   6  -3771.2081928 -0.176879E-07  0.811E-05   10.69      20.7  T
     SCC iter.                  ...        7 min, 19.084 sec
     gradient                   ...        4 min, 50.636 sec
 * total energy  : -3716.1081324 Eh     change    :  -0.6332824E-02 Eh
   gradient norm :     0.0702032 Eh/a0  converged?    E=F G=F D=F
   time step     :     0.3327500 fs     power     :   0.2123504E-06
   step length   :     0.1009784 a0     speed     :   0.7340498E-02

........................................................................
.............................. CYCLE   29 ..............................
........................................................................

 iter      E             dE          RMSdq      gap      omega  full diag
   1  -3771.3812423 -0.377138E+04  0.896E-03   10.70       0.0  T
   2  -3771.3812705 -0.281620E-04  0.504E-03   10.70       1.0  T
   3  -3771.3812703  0.148334E-06  0.155E-03   10.70       1.1  T
   4  -3771.3812714 -0.110759E-05  0.350E-04   10.70       4.8  T
   5  -3771.3812716 -0.195512E-06  0.132E-04   10.70      12.7  T
   6  -3771.3812716 -0.140094E-07  0.766E-05   10.69      21.9  T
     SCC iter.                  ...        7 min, 25.490 sec
     gradient                   ...        4 min, 49.504 sec
 * total energy  : -3716.1136048 Eh     change    :  -0.5472442E-02 Eh
   gradient norm :     0.0673803 Eh/a0  converged?    E=F G=F D=F
   time step     :     0.3660250 fs     power     :   0.1548098E-06
   step length   :     0.1157434 a0     speed     :   0.7648929E-02

........................................................................
.............................. CYCLE   30 ..............................
........................................................................

 iter      E             dE          RMSdq      gap      omega  full diag
   1  -3771.5523123 -0.377155E+04  0.902E-03   10.70       0.0  T
   2  -3771.5523352 -0.229552E-04  0.505E-03   10.70       1.0  T
   3  -3771.5523352  0.186360E-07  0.136E-03   10.70       1.2  T
   4  -3771.5523360 -0.767482E-06  0.308E-04   10.70       5.5  T
   5  -3771.5523361 -0.144687E-06  0.126E-04   10.70      13.4  T
     SCC iter.                  ...        6 min, 10.187 sec
     gradient                   ...        4 min, 50.585 sec
 * total energy  : -3716.1182763 Eh     change    :  -0.4671471E-02 Eh
   gradient norm :     0.0758113 Eh/a0  converged?    E=F G=F D=F
   time step     :     0.4026275 fs     power     :   0.1178003E-06
   step length   :     0.1287721 a0     speed     :   0.7736300E-02

........................................................................
.............................. CYCLE   31 ..............................
........................................................................

 iter      E             dE          RMSdq      gap      omega  full diag
   1  -3771.6938738 -0.377169E+04  0.841E-03   10.71       0.0  T
   2  -3771.6938844 -0.105792E-04  0.473E-03   10.71       1.0  T
   3  -3771.6938846 -0.260004E-06  0.876E-04   10.71       1.9  T
   4  -3771.6938849 -0.242474E-06  0.201E-04   10.71       8.4  T
     SCC iter.                  ...        5 min,  2.118 sec
     gradient                   ...        4 min, 50.510 sec
 * total energy  : -3716.1230742 Eh     change    :  -0.4797890E-02 Eh
   gradient norm :     0.0822714 Eh/a0  converged?    E=F G=F D=F
   time step     :     0.4428903 fs     power     :   0.1184804E-06
   step length   :     0.1405498 a0     speed     :   0.7676249E-02

........................................................................
.............................. CYCLE   32 ..............................
........................................................................

 iter      E             dE          RMSdq      gap      omega  full diag
   1  -3771.7830395 -0.377178E+04  0.776E-03   10.72       0.0  T
   2  -3771.7830422 -0.276945E-05  0.454E-03   10.72       1.0  T
   3  -3771.7830421  0.136658E-06  0.622E-04   10.72       2.7  T
   4  -3771.7830428 -0.683588E-06  0.186E-04   10.72       9.1  T
     SCC iter.                  ...        5 min,  0.754 sec
     gradient                   ...        4 min, 54.957 sec
 * total energy  : -3716.1289301 Eh     change    :  -0.5855959E-02 Eh
   gradient norm :     0.0782725 Eh/a0  converged?    E=F G=F D=F
   time step     :     0.4871793 fs     power     :   0.1379845E-06
   step length   :     0.1544076 a0     speed     :   0.7666464E-02

........................................................................
.............................. CYCLE   33 ..............................
........................................................................

 iter      E             dE          RMSdq      gap      omega  full diag
   1  -3771.8050628 -0.377181E+04  0.774E-03   10.73       0.0  T
   2  -3771.8050732 -0.104314E-04  0.485E-03   10.73       1.0  T
   3  -3771.8050718  0.141602E-05  0.114E-03   10.73       1.5  T
   4  -3771.8050744 -0.262728E-05  0.226E-04   10.73       7.4  T
   5  -3771.8050745 -0.356313E-07  0.129E-04   10.73      13.0  T
   6  -3771.8050745 -0.987347E-08  0.580E-05   10.73      29.0  T
     SCC iter.                  ...        7 min, 34.995 sec
     gradient                   ...        5 min,  1.462 sec
 * total energy  : -3716.1357271 Eh     change    :  -0.6796950E-02 Eh
   gradient norm :     0.0652556 Eh/a0  converged?    E=F G=F D=F
   time step     :     0.5358972 fs     power     :   0.1399301E-06
   step length   :     0.1727680 a0     speed     :   0.7798245E-02

........................................................................
.............................. CYCLE   34 ..............................
........................................................................

 iter      E             dE          RMSdq      gap      omega  full diag
   1  -3771.7624417 -0.377176E+04  0.834E-03   10.74       0.0  T
   2  -3771.7624722 -0.304360E-04  0.544E-03   10.75       1.0  T
   3  -3771.7624716  0.601474E-06  0.169E-03   10.74       1.0  T
   4  -3771.7624740 -0.240043E-05  0.398E-04   10.75       4.2  T
   5  -3771.7624742 -0.218405E-06  0.160E-04   10.75      10.5  T
   6  -3771.7624742 -0.193972E-07  0.873E-05   10.75      19.3  T
     SCC iter.                  ...        7 min, 30.850 sec
     gradient                   ...        4 min, 49.601 sec
 * total energy  : -3716.1422365 Eh     change    :  -0.6509407E-02 Eh
   gradient norm :     0.0576035 Eh/a0  converged?    E=F G=F D=F
   time step     :     0.5894869 fs     power     :   0.1089976E-06
   step length   :     0.1948690 a0     speed     :   0.7996202E-02

........................................................................
.............................. CYCLE   35 ..............................
........................................................................

 iter      E             dE          RMSdq      gap      omega  full diag
   1  -3771.6932083 -0.377169E+04  0.888E-03   10.76       0.0  T
   2  -3771.6932441 -0.357608E-04  0.571E-03   10.76       1.0  T
   3  -3771.6932440  0.101628E-06  0.164E-03   10.76       1.0  T
   4  -3771.6932456 -0.164181E-05  0.498E-04   10.76       3.4  T
   5  -3771.6932459 -0.306468E-06  0.176E-04   10.76       9.5  T
   6  -3771.6932460 -0.178879E-07  0.815E-05   10.76      20.6  T
     SCC iter.                  ...        7 min, 25.895 sec
     gradient                   ...        4 min, 49.722 sec
 * total energy  : -3716.1478502 Eh     change    :  -0.5613708E-02 Eh
   gradient norm :     0.0636740 Eh/a0  converged?    E=F G=F D=F
   time step     :     0.6484356 fs     power     :   0.8079689E-07
   step length   :     0.2164067 a0     speed     :   0.8072701E-02

........................................................................
.............................. CYCLE   36 ..............................
........................................................................

 iter      E             dE          RMSdq      gap      omega  full diag
   1  -3771.6593826 -0.377166E+04  0.988E-03   10.78       0.0  T
   2  -3771.6593987 -0.161587E-04  0.595E-03   10.78       1.0  T
   3  -3771.6593995 -0.729705E-06  0.918E-04   10.78       1.8  T
   4  -3771.6594000 -0.493832E-06  0.325E-04   10.78       5.2  T
     SCC iter.                  ...        5 min,  2.057 sec
     gradient                   ...        4 min, 50.091 sec
 * total energy  : -3716.1537193 Eh     change    :  -0.5869061E-02 Eh
   gradient norm :     0.0639720 Eh/a0  converged?    E=F G=F D=F
   time step     :     0.7132792 fs     power     :   0.8334875E-07
   step length   :     0.2366730 a0     speed     :   0.8026094E-02

........................................................................
.............................. CYCLE   37 ..............................
........................................................................

 iter      E             dE          RMSdq      gap      omega  full diag
   1  -3771.7074158 -0.377171E+04  0.120E-02   10.81       0.0  T
   2  -3771.7074238 -0.793041E-05  0.693E-03   10.81       1.0  T
   3  -3771.7074236  0.131969E-06  0.121E-03   10.81       1.4  T
   4  -3771.7074256 -0.197453E-05  0.346E-04   10.81       4.9  T
   5  -3771.7074256 -0.157761E-07  0.124E-04   10.81      13.6  T
   6  -3771.7074256 -0.675300E-08  0.337E-05   10.81      49.9  T
     SCC iter.                  ...        7 min, 23.201 sec
     gradient                   ...        4 min, 49.505 sec
 * total energy  : -3716.1601937 Eh     change    :  -0.6474481E-02 Eh
   gradient norm :     0.0521498 Eh/a0  converged?    E=F G=F D=F
   time step     :     0.7846071 fs     power     :   0.7789772E-07
   step length   :     0.2612686 a0     speed     :   0.8054712E-02

........................................................................
.............................. CYCLE   38 ..............................
........................................................................

 iter      E             dE          RMSdq      gap      omega  full diag
   1  -3771.8370371 -0.377184E+04  0.132E-02   10.84       0.0  T
   2  -3771.8370605 -0.233899E-04  0.766E-03   10.84       1.0  T
   3  -3771.8370594  0.112103E-05  0.171E-03   10.84       1.0  T
   4  -3771.8370628 -0.341334E-05  0.365E-04   10.84       4.6  T
   5  -3771.8370629 -0.110419E-06  0.187E-04   10.84       9.0  T
   6  -3771.8370629 -0.148771E-07  0.704E-05   10.83      23.9  T
     SCC iter.                  ...        7 min, 16.609 sec
     gradient                   ...        4 min, 49.369 sec
 * total energy  : -3716.1655280 Eh     change    :  -0.5334256E-02 Eh
   gradient norm :     0.0532109 Eh/a0  converged?    E=F G=F D=F
   time step     :     0.8630678 fs     power     :   0.4334950E-07
   step length   :     0.2887810 a0     speed     :   0.8093545E-02

........................................................................
.............................. CYCLE   39 ..............................
........................................................................

 iter      E             dE          RMSdq      gap      omega  full diag
   1  -3771.9722063 -0.377197E+04  0.119E-02   10.86       0.0  T
   2  -3771.9722212 -0.149448E-04  0.691E-03   10.86       1.0  T
   3  -3771.9722216 -0.339725E-06  0.106E-03   10.86       1.6  T
   4  -3771.9722224 -0.871521E-06  0.281E-04   10.86       6.0  T
   5  -3771.9722225 -0.503151E-07  0.149E-04   10.86      11.3  T
     SCC iter.                  ...        6 min,  8.499 sec
     gradient                   ...        4 min, 50.581 sec
 * total energy  : -3716.1702642 Eh     change    :  -0.4736237E-02 Eh
   gradient norm :     0.0584768 Eh/a0  converged?    E=F G=F D=F
   time step     :     0.9493746 fs     power     :   0.3861953E-07
   step length   :     0.3114911 a0     speed     :   0.7936393E-02

........................................................................
.............................. CYCLE   40 ..............................
........................................................................

 iter      E             dE          RMSdq      gap      omega  full diag
   1  -3772.0422394 -0.377204E+04  0.115E-02   10.89       0.0  T
   2  -3772.0422548 -0.154370E-04  0.687E-03   10.89       1.0  T
   3  -3772.0422529  0.194952E-05  0.157E-03   10.89       1.1  T
   4  -3772.0422574 -0.453340E-05  0.331E-04   10.89       5.1  T
   5  -3772.0422574 -0.345995E-07  0.176E-04   10.89       9.5  T
   6  -3772.0422575 -0.144360E-07  0.646E-05   10.89      26.0  T
     SCC iter.                  ...        7 min, 28.268 sec
     gradient                   ...        4 min, 50.126 sec
 * total energy  : -3716.1759135 Eh     change    :  -0.5649280E-02 Eh
   gradient norm :     0.0496014 Eh/a0  converged?    E=F G=F D=F
   time step     :     1.0443120 fs     power     :   0.4177605E-07
   step length   :     0.3382483 a0     speed     :   0.7834666E-02

........................................................................
.............................. CYCLE   41 ..............................
........................................................................

 iter      E             dE          RMSdq      gap      omega  full diag
   1  -3772.0624414 -0.377206E+04  0.125E-02   10.91       0.0  T
   2  -3772.0624728 -0.313565E-04  0.774E-03   10.91       1.0  T
   3  -3772.0624708  0.198354E-05  0.180E-03   10.91       1.0  T
   4  -3772.0624759 -0.514859E-05  0.434E-04   10.91       3.9  T
   5  -3772.0624761 -0.173226E-06  0.237E-04   10.91       7.1  T
   6  -3772.0624761 -0.417954E-07  0.113E-04   10.92      14.9  T
     SCC iter.                  ...        7 min, 29.331 sec
     gradient                   ...        4 min, 49.234 sec
 * total energy  : -3716.1807000 Eh     change    :  -0.4786524E-02 Eh
   gradient norm :     0.0500420 Eh/a0  converged?    E=F G=F D=F
   time step     :     1.1487432 fs     power     :   0.1884648E-07
   step length   :     0.3698809 a0     speed     :   0.7788504E-02

........................................................................
.............................. CYCLE   42 ..............................
........................................................................

 iter      E             dE          RMSdq      gap      omega  full diag
   1  -3772.1275723 -0.377213E+04  0.139E-02   10.94       0.0  T
   2  -3772.1275810 -0.872327E-05  0.809E-03   10.94       1.0  T
   3  -3772.1275814 -0.388448E-06  0.994E-04   10.94       1.7  T
   4  -3772.1275825 -0.113823E-05  0.333E-04   10.94       5.0  T
   5  -3772.1275825 -0.367309E-07  0.170E-04   10.94       9.9  T
     SCC iter.                  ...        6 min, 15.075 sec
     gradient                   ...        4 min, 48.999 sec
 * total energy  : -3716.1845424 Eh     change    :  -0.3842348E-02 Eh
   gradient norm :     0.0474270 Eh/a0  converged?    E=F G=F D=F
   time step     :     1.2500000 fs     power     :   0.7151580E-08
   step length   :     0.3926050 a0     speed     :   0.7597330E-02
 * RMSD in coord.:     0.0590964 a0     energy gain  -0.1085815E+00 Eh

........................................................................
.............................. CYCLE   43 ..............................
........................................................................

 iter      E             dE          RMSdq      gap      omega  full diag
   1  -3772.1412086 -0.377214E+04  0.235E-03   10.95       0.0  T
   2  -3772.1412089 -0.262330E-06  0.136E-03   10.95       1.2  T
   3  -3772.1412089  0.422051E-08  0.200E-04   10.95       8.4  T
   4  -3772.1412089 -0.541186E-07  0.591E-05   10.95      28.4  T
     SCC iter.                  ...        5 min,  1.536 sec
     gradient                   ...        4 min, 50.419 sec
 * total energy  : -3716.1850881 Eh     change    :  -0.5457709E-03 Eh
   gradient norm :     0.0476595 Eh/a0  converged?    E=F G=F D=F
   time step     :     0.2500000 fs     power     :   0.2474845E-07
   step length   :     0.0718435 a0     speed     :   0.6951241E-02

........................................................................
.............................. CYCLE   44 ..............................
........................................................................

 iter      E             dE          RMSdq      gap      omega  full diag
   1  -3772.1543535 -0.377215E+04  0.226E-03   10.96       0.0  T
   2  -3772.1543540 -0.517187E-06  0.132E-03   10.96       1.3  T
   3  -3772.1543540  0.247019E-07  0.240E-04   10.96       7.0  T
   4  -3772.1543540 -0.721088E-07  0.503E-05   10.96      33.5  T
     SCC iter.                  ...        5 min,  3.037 sec
     gradient                   ...        4 min, 49.677 sec
 * total energy  : -3716.1859025 Eh     change    :  -0.8143153E-03 Eh
   gradient norm :     0.0441965 Eh/a0  converged?    E=F G=F D=F
   time step     :     0.2500000 fs     power     :   0.3893212E-07
   step length   :     0.0667536 a0     speed     :   0.6458768E-02

........................................................................
.............................. CYCLE   45 ..............................
........................................................................

 iter      E             dE          RMSdq      gap      omega  full diag
   1  -3772.1653697 -0.377217E+04  0.240E-03   10.96       0.0  T
   2  -3772.1653705 -0.836446E-06  0.144E-03   10.96       1.2  T
   3  -3772.1653705  0.155101E-07  0.271E-04   10.96       6.2  T
   4  -3772.1653706 -0.775849E-07  0.610E-05   10.96      27.6  T
     SCC iter.                  ...        5 min,  3.016 sec
     gradient                   ...        4 min, 49.166 sec
 * total energy  : -3716.1868631 Eh     change    :  -0.9606540E-03 Eh
   gradient norm :     0.0381365 Eh/a0  converged?    E=F G=F D=F
   time step     :     0.2500000 fs     power     :   0.4520623E-07
   step length   :     0.0630239 a0     speed     :   0.6097905E-02

........................................................................
.............................. CYCLE   46 ..............................
........................................................................

 iter      E             dE          RMSdq      gap      omega  full diag
   1  -3772.1725316 -0.377217E+04  0.264E-03   10.97       0.0  T
   2  -3772.1725327 -0.103958E-05  0.160E-03   10.97       1.0  T
   3  -3772.1725327 -0.218006E-08  0.283E-04   10.97       5.9  T
   4  -3772.1725328 -0.811760E-07  0.729E-05   10.97      23.1  T
     SCC iter.                  ...        4 min, 55.208 sec
     gradient                   ...        4 min, 49.405 sec
 * total energy  : -3716.1878121 Eh     change    :  -0.9489482E-03 Eh
   gradient norm :     0.0311618 Eh/a0  converged?    E=F G=F D=F
   time step     :     0.2500000 fs     power     :   0.4275143E-07
   step length   :     0.0602777 a0     speed     :   0.5832192E-02

........................................................................
.............................. CYCLE   47 ..............................
........................................................................

 iter      E             dE          RMSdq      gap      omega  full diag
   1  -3772.1741001 -0.377217E+04  0.282E-03   10.97       0.0  T
   2  -3772.1741012 -0.102954E-05  0.172E-03   10.97       1.0  T
   3  -3772.1741012 -0.193190E-07  0.276E-04   10.97       6.1  T
   4  -3772.1741013 -0.845503E-07  0.817E-05   10.97      20.6  T
     SCC iter.                  ...        4 min, 56.290 sec
     gradient                   ...        4 min, 50.875 sec
 * total energy  : -3716.1886164 Eh     change    :  -0.8043744E-03 Eh
   gradient norm :     0.0256875 Eh/a0  converged?    E=F G=F D=F
   time step     :     0.2500000 fs     power     :   0.3390216E-07
   step length   :     0.0580529 a0     speed     :   0.5616927E-02

........................................................................
.............................. CYCLE   48 ..............................
........................................................................

 iter      E             dE          RMSdq      gap      omega  full diag
   1  -3772.1681346 -0.377217E+04  0.316E-03   10.98       0.0  T
   2  -3772.1681356 -0.100221E-05  0.190E-03   10.98       1.0  T
   3  -3772.1681356 -0.256709E-07  0.292E-04   10.98       5.8  T
   4  -3772.1681357 -0.116136E-06  0.959E-05   10.98      17.5  T
     SCC iter.                  ...        4 min, 57.923 sec
     gradient                   ...        4 min, 50.058 sec
 * total energy  : -3716.1892648 Eh     change    :  -0.6483759E-03 Eh
   gradient norm :     0.0241548 Eh/a0  converged?    E=F G=F D=F
   time step     :     0.2750000 fs     power     :   0.2187977E-07
   step length   :     0.0614369 a0     speed     :   0.5403954E-02

........................................................................
.............................. CYCLE   49 ..............................
........................................................................

 iter      E             dE          RMSdq      gap      omega  full diag
   1  -3772.1536334 -0.377215E+04  0.325E-03   10.98       0.0  T
   2  -3772.1536342 -0.854490E-06  0.193E-03   10.98       1.0  T
   3  -3772.1536342 -0.276714E-08  0.318E-04   10.98       5.3  T
   4  -3772.1536344 -0.164264E-06  0.103E-04   10.98      16.4  T
     SCC iter.                  ...        4 min, 58.519 sec
     gradient                   ...        4 min, 49.288 sec
 * total energy  : -3716.1897430 Eh     change    :  -0.4781477E-03 Eh
   gradient norm :     0.0269803 Eh/a0  converged?    E=F G=F D=F
   time step     :     0.3025000 fs     power     :   0.1294499E-07
   step length   :     0.0641129 a0     speed     :   0.5126665E-02

........................................................................
.............................. CYCLE   50 ..............................
........................................................................

 iter      E             dE          RMSdq      gap      omega  full diag
   1  -3772.1324570 -0.377213E+04  0.315E-03   10.99       0.0  T
   2  -3772.1324578 -0.809866E-06  0.183E-03   10.99       1.0  T
   3  -3772.1324578  0.205641E-07  0.336E-04   10.99       5.0  T
   4  -3772.1324580 -0.182850E-06  0.966E-05   10.99      17.4  T
     SCC iter.                  ...        4 min, 59.531 sec
     gradient                   ...        4 min, 54.074 sec
 * total energy  : -3716.1901544 Eh     change    :  -0.4114564E-03 Eh
   gradient norm :     0.0306951 Eh/a0  converged?    E=F G=F D=F
   time step     :     0.3327500 fs     power     :   0.1068558E-07
   step length   :     0.0659671 a0     speed     :   0.4795393E-02

........................................................................
.............................. CYCLE   51 ..............................
........................................................................

 iter      E             dE          RMSdq      gap      omega  full diag
   1  -3772.1078748 -0.377211E+04  0.302E-03   10.99       0.0  T
   2  -3772.1078758 -0.935197E-06  0.173E-03   10.99       1.0  T
   3  -3772.1078757  0.219907E-07  0.338E-04   10.99       5.0  T
   4  -3772.1078759 -0.152903E-06  0.829E-05   10.99      20.3  T
     SCC iter.                  ...        5 min,  1.919 sec
     gradient                   ...        4 min, 51.564 sec
 * total energy  : -3716.1906458 Eh     change    :  -0.4913304E-03 Eh
   gradient norm :     0.0325010 Eh/a0  converged?    E=F G=F D=F
   time step     :     0.3660250 fs     power     :   0.1384527E-07
   step length   :     0.0678303 a0     speed     :   0.4482580E-02

........................................................................
.............................. CYCLE   52 ..............................
........................................................................

 iter      E             dE          RMSdq      gap      omega  full diag
   1  -3772.0837944 -0.377208E+04  0.306E-03   10.99       0.0  T
   2  -3772.0837955 -0.112749E-05  0.175E-03   10.99       1.0  T
   3  -3772.0837955  0.143355E-07  0.329E-04   10.99       5.1  T
   4  -3772.0837956 -0.109648E-06  0.699E-05   10.99      24.1  T
     SCC iter.                  ...        4 min, 57.479 sec
     gradient                   ...        4 min, 52.395 sec
 * total energy  : -3716.1913149 Eh     change    :  -0.6691376E-03 Eh
   gradient norm :     0.0314179 Eh/a0  converged?    E=F G=F D=F
   time step     :     0.4026275 fs     power     :   0.1861412E-07
   step length   :     0.0705583 a0     speed     :   0.4238962E-02

........................................................................
.............................. CYCLE   53 ..............................
........................................................................

 iter      E             dE          RMSdq      gap      omega  full diag
   1  -3772.0647511 -0.377206E+04  0.333E-03   11.00       0.0  T
   2  -3772.0647522 -0.119514E-05  0.193E-03   11.00       1.0  T
   3  -3772.0647522  0.180898E-08  0.306E-04   11.00       5.5  T
   4  -3772.0647523 -0.823889E-07  0.630E-05   11.00      26.7  T
     SCC iter.                  ...        4 min, 55.820 sec
     gradient                   ...        4 min, 52.492 sec
 * total energy  : -3716.1921542 Eh     change    :  -0.8392875E-03 Eh
   gradient norm :     0.0279281 Eh/a0  converged?    E=F G=F D=F
   time step     :     0.4428903 fs     power     :   0.2105372E-07
   step length   :     0.0746778 a0     speed     :   0.4078596E-02

........................................................................
.............................. CYCLE   54 ..............................
........................................................................

 iter      E             dE          RMSdq      gap      omega  full diag
   1  -3772.0557031 -0.377206E+04  0.371E-03   11.00       0.0  T
   2  -3772.0557041 -0.100618E-05  0.219E-03   11.00       1.0  T
   3  -3772.0557041 -0.762975E-08  0.281E-04   11.00       6.0  T
   4  -3772.0557042 -0.948557E-07  0.755E-05   11.00      22.3  T
     SCC iter.                  ...        4 min, 58.574 sec
     gradient                   ...        5 min,  1.122 sec
 * total energy  : -3716.1930499 Eh     change    :  -0.8957686E-03 Eh
   gradient norm :     0.0239539 Eh/a0  converged?    E=F G=F D=F
   time step     :     0.4871793 fs     power     :   0.1911214E-07
   step length   :     0.0801942 a0     speed     :   0.3981704E-02

........................................................................
.............................. CYCLE   55 ..............................
........................................................................

 iter      E             dE          RMSdq      gap      omega  full diag
   1  -3772.0606130 -0.377206E+04  0.395E-03   11.00       0.0  T
   2  -3772.0606138 -0.788472E-06  0.234E-03   11.00       1.0  T
   3  -3772.0606138  0.157052E-07  0.308E-04   11.00       5.5  T
   4  -3772.0606139 -0.171003E-06  0.101E-04   11.00      16.7  T
     SCC iter.                  ...        4 min, 59.217 sec
     gradient                   ...        4 min, 50.209 sec
 * total energy  : -3716.1938590 Eh     change    :  -0.8090649E-03 Eh
   gradient norm :     0.0221840 Eh/a0  converged?    E=F G=F D=F
   time step     :     0.5358972 fs     power     :   0.1402448E-07
   step length   :     0.0864367 a0     speed     :   0.3901502E-02

........................................................................
.............................. CYCLE   56 ..............................
........................................................................

 iter      E             dE          RMSdq      gap      omega  full diag
   1  -3772.0788601 -0.377208E+04  0.386E-03   11.01       0.0  T
   2  -3772.0788612 -0.109893E-05  0.228E-03   11.01       1.0  T
   3  -3772.0788612  0.290552E-07  0.367E-04   11.01       4.6  T
   4  -3772.0788614 -0.215398E-06  0.115E-04   11.01      14.6  T
     SCC iter.                  ...        4 min, 56.435 sec
     gradient                   ...        4 min, 52.125 sec
 * total energy  : -3716.1945336 Eh     change    :  -0.6745409E-03 Eh
   gradient norm :     0.0234387 Eh/a0  converged?    E=F G=F D=F
   time step     :     0.5894869 fs     power     :   0.9639049E-08
   step length   :     0.0923079 a0     speed     :   0.3787737E-02

........................................................................
.............................. CYCLE   57 ..............................
........................................................................

 iter      E             dE          RMSdq      gap      omega  full diag
   1  -3772.1033175 -0.377210E+04  0.355E-03   11.01       0.0  T
   2  -3772.1033192 -0.169249E-05  0.209E-03   11.01       1.0  T
   3  -3772.1033192 -0.108303E-07  0.399E-04   11.01       4.2  T
   4  -3772.1033194 -0.147251E-06  0.110E-04   11.01      15.2  T
     SCC iter.                  ...        4 min, 58.021 sec
     gradient                   ...        4 min, 49.131 sec
 * total energy  : -3716.1951880 Eh     change    :  -0.6544145E-03 Eh
   gradient norm :     0.0257469 Eh/a0  converged?    E=F G=F D=F
   time step     :     0.6484356 fs     power     :   0.9135091E-08
   step length   :     0.0976294 a0     speed     :   0.3641908E-02

........................................................................
.............................. CYCLE   58 ..............................
........................................................................

 iter      E             dE          RMSdq      gap      omega  full diag
   1  -3772.1235626 -0.377212E+04  0.337E-03   11.01       0.0  T
   2  -3772.1235641 -0.153697E-05  0.198E-03   11.01       1.0  T
   3  -3772.1235642 -0.377927E-07  0.355E-04   11.01       4.7  T
   4  -3772.1235642 -0.842479E-07  0.924E-05   11.01      18.2  T
     SCC iter.                  ...        4 min, 54.679 sec
     gradient                   ...        4 min, 50.393 sec
 * total energy  : -3716.1960287 Eh     change    :  -0.8407224E-03 Eh
   gradient norm :     0.0262321 Eh/a0  converged?    E=F G=F D=F
   time step     :     0.7132792 fs     power     :   0.1243410E-07
   step length   :     0.1038661 a0     speed     :   0.3522325E-02

........................................................................
.............................. CYCLE   59 ..............................
........................................................................

 iter      E             dE          RMSdq      gap      omega  full diag
   1  -3772.1296734 -0.377213E+04  0.365E-03   11.02       0.0  T
   2  -3772.1296742 -0.802161E-06  0.213E-03   11.02       1.0  T
   3  -3772.1296743 -0.610794E-07  0.287E-04   11.02       5.9  T
   4  -3772.1296744 -0.790546E-07  0.965E-05   11.02      17.4  T
     SCC iter.                  ...        5 min,  1.036 sec
     gradient                   ...        4 min, 49.746 sec
 * total energy  : -3716.1971522 Eh     change    :  -0.1123527E-02 Eh
   gradient norm :     0.0230234 Eh/a0  converged?    E=F G=F D=F
   time step     :     0.7846071 fs     power     :   0.1542440E-07
   step length   :     0.1129569 a0     speed     :   0.3482377E-02

........................................................................
.............................. CYCLE   60 ..............................
........................................................................

 iter      E             dE          RMSdq      gap      omega  full diag
   1  -3772.1156408 -0.377212E+04  0.429E-03   11.02       0.0  T
   2  -3772.1156421 -0.130619E-05  0.250E-03   11.02       1.0  T
   3  -3772.1156422 -0.800605E-07  0.395E-04   11.02       4.3  T
   4  -3772.1156424 -0.142437E-06  0.121E-04   11.02      13.9  T
     SCC iter.                  ...        4 min, 55.670 sec
     gradient                   ...        4 min, 50.146 sec
 * total energy  : -3716.1983536 Eh     change    :  -0.1201383E-02 Eh
   gradient norm :     0.0198803 Eh/a0  converged?    E=F G=F D=F
   time step     :     0.8630678 fs     power     :   0.1328700E-07
   step length   :     0.1253353 a0     speed     :   0.3512719E-02

........................................................................
.............................. CYCLE   61 ..............................
........................................................................

 iter      E             dE          RMSdq      gap      omega  full diag
   1  -3772.0856877 -0.377209E+04  0.452E-03   11.02       0.0  T
   2  -3772.0856903 -0.256354E-05  0.261E-03   11.02       1.0  T
   3  -3772.0856904 -0.912592E-07  0.515E-04   11.02       3.3  T
   4  -3772.0856906 -0.156821E-06  0.125E-04   11.02      13.5  T
     SCC iter.                  ...        4 min, 59.909 sec
     gradient                   ...        4 min, 50.145 sec
 * total energy  : -3716.1994492 Eh     change    :  -0.1095593E-02 Eh
   gradient norm :     0.0226417 Eh/a0  converged?    E=F G=F D=F
   time step     :     0.9493746 fs     power     :   0.1047034E-07
   step length   :     0.1384720 a0     speed     :   0.3528088E-02

........................................................................
.............................. CYCLE   62 ..............................
........................................................................

 iter      E             dE          RMSdq      gap      omega  full diag
   1  -3772.0578001 -0.377206E+04  0.419E-03   11.03       0.0  T
   2  -3772.0578019 -0.179988E-05  0.240E-03   11.03       1.0  T
   3  -3772.0578020 -0.880764E-07  0.446E-04   11.03       3.8  T
   4  -3772.0578021 -0.124850E-06  0.116E-04   11.03      14.5  T
     SCC iter.                  ...        5 min,  0.724 sec
     gradient                   ...        4 min, 50.649 sec
 * total energy  : -3716.2007544 Eh     change    :  -0.1305229E-02 Eh
   gradient norm :     0.0220433 Eh/a0  converged?    E=F G=F D=F
   time step     :     1.0443120 fs     power     :   0.1313514E-07
   step length   :     0.1519444 a0     speed     :   0.3519408E-02

........................................................................
.............................. CYCLE   63 ..............................
[...]
  3287   6 C     3288   6 C                                       1.5278849
  3287   6 C     3289   6 C                                       1.5335338
  3289   6 C     3290   6 C                                       1.5300253
  3290   6 C     3291   6 C                                       1.5281939
  3290   6 C     3292   6 C                                       1.5343762
  3292   6 C     3293   6 C                                       1.5341724
  3293   6 C     3294   6 C                                       1.5284917
  3293   6 C     3295   6 C                                       1.5353649
  3295   6 C     3296   6 C                                       1.5321639
  3296   6 C     3297   6 C                                       1.5275974
  3296   6 C     3298   6 C                                       1.5361628
  3298   6 C     3299   6 C                                       1.5333969
  3299   6 C     3300   6 C                                       1.5263425
  3299   6 C     3301   6 C                                       1.5342899
  3301   6 C     3302   6 C                                       1.5400496
  3302   6 C     3303   6 C                                       1.5297384
  3302   6 C     3304   6 C                                       1.5340011
  3304   6 C     3305   6 C                                       1.5357921
  3305   6 C     3306   6 C                                       1.5266174
  3305   6 C     3307   6 C                                       1.5358458
  3307   6 C     3308   6 C                                       1.5357106
  3308   6 C     3309   6 C                                       1.5298520
  3308   6 C     3310   6 C                                       1.5394460
  3310   6 C     3311   6 C                                       1.5348012
  3311   6 C     3312   6 C                                       1.5271244
  3311   6 C     3313   6 C                                       1.5383137
  3313   6 C     3314   6 C                                       1.5333649
  3314   6 C     3315   6 C                                       1.5280759
  3314   6 C     3316   6 C                                       1.5345289
  3316   6 C     3317   6 C                                       1.5317409
  3317   6 C     3318   6 C                                       1.5282425
  3317   6 C     3319   6 C                                       1.5363618
  3319   6 C     3320   6 C                                       1.5331123
  3320   6 C     3321   6 C                                       1.5273361
  3320   6 C     3322   6 C                                       1.5361972
  3322   6 C     3323   6 C                                       1.5321524
  3323   6 C     3324   6 C                                       1.5289662
  3323   6 C     3325   6 C                                       1.5347373
  3325   6 C     3326   6 C                                       1.5354726
  3326   6 C     3327   6 C                                       1.5253008
  3326   6 C     3328   6 C                                       1.5362095
  3328   6 C     3329   6 C                                       1.5339497
  3329   6 C     3330   6 C                                       1.5286687
  3329   6 C     3331   6 C                                       1.5320516
  3332   6 C     3333   6 C                                       1.5277600
  3332   6 C     3334   6 C                                       1.5345791
  3334   6 C     3335   6 C                                       1.5355251
  3335   6 C     3336   6 C                                       1.5258521
  3335   6 C     3337   6 C                                       1.5340114
  3337   6 C     3338   6 C                                       1.5347536
  3338   6 C     3339   6 C                                       1.5297106
  3338   6 C     3340   6 C                                       1.5328486
  3341   6 C     3342   6 C                                       1.5291451
  3341   6 C     3343   6 C                                       1.5337086
  3343   6 C     3344   6 C                                       1.5345354
  3344   6 C     3345   6 C                                       1.5272480
  3344   6 C     3346   6 C                                       1.5357479
  3346   6 C     3347   6 C                                       1.5364155
  3347   6 C     3348   6 C                                       1.5284564
  3347   6 C     3349   6 C                                       1.5324191
  3349   6 C     3350   6 C                                       1.5339320
  3350   6 C     3351   6 C                                       1.5279087
  3350   6 C     3352   6 C                                       1.5355168
  3352   6 C     3353   6 C                                       1.5264155
  3353   6 C     3354   6 C                                       1.5240856
  3265   6 C     3355   1 H                                       1.0878790
  3265   6 C     3356   1 H                                       1.0863882
  3265   6 C     3357   1 H                                       1.0885050
  3354   6 C     3358   1 H                                       1.0883259
  3354   6 C     3359   1 H                                       1.0885924
  3354   6 C     3360   1 H                                       1.0876279
  3352   6 C     3361   1 H                                       1.0939778
  3352   6 C     3362   1 H                                       1.0926461
  3349   6 C     3363   1 H                                       1.0910844
  3349   6 C     3364   1 H                                       1.0936077
  3347   6 C     3365   1 H                                       1.0935887
  3348   6 C     3366   1 H                                       1.0868546
  3348   6 C     3367   1 H                                       1.0876173
  3348   6 C     3368   1 H                                       1.0879175
  3346   6 C     3369   1 H                                       1.0928783
  3346   6 C     3370   1 H                                       1.0920706
  3343   6 C     3371   1 H                                       1.0934219
  3343   6 C     3372   1 H                                       1.0938653
  3350   6 C     3373   1 H                                       1.0956552
  3351   6 C     3374   1 H                                       1.0868958
  3351   6 C     3375   1 H                                       1.0872276
  3351   6 C     3376   1 H                                       1.0876460
  3344   6 C     3377   1 H                                       1.0931837
  3345   6 C     3378   1 H                                       1.0872928
  3345   6 C     3379   1 H                                       1.0873425
  3345   6 C     3380   1 H                                       1.0890257
  3341   6 C     3381   1 H                                       1.0940747
  3342   6 C     3382   1 H                                       1.0888241
  3342   6 C     3383   1 H                                       1.0889762
  3342   6 C     3384   1 H                                       1.0879744
  3340   6 C     3385   1 H                                       1.0893721
  3340   6 C     3386   1 H                                       1.0921045
  3338   6 C     3387   1 H                                       1.0940754
  3339   6 C     3388   1 H                                       1.0876579
  3339   6 C     3389   1 H                                       1.0881397
  3339   6 C     3390   1 H                                       1.0886801
  3337   6 C     3391   1 H                                       1.0936690
  3337   6 C     3392   1 H                                       1.0941302
  3335   6 C     3393   1 H                                       1.0939720
  3336   6 C     3394   1 H                                       1.0876985
  3336   6 C     3395   1 H                                       1.0869223
  3336   6 C     3396   1 H                                       1.0866156
  3334   6 C     3397   1 H                                       1.0931681
  3334   6 C     3398   1 H                                       1.0929333
  3332   6 C     3399   1 H                                       1.0949079
  3333   6 C     3400   1 H                                       1.0885966
  3333   6 C     3401   1 H                                       1.0873705
  3333   6 C     3402   1 H                                       1.0868140
  3331   6 C     3403   1 H                                       1.0901592
  3331   6 C     3404   1 H                                       1.0924653
  3329   6 C     3405   1 H                                       1.0951927
  3330   6 C     3406   1 H                                       1.0882071
  3330   6 C     3407   1 H                                       1.0865299
  3330   6 C     3408   1 H                                       1.0887939
  3328   6 C     3409   1 H                                       1.0934185
  3328   6 C     3410   1 H                                       1.0938668
  3326   6 C     3411   1 H                                       1.0940502
  3327   6 C     3412   1 H                                       1.0872470
  3327   6 C     3413   1 H                                       1.0872416
  3327   6 C     3414   1 H                                       1.0880894
  3325   6 C     3415   1 H                                       1.0934844
  3325   6 C     3416   1 H                                       1.0931846
  3323   6 C     3417   1 H                                       1.0940958
  3324   6 C     3418   1 H                                       1.0876437
  3324   6 C     3419   1 H                                       1.0859259
  3324   6 C     3420   1 H                                       1.0873942
  3322   6 C     3421   1 H                                       1.0927619
  3322   6 C     3422   1 H                                       1.0939814
  3320   6 C     3423   1 H                                       1.0932839
  3321   6 C     3424   1 H                                       1.0878106
  3321   6 C     3425   1 H                                       1.0878711
  3321   6 C     3426   1 H                                       1.0866623
  3319   6 C     3427   1 H                                       1.0918917
  3319   6 C     3428   1 H                                       1.0942752
  3317   6 C     3429   1 H                                       1.0929696
  3318   6 C     3430   1 H                                       1.0872952
  3318   6 C     3431   1 H                                       1.0876613
  3318   6 C     3432   1 H                                       1.0886139
  3316   6 C     3433   1 H                                       1.0916351
  3316   6 C     3434   1 H                                       1.0942712
  3314   6 C     3435   1 H                                       1.0947911
  3315   6 C     3436   1 H                                       1.0879566
  3315   6 C     3437   1 H                                       1.0877061
  3315   6 C     3438   1 H                                       1.0872051
  3313   6 C     3439   1 H                                       1.0916498
  3313   6 C     3440   1 H                                       1.0923053
  3311   6 C     3441   1 H                                       1.0957197
  3312   6 C     3442   1 H                                       1.0885744
  3312   6 C     3443   1 H                                       1.0875164
  3312   6 C     3444   1 H                                       1.0869249
  3310   6 C     3445   1 H                                       1.0920868
  3310   6 C     3446   1 H                                       1.0928366
  3308   6 C     3447   1 H                                       1.0942304
  3309   6 C     3448   1 H                                       1.0887919
  3309   6 C     3449   1 H                                       1.0887935
  3309   6 C     3450   1 H                                       1.0862435
  3307   6 C     3451   1 H                                       1.0935095
  3307   6 C     3452   1 H                                       1.0936961
  3305   6 C     3453   1 H                                       1.0944210
  3306   6 C     3454   1 H                                       1.0887716
  3306   6 C     3455   1 H                                       1.0861225
  3306   6 C     3456   1 H                                       1.0869749
  3304   6 C     3457   1 H                                       1.0939029
  3304   6 C     3458   1 H                                       1.0940004
  3302   6 C     3459   1 H                                       1.0937534
  3303   6 C     3460   1 H                                       1.0883681
  3303   6 C     3461   1 H                                       1.0878358
  3303   6 C     3462   1 H                                       1.0886615
  3301   6 C     3463   1 H                                       1.0918682
  3301   6 C     3464   1 H                                       1.0914129
  3299   6 C     3465   1 H                                       1.0941846
  3300   6 C     3466   1 H                                       1.0888400
  3300   6 C     3467   1 H                                       1.0869536
  3300   6 C     3468   1 H                                       1.0877999
  3298   6 C     3469   1 H                                       1.0938628
  3298   6 C     3470   1 H                                       1.0939861
  3296   6 C     3471   1 H                                       1.0935253
  3297   6 C     3472   1 H                                       1.0866330
  3297   6 C     3473   1 H                                       1.0884210
  3297   6 C     3474   1 H                                       1.0884444
  3295   6 C     3475   1 H                                       1.0922219
  3295   6 C     3476   1 H                                       1.0923231
  3293   6 C     3477   1 H                                       1.0942050
  3294   6 C     3478   1 H                                       1.0877475
  3294   6 C     3479   1 H                                       1.0881248
  3294   6 C     3480   1 H                                       1.0859609
  3292   6 C     3481   1 H                                       1.0923171
  3292   6 C     3482   1 H                                       1.0933244
  3290   6 C     3483   1 H                                       1.0920287
  3291   6 C     3484   1 H                                       1.0869455
  3291   6 C     3485   1 H                                       1.0882140
  3291   6 C     3486   1 H                                       1.0882036
  3289   6 C     3487   1 H                                       1.0913523
  3289   6 C     3488   1 H                                       1.0939265
  3287   6 C     3489   1 H                                       1.0925938
  3288   6 C     3490   1 H                                       1.0888315
  3288   6 C     3491   1 H                                       1.0877670
  3288   6 C     3492   1 H                                       1.0890439
  3286   6 C     3493   1 H                                       1.0901127
  3286   6 C     3494   1 H                                       1.0923943
  3284   6 C     3495   1 H                                       1.0953660
  3285   6 C     3496   1 H                                       1.0879009
  3285   6 C     3497   1 H                                       1.0869532
  3285   6 C     3498   1 H                                       1.0882328
  3283   6 C     3499   1 H                                       1.0913679
  3283   6 C     3500   1 H                                       1.0950596
  3281   6 C     3501   1 H                                       1.0940152
  3282   6 C     3502   1 H                                       1.0852858
  3282   6 C     3503   1 H                                       1.0867603
  3282   6 C     3504   1 H                                       1.0886060
  3280   6 C     3505   1 H                                       1.0919993
  3280   6 C     3506   1 H                                       1.0941857
  3278   6 C     3507   1 H                                       1.0925722
  3279   6 C     3508   1 H                                       1.0884499
  3279   6 C     3509   1 H                                       1.0858183
  3279   6 C     3510   1 H                                       1.0882030
  3277   6 C     3511   1 H                                       1.0916099
  3277   6 C     3512   1 H                                       1.0940527
  3275   6 C     3513   1 H                                       1.0934299
  3276   6 C     3514   1 H                                       1.0879683
  3276   6 C     3515   1 H                                       1.0883609
  3276   6 C     3516   1 H                                       1.0864828
  3274   6 C     3517   1 H                                       1.0941868
  3274   6 C     3518   1 H                                       1.0943741
  3272   6 C     3519   1 H                                       1.0929424
  3273   6 C     3520   1 H                                       1.0866354
  3273   6 C     3521   1 H                                       1.0886458
  3273   6 C     3522   1 H                                       1.0870835
  3271   6 C     3523   1 H                                       1.0911948
  3271   6 C     3524   1 H                                       1.0939165
  3269   6 C     3525   1 H                                       1.0977246
  3270   6 C     3526   1 H                                       1.0880227
  3270   6 C     3527   1 H                                       1.0890023
  3270   6 C     3528   1 H                                       1.0853651
  3268   6 C     3529   1 H                                       1.0929709
  3268   6 C     3530   1 H                                       1.0933864
  3266   6 C     3531   1 H                                       1.0948165
  3267   6 C     3532   1 H                                       1.0878890
  3267   6 C     3533   1 H                                       1.0874199
  3267   6 C     3534   1 H                                       1.0873386
  3353   6 C     3535   1 H                                       1.0906644
  3353   6 C     3536   1 H                                       1.0911798

 * 2 distinct bonds (by element types)

   Z      Z             #   av. dist./Å        max./Å        min./Å
   1 H    6 C        2366     1.0903177     1.0984921     1.0845307
   6 C    6 C        1117     1.5324296     1.5401222     1.5235740


optimized geometry written to: xtbopt.xyz


           -------------------------------------------------
          | TOTAL ENERGY            -3716.270841778583 Eh   |
          | GRADIENT NORM               0.000757529344 Eh/α |
          | HOMO-LUMO GAP              11.198737166226 eV   |
           -------------------------------------------------

------------------------------------------------------------------------
 * finished run on 2024/06/25 at 12:49:08.129     
------------------------------------------------------------------------
 total:
 * wall-time:     4 d, 20 h,  4 min, 17.721 sec
 *  cpu-time:    24 d, 22 h,  0 min, 55.804 sec
 * ratio c/w:     5.152 speedup
 SCF:
 * wall-time:     0 d,  0 h,  9 min, 12.740 sec
 *  cpu-time:     0 d,  0 h, 47 min, 33.296 sec
 * ratio c/w:     5.162 speedup
 ANC optimizer:
 * wall-time:     4 d, 19 h, 53 min, 37.427 sec
 *  cpu-time:    24 d, 21 h, 11 min, 38.120 sec
 * ratio c/w:     5.153 speedup

