3258
 energy: -3427.509176025535 gnorm: 0.000668591990 xtb: 6.6.1 (8d0f1dd)
C          124.53140757385228       99.24172952286953      107.60336792115342
C          124.12246540664569       99.37443762971732      109.06551603029260
C          122.71627530506915       98.83198312429090      109.30359928492916
C          122.26348724259695       98.97154690135007      110.75448934049773
C          120.84328393080997       98.44638219727878      110.95210639028888
C          120.36244947615886       98.61264823198563      112.39035217523951
C          119.00094288695597       97.96784569260998      112.65303887853702
C          117.84449795984432       98.51950021163258      111.81673001413294
C          117.61213979412527      100.02536749049975      111.94469120922895
C          117.20516997076867      100.45499741251309      113.35267468982680
C          116.88890612646767      101.94793435992617      113.45241048653878
C          118.13177633265096      102.83292232401737      113.38560210272534
C          117.78396834775212      104.31728820523682      113.46565422182549
C          119.02888772704920      105.19978721482653      113.45283857438575
C          118.68775496314522      106.68744026581616      113.42879421363928
C          119.93583160770345      107.56358651504591      113.37571744863216
C          119.60858117705703      109.05435149850086      113.32747631501039
C          120.86706076198179      109.90356849077743      113.17122643903078
C          120.56885525772704      111.39983017699609      113.10642351916171
C          121.85555101523491      112.21959855815767      113.04447406987052
C          121.63597468338332      113.73010399589123      113.12285269329338
C          121.05772869273775      114.33400286656921      111.84765565521391
C          120.90626136637501      115.84937115893803      111.95322568532188
C          120.30401346220363      116.45053160371718      110.68737977966504
C          120.11920141199974      117.96263018765661      110.77884720133636
C          119.39340019682389      118.51078910133565      109.55330623183947
C          119.20120315473567      120.02324455141533      109.60572294218031
C          118.36487281734401      120.52344361893539      108.43156916775050
C          118.18904971279566      122.03933497015244      108.42845016608840
C          117.25497932124648      122.48666885034729      107.30754550569520
C          117.13416566889404      124.00377062667202      107.20766952730510
C          116.17119327255985      124.42726947973318      106.10177035367842
C          116.11374956510782      125.93863170375644      105.87345615838748
C          117.45481592569331      126.58764064483704      105.52196453176362
C          118.14418551069018      125.93815323729886      104.32519748308340
C          119.47613588218366      126.61030954994499      103.99750794155166
C          120.25046772784684      125.89892420153022      102.87978304950678
C          121.29718188731958      124.89324190780128      103.36437949157769
C          120.71580180347269      123.68181327001054      104.08781112277860
C          121.77026958089608      122.60786078887270      104.34430817717627
C          121.19245535316192      121.40843060171861      105.09007172087260
C          122.20974885995447      120.28294615654706      105.25412924756941
C          121.64908285153010      119.10715774878918      106.04991642117689
C          122.63247691293287      117.94253177447177      106.12041869975414
C          122.15126181524131      116.80586743428323      107.02095805445089
C          123.12174196517428      115.62964568229832      106.97473074979798
C          122.85536783723693      114.52568390611830      107.99852061920832
C          121.50431575526817      113.81670120932107      107.86308735521395
C          121.57278322838471      112.38409845147989      108.39061976464023
C          120.22612018603490      111.66713807619647      108.34556589864000
C          120.32548516747612      110.22273764130986      108.83333057737008
C          118.96307747208023      109.53265302990764      108.87475014617422
C          118.99235290941598      108.16806789253495      109.56438465123915
C          119.64269157849856      107.05277899303300      108.74902471873216
C          119.64610324738926      105.73939283008659      109.53031973730225
C          120.08955010624028      104.53990235208602      108.69440223709209
C          119.88140319511044      103.22341380783844      109.44321978923836
C          120.34509402664285      101.97830970719561      108.67417339170517
C          119.24821016653354      101.24669727893794      107.89523374192801
C          118.65605747054482      102.04687546838616      106.73847113547966
C          117.64247393470227      101.23513146168456      105.93197432359183
C          116.82030000300117      102.09774999359108      104.97416362741180
C          117.62675804645475      102.67169803009332      103.81230333584509
C          116.82711933831401      103.71058733346787      103.02986927139999
C          117.64709244688862      104.35206353045311      101.91351671445817
C          116.92962982222060      105.54808831724297      101.29372415048228
C          117.77623825192026      106.31231474496472      100.27454457543082
C          118.09241278359244      105.53646852508304       98.99594042606014
C          116.85908755002430      105.30459134144537       98.12790429573748
C          117.15100618115424      104.53041860739847       96.84186048869070
C          117.73818776766510      103.13242451179441       97.05277193657045
C          116.84549748362767      102.23041527259035       97.90274706343679
C          117.33521447337976      100.78336352105654       97.98589970492246
C          118.57897957034500      100.62720192333158       98.85857533670986
C          119.14707128430018       99.20676252583522       98.87141295901193
C          118.23728865881058       98.14261825271338       99.48919704780707
C          118.00495124833547       98.33326077639657      100.98622507636043
C          117.15962240643834       97.20423116568367      101.57317156979992
C          116.91272011708575       97.35035728568266      103.07681059525470
C          115.96623073133198       98.49499061893171      103.44071589355268
C          114.50005776911743       98.19188583054743      103.12217795882732
C          113.67164009159622       99.46239678588273      102.92561761103228
C          113.90681292562192      100.09609628773360      101.55673957330684
C          113.22882716272744      101.45475901612190      101.41080565110910
C          113.43159865073416      102.02979225830015      100.01209120716668
C          112.90482070411696      103.45502000449044       99.87595413242354
C          113.05434255396081      103.98567005961368       98.45276034436560
C          112.68110157948146      105.45991565307462       98.33470103029482
C          112.88031453224608      105.99154583737472       96.91792508324150
C          112.52946635334013      107.47220762086063       96.80234476552704
C          112.80756456850786      108.02941881929576       95.40798344881631
C          112.76331707951606      109.55397305774422       95.38250055655872
C          113.09677293173633      110.12976724295721       94.00733614261624
C          113.42332384083544      111.61767018390361       94.09053890625583
C          113.69618686902055      112.25276262585137       92.72966372304637
C          114.20813702382755      113.68254129253448       92.88984491845898
C          114.31895842614747      114.42955641917288       91.56303154729213
C          115.04857850503969      115.76906385345647       91.68932376274415
C          114.34738701997603      116.75648337426821       92.61930667967739
C          115.01256542900204      118.13137406902068       92.61218892153558
C          114.40653993352504      119.07804529176023       93.65163424753065
C          114.93209633009607      118.82249626207678       95.06341397597764
C          114.20201909676996      119.66665682619788       96.10694268381066
C          114.94514504579769      119.76408203451780       97.43894603348232
C          115.16852012807779      118.41268194259500       98.11210582288065
C          115.69470374440075      118.57349325981420       99.53651880614116
C          115.92481314652883      117.24269418735879      100.25293469481973
C          117.15830412860944      116.49546677245905       99.75577726014855
C          117.32485948251689      115.13570823616602      100.42616327746367
C          118.52991512320551      114.37776291076662       99.87605101203201
C          118.65264136472825      112.97214861513071      100.45642206285967
C          119.86493428680541      112.22781097977855       99.90295271673406
C          119.96512216621328      110.80221614793274      100.44438205232971
C          121.33734134917981      110.16866946636354      100.21699337633450
C          121.67451479870746      109.84857526635047       98.76017857907981
C          120.99702079107304      108.58145302859332       98.24376458605393
C          121.44641476613610      108.23578033012241       96.82539507034564
C          120.93173838658062      106.87461397244407       96.36612316735787
C          121.39720411542859      106.52580620967601       94.95499643834795
C          120.95999297730090      105.12573315745942       94.54083663859515
H          120.99346354537293      107.25673687112214       94.25003876099444
H          122.48742153505967      106.59027931069340       94.90888020262859
H          121.28271020983932      106.10424008099508       97.05837429958979
H          119.83958205012374      106.87094075867337       96.39225354440575
H          121.09839390556218      109.00658682527546       96.13338567355078
H          122.53922240028751      108.23059773033984       96.78644546283415
H          121.24731611825295      107.74975820375403       98.90857029992547
H          119.91273463646712      108.70413813711447       98.26013534106096
H          121.40820279483550      110.69384847269806       98.12280829981903
H          122.75715921784204      109.71072027739062       98.68349270125078
H          122.09778071613863      110.84928213110094      100.60857498754103
H          121.40260702870579      109.24384260883230      100.79524963098478
H          119.77582843383536      110.82607704391555      101.52072130814666
H          119.18852258863681      110.18333086638336       99.99493738217377
H          119.80555362300335      112.20768015048675       98.81197029054769
H          120.76961523042314      112.78056896335438      100.17180354811310
H          118.73843340912435      113.03707793921760      101.54307237477207
H          117.74439738355896      112.40578970232849      100.23467552372459
H          118.44060720520663      114.31020950054045       98.78831605163110
H          119.44158104772605      114.94050141489302      100.09181877200793
H          117.43920179667279      115.27235700714752      101.50470698250955
H          116.42001410295519      114.54389833908233      100.26677522927507
H          117.08841531414060      116.34534553251757       98.67764570363647
H          118.04835114393627      117.10135425219421       99.94280105956496
H          116.03873965279779      117.43311537320464      101.32264684470100
H          115.04304536098509      116.61058179279243      100.12397296992701
H          116.62902184186065      119.14021904463114       99.51678379451560
H          114.96993803057262      119.15842639644612      100.10824087883798
H          114.22443901938726      117.86417094050221       98.13881989976147
H          115.87648354421216      117.83265573312796       97.51973326693866
H          115.91067138066819      120.24935656162242       97.27834112198538
H          114.36847486145808      120.40575939692938       98.11140333855460
H          114.06286142682008      120.67720727350455       95.71088845475042
H          113.20892587527570      119.24422453270188       96.27708138052616
H          114.82316599569263      117.76622769478610       95.31133929720011
H          115.99860667159084      119.06041342788994       95.08703332162538
H          114.63605750952777      120.11076713383153       93.37561774639909
H          113.31865350955893      118.97235377231364       93.63956797856662
H          116.08228897286661      118.02087220837950       92.80667786375834
H          114.90480932610100      118.56882608360765       91.61623202708448
H          113.30581891791807      116.86659197946472       92.30675114505259
H          114.35170391246157      116.36320577126284       93.63598007444710
H          116.06356109975592      115.59179019351392       92.05495158765650
H          115.13333701507906      116.21679738805993       90.69525462826674
H          114.86042242186822      113.80467622293268       90.84730463119881
H          113.31823607390638      114.59963434765446       91.15670599130858
H          113.53123831046646      114.22098937102483       93.55553067612598
H          115.19172395809115      113.65151090881852       93.36387778830870
H          114.43685443171339      111.65870569434762       92.18744856436999
H          112.77903103401525      112.25175625227948       92.13511301421094
H          112.59618430169789      112.14511535476913       94.57083509295182
H          114.30638514514831      111.74811369052135       94.72144558575910
H          113.95994704724455      109.59984385765635       93.59543045063305
H          112.25802034252555      109.97168432426800       93.32568206802470
H          111.77539851684440      109.89950404314496       95.69629156765491
H          113.48997163464367      109.93250084521324       96.10533559586354
H          113.80086185557967      107.70757042992817       95.08604452302883
H          112.08675302312177      107.62521212700118       94.69461764082970
H          111.47716277540381      107.61931749787298       97.05441223409322
H          113.11958305054635      108.03301862437173       97.52954773434148
H          113.92663741896095      105.84870818536977       96.63184509680903
H          112.26577622584558      105.41639598013825       96.22156999051421
H          111.63995263662207      105.59739413554301       98.63254127924812
H          113.30010861812157      106.04071095051322       99.02373888264719
H          114.08948740963216      103.85357569891623       98.12842111686332
H          112.42083430416572      103.40061252661951       97.78239767727686
H          111.85200811438536      103.48308167168020      100.16410809914179
H          113.44885716980319      104.10593753146249      100.56531586972787
H          114.49777270859529      102.01884925638488       99.77318437065854
H          112.92659564841256      101.38557127809806       99.28846912381191
H          112.15900485391353      101.35266547687895      101.61030757828343
H          113.63665445905471      102.14450285482393      102.15384069722832
H          114.97821674407122      100.22071116196565      101.38658631197606
H          113.53063633185583       99.42082135654195      100.78353126705179
H          112.61029772687017       99.21846007626803      103.01618475862138
H          113.91536677101588      100.17965369016075      103.71347134778256
H          114.42918749959432       97.58907132278492      102.21469726373884
H          114.07527541991199       97.59798039404698      103.93545949126216
H          116.05690854668669       98.70535673778237      104.50897333469769
H          116.27959036971797       99.39519376916549      102.91288002328886
H          116.49922219526070       96.41497339477330      103.46316409146175
H          117.87439274988095       97.51026663517590      103.56988909527603
H          116.20540124224216       97.16107753818962      101.04364304908509
H          117.67201682671150       96.25476099506155      101.39383680638362
H          118.96898406526806       98.36717565251158      101.49952796101276
H          117.50300341358087       99.28645067350847      101.15253333063578
H          117.27616078671313       98.13146572126445       98.97135037567084
H          118.70006986203744       97.16449928100538       99.32839357872901
H          119.37341871124940       98.91501331872017       97.84191580713956
H          120.09120079208824       99.21685957102484       99.42307311304413
H          119.36116124414528      101.29244174781999       98.48659672470188
H          118.34262713635366      100.93796824077056       99.87818363420760
H          116.52969466228420      100.17296612202007       98.40074981464883
H          117.54884399052648      100.41123861541907       96.97994525911669
H          116.77732280460548      102.63155346303121       98.91558753164368
H          115.84043962731660      102.23478304889991       97.47295913640521
H          117.87765257425079      102.66783540032678       96.07173545850949
H          118.72537324516564      103.22028306051686       97.50853494513356
H          116.21957008223644      104.43722354515195       96.27527337088419
H          117.84880205968877      105.10759644854136       96.22858274107486
H          116.10329920990681      104.77008664429404       98.70211566635686
H          116.43283336462795      106.27444908941727       97.85624191088748
H          118.83085100880503      106.09932719422314       98.41898910296057
H          118.54721679745134      104.58247321330390       99.26089030029698
H          117.24976737895403      107.23105399417885      100.00264352414473
H          118.71779463732192      106.60211958467545      100.75015726851190
H          115.99804148901769      105.21722914397044      100.83113445355167
H          116.66226798489207      106.23755382935980      102.09790316109948
H          118.60320364624882      104.68700637867499      102.32350714281202
H          117.86194583180308      103.60152601100432      101.15066148830650
H          115.93125882291112      103.24701305735898      102.60752520842188
H          116.49983383826040      104.49088455950127      103.72116888376053
H          118.53061419586443      103.14897320827421      104.19452723477690
H          117.93929529401441      101.86248226163455      103.14809251409946
H          115.99582463273276      101.50166115665938      104.57327506811350
H          116.38500720420389      102.92570943220957      105.53829534636530
H          118.15956117276542      100.45490646115051      105.36907828122547
H          116.95856467994157      100.74113048368636      106.62755831062337
H          118.15583169124507      102.93288320817591      107.13015721982204
H          119.46595598832180      102.37575261307781      106.08448952490701
H          119.66951536144893      100.31820617159607      107.49747169407510
H          118.44919891325613      100.96573936313929      108.58777252291736
H          121.15047817160124      102.25433704053529      107.98914573097932
H          120.76564692726785      101.26867135784597      109.39048767022550
H          120.43867338644398      103.28237592035187      110.38331210580724
H          118.82595733534575      103.11670119107062      109.70402662346075
H          119.52843154521690      104.52709680113182      107.75901686805122
H          121.14710041422470      104.64361567735942      108.43761503781646
H          120.30469389790895      105.83929106334506      110.39688442226110
H          118.63837059253481      105.55427262567660      109.91003695453276
H          119.08948983729833      106.91930032130411      107.81583312187315
H          120.66858527897141      107.32620803478503      108.49263135817841
H          119.52226652350355      108.26542948618541      110.51275652547241
H          117.96500379967264      107.86904191594648      109.79255384000861
H          118.26954293017185      110.17673888977404      109.42359727695471
H          118.57297078242955      109.42355581134979      107.85969535901776
H          121.00517592258380      109.66811698295301      108.18316782132250
H          120.75383069172520      110.21922168144206      109.83925127105867
H          119.51379397901077      112.20637443038333      108.97483844969815
H          119.83987357165253      111.68305646865684      107.32326397080440
H          122.29563040078338      111.82484686066691      107.79268968259484
H          121.93587526749040      112.39349016641863      109.42200312359941
H          120.73343698126084      114.36871543271464      108.40380787824429
H          121.20677093324184      113.78400536651338      106.81504796499871
H          123.65019111524781      113.78439976045094      107.88764423966259
H          122.94527157794083      114.94439635231451      109.00390551935223
H          123.10896431943327      115.20263124390871      105.96935871213370
H          124.13250806531843      116.01024228601968      107.15032352817940
H          122.07070124194368      117.17327777066552      108.04657781106032
H          121.15800559552245      116.48055033142741      106.70320530024136
H          122.80071363424089      117.55523082953906      105.11220769591885
H          123.59320713625701      118.30823415586468      106.49389242199506
H          121.40558303584791      119.44240924528431      107.06103826369771
H          120.72144978352527      118.76809461068055      105.58203327001205
H          122.52003713386962      119.93391235239146      104.26571758534340
H          123.09887181116675      120.66983102364186      105.75903644666720
H          120.83911805124407      121.72846487131827      106.07342536357920
H          120.32723510888141      121.03201795911069      104.53884092304429
H          122.18245484361285      122.27255472332327      103.38873101190291
H          122.59196007413277      123.03640463153363      104.92425420362227
H          120.28937703239990      123.99295926982464      105.04290509244545
H          119.91345734409150      123.25372664110300      103.48155497434638
H          121.85636039821452      124.54101850489874      102.49220228834776
H          122.00829607420057      125.40039747889121      104.02186671865003
H          119.54392168406142      125.38358918293518      102.22560480880543
H          120.76932574242105      126.64781088049905      102.27533504523720
H          119.27768458261488      127.64318856122568      103.69897296277799
H          120.09473860394641      126.64979872846588      104.89742466147570
H          118.31872308108692      124.88505600636420      104.53453036288570
H          117.48439185368312      125.99924787308898      103.45629590605608
H          117.28051738035742      127.64519980205775      105.30326802572941
H          118.12141858260780      126.54949888312817      106.38666100028351
H          115.40756544871078      126.13170907276294      105.06214000086003
H          115.72105260076951      126.42083342301190      106.77310021473792
H          116.45282659029931      123.93267002167084      105.17011142034089
H          115.16525319910045      124.08518989010400      106.35703851655590
H          116.79247827424442      124.41004728999890      108.16291649826522
H          118.12456248753404      124.41485997447985      107.00595217315936
H          117.62929453343109      122.09741893441907      106.35662766620382
H          116.26651891901946      122.05603968971498      107.47782801205082
H          117.78145285350688      122.36378172442140      109.38980963157985
H          119.16357634373392      122.51937228249973      108.30782337972310
H          118.83471463932341      120.21619728935923      107.49407456543945
H          117.37974851691187      120.05300091824203      108.47427854644394
H          118.70406934662567      120.29133914859089      110.54122566753227
H          120.17702108643653      120.51543502704619      109.60132688876872
H          119.95339100871394      118.24959570442867      108.65301927342837
H          118.41640960692153      118.03002631221160      109.47562683518275
H          119.54391593851142      118.20367970808965      111.67779697411019
H          121.09476947004617      118.44576989339956      110.87559886947584
H          120.95211933191862      116.22153683439218      109.83957835367580
H          119.33603469009678      115.98376061391883      110.49438849267433
H          120.26888949453897      116.09039815116058      112.80860742040134
H          121.88557020288843      116.29962694989850      112.13755112162626
H          121.71917861891900      114.09939491042637      111.01129186388442
H          120.08468445413349      113.89007965210631      111.63324583022533
H          120.98040884739636      113.95641342245673      113.96745569555567
H          122.59792302593782      114.21092180980769      113.31855550917396
H          122.49179497456997      111.91771084345132      113.88209596400846
H          122.39828417524430      111.97933707054150      112.12666630519436
H          119.94987013658385      111.60764607290007      112.23110351566217
H          120.00163275562304      111.69181891051161      113.99353522584778
H          121.53585182029441      109.70593412124457      114.01272063434742
H          121.39657878320823      109.60322222510436      112.26206857343453
H          118.93088665987588      109.25402738070812      112.49342749313035
H          119.09216269570057      109.33954876695518      114.24616516038179
H          120.55752875967357      107.36317322386692      114.25174831398442
H          120.52094270588225      107.29500220408202      112.49119836453141
H          118.06699566168297      106.89813492600065      112.55386693415500
H          118.10791117331078      106.93884466421707      114.31908125106656
H          119.63279976339088      104.98036401865862      114.33801261032886
H          119.63149489919201      104.95415101584548      112.57511012696385
H          117.14843123740984      104.58180188470654      112.61578723746123
H          117.21404564233892      104.50886804544800      114.37802292242925
H          118.80303974969434      102.57287893038385      114.20904278903436
H          118.66816020112581      102.64822260233710      112.45275843851475
H          116.20423852339978      102.22499610476457      112.64582030611709
H          116.37707684514081      102.13793804392536      114.39938148661273
H          116.31958950002017       99.88390282556445      113.64659246859308
H          118.00223367832793      100.21641238435318      114.05991088559929
H          118.51168768160403      100.55920199379922      111.63709784018154
H          116.81390998180470      100.30913042927124      111.25203576908285
H          118.01922738586349       98.27842860139863      110.76622950893875
H          116.93401189053753       97.99629559378535      112.12131611090292
H          119.07982173455603       96.89502307869162      112.45397899004816
H          118.76125682288330       98.08089943837885      113.71170580605808
H          121.09513376790022       98.15188999131864      113.05986012506308
H          120.32527650455791       99.67545331278222      112.63709419594076
H          120.17303486841779       98.98418038257260      110.27909641681484
H          120.80967497048046       97.38845705759431      110.67905477448996
H          122.94988426059801       98.42270902657204      111.40456239421763
H          122.30652183768383      100.02365399531790      111.04956075725923
H          122.01779807509254       99.37064591478382      108.65919114551588
H          122.68292926388905       97.77795041617455      109.01634541707271
H          124.83284765761422       98.83128618604823      109.69362527917302
H          124.15927401717593      100.42649175714386      109.35826448881046
H          123.85875994575647       99.81403240793837      106.96806381352413
H          125.54483289646755       99.60699795201486      107.45121093460884
H          124.49237804593386       98.20058653943684      107.28959470606033
H          121.29245035492286      104.90206623133851       93.52971875958562
H          121.37962405509636      104.38077332975519       95.21368166743551
H          119.87597132071410      105.03641628236051       94.57040006544412
C           94.77043459745306      118.64323788384242      112.04418128955020
C           94.65067087400084      119.63058660580289      113.19817589592191
C           95.92703860640016      119.74859947924671      114.03157091506540
C           97.08691765854570      120.39374467932623      113.27633478752284
C           98.26271815155168      120.71438243828956      114.19679212819678
C           99.39022665435536      121.42325425498103      113.45143195804907
C          100.52197917003684      121.86659711429125      114.37510150410121
C          101.58470621030870      122.66978099575715      113.62858427052350
C          102.68203204278723      123.18689197032516      114.55473530538147
C          103.69128224227701      124.07436763163214      113.82842227699138
C          104.77559448635265      124.57688713014451      114.77813523331838
C          105.77951222541761      125.53732569590633      114.14084517630970
C          106.62192802432605      124.89805536298826      113.03692802631859
C          107.89989948021503      125.68900844436709      112.76241732727155
C          108.68835456348758      125.12949484190125      111.57831973732938
C          110.14378985169192      125.58854806337661      111.57731712116522
C          110.93614354767470      125.00560658361786      110.40929307476897
C          112.42520373760067      125.32510037373167      110.52402730570607
C          113.24249863001829      124.90470579873025      109.30201781534161
C          113.29584700331633      123.39912925186727      109.04199635142834
C          114.09844763785640      122.61710053447588      110.07865311938031