3258
 energy: -3427.508955931120 gnorm: 0.000903888073 xtb: 6.6.1 (8d0f1dd)
C          124.53035635036153       99.24304113890086      107.60263185485991
C          124.12208119224329       99.37612971221729      109.06486072121560
C          122.71601588782471       98.83314986173995      109.30281198383749
C          122.26366972327104       98.97303845233019      110.75392973060919
C          120.84339627032860       98.44730359388124      110.95109233378545
C          120.36298162098308       98.61338556725201      112.38970251906787
C          119.00185208110118       97.96775130484244      112.65305450463957
C          117.84490113765445       98.51900900786210      111.81689523982695
C          117.61282887428970      100.02533616206630      111.94423105328653
C          117.20564657429033      100.45494673873770      113.35243119381465
C          116.88908777306669      101.94811787507875      113.45193227268992
C          118.13253078662501      102.83284533335406      113.38584055331168
C          117.78383664822270      104.31739810586737      113.46524662794906
C          119.02927477840657      105.19974579001978      113.45264625785612
C          118.68742403313865      106.68760929555138      113.42841217370120
C          119.93614964601473      107.56351993586681      113.37591835434601
C          119.60846210825386      109.05453657228557      113.32746864152271
C          120.86764118787400      109.90339220700000      113.17148703276573
C          120.56863131780894      111.39980472483498      113.10635687560031
C          121.85585944077197      112.21932748577952      113.04425487898710
C          121.63594411732244      113.72990562285064      113.12312250641710
C          121.05745756411825      114.33361566336087      111.84752503579944
C          120.90633641453483      115.84931141283748      111.95367105399012
C          120.30381920582479      116.45029947241548      110.68747806980421
C          120.11938007422286      117.96274978133800      110.77940284143664
C          119.39327788675742      118.51072459969109      109.55353784297424
C          119.20155108002180      120.02359980984747      109.60638293940848
C          118.36491234720351      120.52358102008307      108.43187305072375
C          118.18923012148382      122.03982289381388      108.42908360149204
C          117.25497045246500      122.48678249110314      107.30772046389264
C          117.13403998762331      124.00419502078833      107.20817781095201
C          116.17059912361273      124.42735962621668      106.10219101267140
C          116.11387925702164      125.93908877511250      105.87422238361457
C          117.45544062736582      126.58709715759208      105.52286073245334
C          118.14423851423010      125.93717057790667      104.32582079616245
C          119.47627413782533      126.60962410314058      103.99835414673302
C          120.25013771960558      125.89819720852280      102.88034533930862
C          121.29732742638940      124.89304633734183      103.36493879106114
C          120.71578631101514      123.68141302824358      104.08824083630196
C          121.77087109424687      122.60777227301460      104.34435296565314
C          121.19269251813134      121.40821334374199      105.09004442764422
C          122.21052821108842      120.28288792971757      105.25379837671200
C          121.64956976729263      119.10691437368799      106.04955707826950
C          122.63364245277468      117.94249052952640      106.11999996982507
C          122.15163821681746      116.80589561068400      107.02074466240300
C          123.12246089145044      115.62955313722408      106.97433695067292
C          122.85637114555804      114.52567568006872      107.99856252685291
C          121.50493407556152      113.81652203477726      107.86320915521384
C          121.57370449441925      112.38369365279817      108.39110643779972
C          120.22648275837312      111.66704989863170      108.34556661390933
C          120.32609696417127      110.22226176935897      108.83323844622278
C          118.96300736656764      109.53273774672738      108.87442157154580
C          118.99243915442587      108.16789593337731      109.56442198477357
C          119.64300183164880      107.05276150361050      108.74841638463745
C          119.64605045666467      105.73928451922689      109.53032848209240
C          120.08944809077815      104.53985244105155      108.69364332293520
C          119.88146099163653      103.22327908947867      109.44310753482323
C          120.34563719886194      101.97841076520622      108.67352687095051
C          119.24828622760762      101.24658800157486      107.89519606795507
C          118.65631372001029      102.04740486908364      106.73831728084730
C          117.64305704506211      101.23492273611079      105.93162403415751
C          116.82053261240200      102.09765528752473      104.97378088425909
C          117.62778976220369      102.67141808548746      103.81199420337227
C          116.82746135259373      103.71011132782641      103.02943628191291
C          117.64808650100521      104.35128562777206      101.91300847160902
C          116.93029073187819      105.54749093853242      101.29328494048521
C          117.77754190408423      106.31155358455212      100.27391516115819
C          118.09304613269315      105.53497542837196       98.99536135026673
C          116.85911110942975      105.30354579582092       98.12752091791729
C          117.15187513955021      104.52924162057481       96.84134602275331
C          117.73938851698233      103.13143305151057       97.05272175120162
C          116.84600371768383      102.22961144025385       97.90268698550115
C          117.33582525125398      100.78242059940669       97.98579780385506
C          118.57950132264384      100.62705705135923       98.85894720050281
C          119.14702748567650       99.20632437773835       98.87190725223661
C          118.23690385629030       98.14256223431632       99.48940856437355
C          118.00504060774841       98.33373065017020      100.98656566201156
C          117.15930097345179       97.20463671334694      101.57304481969028
C          116.91295103921193       97.35002817684853      103.07674595228161
C          115.96654089528691       98.49499178110233      103.44075352607715
C          114.50047969799901       98.19095277022178      103.12162338813805
C          113.67176087985682       99.46145823415554      102.92474356385176
C          113.90779158247010      100.09506301079070      101.55558400981924
C          113.22927985746774      101.45388475688598      101.41015929435669
C          113.43226824948890      102.02879920472421      100.01110194476414
C          112.90510939840730      103.45431606808040       99.87546021245122
C          113.05461592432334      103.98483590555936       98.45185543096129
C          112.68141763866646      105.45948125964883       98.33413290517282
C          112.88066673733996      105.99085574321059       96.91691241266257
C          112.52964186103156      107.47179983877481       96.80141264136707
C          112.80780891482858      108.02868759634433       95.40658717382348
C          112.76349053577178      109.55352798581671       95.38180567785790
C          113.09665465155149      110.12912748177487       94.00624796370118
C          113.42329680176587      111.61719945601175       94.09021215140766
C          113.69606955628032      112.25231002180615       92.72915058228288
C          114.20833461154996      113.68205669107836       92.89022548609090
C          114.31854456254399      114.42935553034793       91.56337933361235
C          115.04870436159662      115.76833617221205       91.69005441202911
C          114.34737348424133      116.75566070623925       92.62018421248787
C          115.01361219902451      118.13013683926228       92.61294523010895
C          114.40742534427130      119.07759815020651       93.65136852253553
C          114.93312370837550      118.82161223478403       95.06319288420757
C          114.20244860831403      119.66624321246164       96.10619953199459
C          114.94570454004645      119.76481114547451       97.43827163352174
C          115.16888389996652      118.41282394560193       98.11112744608293
C          115.69519275617358      118.57359894737185       99.53573364611266
C          115.92521685762553      117.24237832539340      100.25217696312161
C          117.15904091234012      116.49536606556082       99.75462227846361
C          117.32525971293731      115.13548669923564      100.42564102403794
C          118.53078126639485      114.37785701659833       99.87516072024334
C          118.65322728932331      112.97199993629683      100.45590193548310
C          119.86582432994160      112.22783860039694       99.90193297921117
C          119.96545880940930      110.80202592459507      100.44374259852937
C          121.33802085609729      110.16825646805360      100.21644295142579
C          121.67534851483049      109.84845020076645       98.75946464266900
C          120.99784624001468      108.58095620220671       98.24335843932104
C          121.44736269595856      108.23578402200381       96.82467857152903
C          120.93210030843105      106.87445494974305       96.36608739890904
C          121.39700860784825      106.52624572668502       94.95456246034949
C          120.95920360002985      105.12615873360338       94.54174099510378
H          120.99318825054564      107.25742313222318       94.25028520157852
H          122.48686896558776      106.59017207694831       94.90927468023689
H          121.28380443885776      106.10457629446444       97.05816973987632
H          119.83996515843816      106.87120898824269       96.39357101415185
H          121.09885626821266      109.00673385591354       96.13365343961583
H          122.53966962589138      108.23041142133097       96.78691084461602
H          121.24881690710302      107.75007250675593       98.90855711721605
H          119.91356031308845      108.70372486339313       98.26074456413535
H          121.40876373955523      110.69389920430909       98.12303636079876
H          122.75758008190456      109.71051400339424       98.68444315448799
H          122.09767482090091      110.84890188603579      100.60881953543672
H          121.40129193142111      109.24360165431359      100.79491023702435
H          119.77572275931504      110.82611466270741      101.52003782211082
H          119.18876879746462      110.18340897626206       99.99449615044141
H          119.80542065473537      112.20750340747401       98.81165084265575
H          120.76991120753884      112.78024313874825      100.17155056100425
H          118.73888393355517      113.03716215973186      101.54253340982589
H          117.74501943737835      112.40573907487961      100.23457433874620
H          118.44051981716139      114.31007464336101       98.78814048486174
H          119.44166460093230      114.94047706042748      100.09185553781006
H          117.43937897189163      115.27243021728434      101.50410497170130
H          116.42049784571743      114.54380777820982      100.26642603148061
H          117.08815294744484      116.34468096198879       98.67714729505681
H          118.04846796317982      117.10102558149595       99.94216828125209
H          116.03902052801337      117.43256964738896      101.32194376774143
H          115.04369082614734      116.61012531045576      100.12321093024127
H          116.62953471526517      119.13935863121056       99.51628983478052
H          114.97055766703470      119.15764984726303      100.10834263008030
H          114.22505921537936      117.86410195955867       98.13845809763235
H          115.87714239351575      117.83308011947027       97.51956688809526
H          115.91141377967732      120.24893724146057       97.27818469078522
H          114.36943449609163      120.40588388303068       98.11140987963697
H          114.06360495329528      120.67633657902087       95.71038170432291
H          113.20971155772884      119.24369795162244       96.27737146080194
H          114.82403566863124      117.76552808106973       95.31189348847316
H          115.99922354764973      119.05975745421181       95.08772947074655
H          114.63792291154596      120.10992853301532       93.37643276009644
H          113.31970548947619      118.97219178574169       93.64000800336629
H          116.08294035979826      118.01935140661928       92.80852765336587
H          114.90567627169908      118.56711442043326       91.61748029494387
H          113.30632797842195      116.86659359713431       92.30707866435466
H          114.35064620971272      116.36239366337534       93.63705250834875
H          116.06349322968224      115.59101970927300       92.05559940202694
H          115.13252030338032      116.21655638895683       90.69672830250251
H          114.85992093239607      113.80430916272302       90.84852597822919
H          113.31785943496261      114.59962710034507       91.15813165284018
H          113.53207690112080      114.22000319706214       93.55711563608736
H          115.19216078136706      113.65023287731327       93.36368982327301
H          114.43707462624265      111.65840787987183       92.18842399522271
H          112.77896826746573      112.25151844715715       92.13555218559630
H          112.59635715535673      112.14404463483505       94.57156748855282
H          114.30635770409464      111.74713750692393       94.72127747150279
H          113.95957157795574      109.59924328465159       93.59525425880179
H          112.25730812485861      109.97147538218010       93.32622202803870
H          111.77590801604285      109.89871880817326       95.69680752064181
H          113.49011610025504      109.93162631834436       96.10502752758714
H          113.80094444591536      107.70703145342927       95.08548272004914
H          112.08642522601370      107.62480847439586       94.69452709452368
H          111.47746871628979      107.61853267632682       97.05371342193450
H          113.11919907925096      108.03282194274840       97.52908703678150
H          113.92676150230204      105.84819442752530       96.63176894299907
H          112.26533377180289      105.41629344111104       96.22173936889865
H          111.64043466067443      105.59690862235192       98.63219058037707
H          113.30032729741589      106.04012231526602       99.02346357157039
H          114.08955045698869      103.85306865557017       98.12801985487384
H          112.42030096551348      103.40054864112363       97.78249972122715
H          111.85239558283898      103.48222346284808      100.16340885683053
H          113.44872150919242      104.10549049645468      100.56492693176546
H          114.49816288548043      102.01854683117793       99.77267249226183
H          112.92650172973984      101.38534905700428       99.28824557406800
H          112.15960669778285      101.35173730549853      101.60914132290810
H          113.63648715945979      102.14398754491158      102.15325681086171
H          114.97886951214595      100.22061145638494      101.38630995354623
H          113.53129573124525       99.42068438540100      100.78265779703344
H          112.61055466833467       99.21781962950631      103.01447125354093
H          113.91492747870021      100.17914565037128      103.71253790482763
H          114.43022512238697       97.58900188080825      102.21421564249864
H          114.07590770684152       97.59805645171234      103.93524921710411
H          116.05609274620997       98.70606118901797      104.50903813037448
H          116.27943541039852       99.39544146030521      102.91302263888278
H          116.49849032368566       96.41579306178757      103.46357814630215
H          117.87411010692793       97.51059849426845      103.57002334786016
H          116.20518890753465       97.16196559897710      101.04384285368474
H          117.67205200347264       96.25607685171462      101.39430087019346
H          118.96891853396221       98.36681197082878      101.49973249075403
H          117.50385625712876       99.28746320690334      101.15331347152730
H          117.27579578890590       98.13137054507415       98.97189021371818
H          118.69999552565847       97.16507332456456       99.32987102766558
H          119.37233637589048       98.91537300535713       97.84256994844159
H          120.09074669923932       99.21671275740208       99.42363366301319
H          119.36131416904294      101.29207795334027       98.48649377240480
H          118.34264395694105      100.93893855771415       99.87828784438514
H          116.53011766077915      100.17263275416445       98.40069994101310
H          117.55007664612648      100.41142482334280       96.98030220818707
H          116.77691239028263      102.63076628313858       98.91569821265030
H          115.84131047684562      102.23441157989406       97.47231703980269
H          117.87713317042511      102.66727643967558       96.07208146720779
H          118.72636641041355      103.21954814348648       97.50818294991902
H          116.22023910272038      104.43630646126500       96.27577516455860
H          117.84953633869047      105.10723417491016       96.22973173545915
H          116.10346131569094      104.76945534603804       98.70232571065537
H          116.43320710124729      106.27363885397020       97.85670038241329
H          118.83075784406060      106.09808810752752       98.41875594436462
H          118.54679744796653      104.58111957971599       99.26090712228022
H          117.25040256420273      107.22991993515997      100.00256640278580
H          118.71870614225126      106.60111877687548      100.74989651404788
H          115.99912316521184      105.21654682096631      100.83047889463354
H          116.66254755350796      106.23687990475838      102.09737069752909
H          118.60354692849141      104.68648503232824      102.32317830306022
H          117.86159001005549      103.60108898139340      101.15035766622444
H          115.93221511081053      103.24626692058175      102.60703968347906
H          116.49998557049116      104.49044683520010      103.72055323130942
H          118.53074375054908      103.14921636216971      104.19473534036368
H          117.93946662075219      101.86242351632036      103.14824416811415
H          115.99661170034835      101.50152814374215      104.57279834824961
H          116.38511710357017      102.92577539076011      105.53759591117134
H          118.16079290179431      100.45636383102698      105.36825260908837
H          116.95920733813692      100.74083799497211      106.62682842905451
H          118.15583440964018      102.93354283380276      107.12941969211694
H          119.46596354632008      102.37562806450761      106.08441814648650
H          119.66912814716738      100.31911911835866      107.49635057599821
H          118.44914503420151      100.96601049509336      108.58741431909552
H          121.14959977924191      102.25525459843730      107.98796240597889
H          120.76588789837636      101.26935427420524      109.38973544689726
H          120.43930332476319      103.28303844921717      110.38211930184549
H          118.82613599823280      103.11664817465095      109.70419627913047
H          119.52812421992105      104.52754988805232      107.75857373697282
H          121.14655246135888      104.64382233441415      108.43769871535801
H          120.30509615397007      105.83946121677836      110.39583733735782
H          118.63839516096131      105.55480698639401      109.91016089789088
H          119.08942948778234      106.91995380621928      107.81572078672866
H          120.66853207301189      107.32636286356546      108.49311303590048
H          119.52250040066966      108.26552607631089      110.51231848457117
H          117.96508116976027      107.86938743916917      109.79189936029292
H          118.27032873984888      110.17678525450087      109.42381972311365
H          118.57231339242900      109.42360068711692      107.85984861311759
H          121.00527088691067      109.66809283404891      108.18296351727828
H          120.75314747263405      110.21919923849761      109.83914142292781
H          119.51454531704736      112.20607237821250      108.97511318456951
H          119.84032704390995      111.68334500761986      107.32346447348112
H          122.29606079122043      111.82443820702034      107.79321315419095
H          121.93548885609546      112.39367533373967      109.42236512107031
H          120.73372573333799      114.36794069869143      108.40391680538613
H          121.20683020245561      113.78342848286682      106.81537020026960
H          123.65021104117483      113.78389713433617      107.88739494197976
H          122.94511459516308      114.94424098083917      109.00362641790053
H          123.10918553090674      115.20232961803829      105.96932670468328
H          124.13212343350287      116.01031539527540      107.15086742014616
H          122.07127997791093      117.17285046519440      108.04636200732052
H          121.15806928326018      116.48047822905527      106.70356715621026
H          122.80183249600917      117.55471989269010      105.11238910821683
H          123.59289025745642      118.30815478538041      106.49496552526479
H          121.40589530779913      119.44141868827023      107.06082463124181
H          120.72160435533291      118.76744482212074      105.58224372235040
H          122.52003833311694      119.93344744143873      104.26587803849371
H          123.09817933561408      120.66950130721877      105.75985880567217
H          120.83904384923578      121.72745416039386      106.07349203287390
H          120.32709601547101      121.03158728312489      104.53920743153031
H          122.18223672525663      122.27202305644231      103.38919933296974
H          122.59131405996402      123.03593371826005      104.92512692926744
H          120.28923178164285      123.99176773650495      105.04345545938669
H          119.91315321234835      123.25286908137859      103.48240946964739
H          121.85620888097922      124.54053167426559      102.49332053679940
H          122.00698196563896      125.39978822516015      104.02347938123107
H          119.54337837196152      125.38283907459797      102.22636019234140
H          120.76881884361509      126.64695680612716      102.27656552217931
H          119.27677698933550      127.64172994921675      103.69992585305741
H          120.09440239865953      126.64805460835706      104.89829539684511
H          118.31814694958948      124.88361793391839      104.53427257352560
H          117.48386041127584      125.99862796417347      103.45744585284234
H          117.28049347500694      127.64355903883735      105.30300974262411
H          118.12146949453320      126.54883471832677      106.38751512647654
H          115.40779381336067      126.13084961258348      105.06284492493363
H          115.72112830630425      126.42000686644751      106.77405716018690
H          116.45271831032584      123.93234158969686      105.17092049295529
H          115.16488426240487      124.08453210696865      106.35724744176247
H          116.79231779786579      124.40933230598228      108.16332075253476
H          118.12390735722749      124.41439184345919      107.00535196918183
H          117.62959773568045      122.09725802655026      106.35718779453607
H          116.26673854484122      122.05538670391128      107.47776214684824
H          117.78100782065064      122.36330235373802      109.39002495851263
H          119.16332715110880      122.51895577295112      108.30794197194695
H          118.83490629070211      120.21612056927212      107.49475720232047
H          117.37992197884553      120.05275320296653      108.47435949041757
H          118.70447169004585      120.29127823005992      110.54162420403834
H          120.17718697498455      120.51466939425875      109.60078566704753
H          119.95320647929859      118.24959139207574      108.65348270478827
H          118.41625930866299      118.02992933940290      109.47549510552186
H          119.54407371500635      118.20355861090290      111.67794495929539
H          121.09470390152217      118.44514208099707      110.87464666801434
H          120.95185266831682      116.22156049255851      109.83984625522392
H          119.33585306456227      115.98357215680799      110.49399017213337
H          120.26891536568927      116.09032496369528      112.80857852412487
H          121.88542812246214      116.29895272331540      112.13637955945761
H          121.71887684007909      114.09961101343556      111.01132029877731
H          120.08444733435134      113.88984724167216      111.63261833029460
H          120.97992794629398      113.95605593715973      113.96699529134119
H          122.59739825358443      114.21077462342596      113.31759576881733
H          122.49077172625263      111.91765243818755      113.88204812424109
H          122.39779226858811      111.97901405064506      112.12645203022184
H          119.94939900376559      111.60724266665339      112.23116966695467
H          120.00157611664366      111.69178889483095      113.99331619625181
H          121.53506375418542      109.70620598910705      114.01336653090345
H          121.39656121230576      109.60335663469468      112.26250284808418
H          118.93086102614986      109.25431390245582      112.49341730493387
H          119.09211026578353      109.33970391225802      114.24596149155079
H          120.55619329257831      107.36364318889181      114.25246007305458
H          120.52076225040635      107.29518969170199      112.49162098370702
H          118.06696936888912      106.89830946937875      112.55335740090231
H          118.10751560519141      106.93886819630043      114.31845146498526
H          119.63173582998091      104.98098472939105      114.33806822858671
H          119.63119626095774      104.95442354577749      112.57494187554869
H          117.14864012579579      104.58166536141495      112.61518118132844
H          117.21385754510155      104.50898924455390      114.37728680961111
H          118.80168172999559      102.57348860143878      114.21037841483432
H          118.66876404606042      102.64823290204399      112.45337070766807
H          116.20489177005864      102.22519829341353      112.64503674219732
H          116.37716129780621      102.13800848958384      114.39862515903096
H          116.31977484694040       99.88452673444927      113.64590835288128
H          118.00251773506905      100.21714213397850      114.05934948941321
H          118.51253749916161      100.55879709536819      111.63753062639843
H          116.81478612161560      100.30975292666416      111.25169810812639
H          118.01928083607949       98.27885536061686      110.76641500510793
H          116.93424166730213       97.99658092611570      112.12182438646136
H          119.07930023165625       96.89550815595184      112.45271503204398
H          118.76154098241177       98.08092502249397      113.71137724087596
H          121.09531515171297       98.15228092891226      113.05826545132683
H          120.32515818566651       99.67602682407832      112.63688165076846
H          120.17247694654270       98.98451698686372      110.27802835007267
H          120.81013783844901       97.38957563477004      110.67892981183131
H          122.94907298856005       98.42329668889708      111.40320586232727
H          122.30681335921746      100.02494635167611      111.04956433064221
H          122.01699488371183       99.37093052530879      108.65803940456199
H          122.68320005283776       97.77916593110992      109.01669075725158
H          124.83177370536573       98.83225295104182      109.69226410723316
H          124.15882234116353      100.42806008215679      109.35820387264329
H          123.85785435340848       99.81489106834002      106.96653029619982
H          125.54372970871337       99.60805998247103      107.45052530591161
H          124.49125254262505       98.20176561080255      107.28971327207844
H          121.29291209861424      104.90186163913516       93.53141536397546
H          121.37806619520995      104.38187286485937       95.21586191815013
H          119.87518422068328      105.03666325796623       94.56986935998080
C           94.77101464038009      118.64385689688733      112.04422638606331
C           94.65119054348915      119.63103169112681      113.19846824452101
C           95.92734951741242      119.74904259219230      114.03219080417264
C           97.08689506676446      120.39455182973418      113.27636677521046
C           98.26282649745839      120.71511375062029      114.19696519483328
C           99.39006321589153      121.42428595766644      113.45104066694549
C          100.52191916932527      121.86751729888377      114.37502557811526
C          101.58463199935642      122.67079345994094      113.62808024990548
C          102.68213313278059      123.18766533246635      114.55457762804663
C          103.69130575765730      124.07532654731557      113.82788999784148
C          104.77583519739113      124.57759215941427      114.77790061669018
C          105.77933462834621      125.53841996084438      114.14040176166024
C          106.62190294115109      124.89846243133964      113.03668709170620
C          107.90009505627661      125.68972766014996      112.76292597707319
C          108.68809305384869      125.13041816073046      111.57809196208841
C          110.14385063698860      125.58939590569925      111.57769630067749
C          110.93588278642171      125.00611275444680      110.40923603910421
C          112.42524475981631      125.32539968813315      110.52471115058009
C          113.24267122712760      124.90537814246591      109.30255166334008
C          113.29557461619211      123.39953414742449      109.04206185158878
C          114.09841144076803      122.61750794667357      110.07908408711624