3536
 energy: -3716.198266635422 gnorm: 0.000957471129 xtb: 6.6.1 (8d0f1dd)
C           67.00571143925599       51.11698404593491       41.25830158398671
C           66.03165317329970       50.82508091471586       42.39728973782032
C           64.61299008083567       51.19351946802176       41.96540753808451
C           66.38699951760076       51.60519357149938       43.66829659982555
C           67.77205550628867       51.32767100889555       44.26278727252460
C           67.93793463756607       49.85077993073608       44.62317369032957
C           68.00606752198840       52.16628493076612       45.52907175781289
C           67.89156703273999       53.68692958289567       45.37200332326354
C           68.84973125277594       54.21174523204219       44.30267291516864
C           68.19129595586300       54.40428148205102       46.69739629591655
C           67.25145942217620       54.08586240947785       47.86851507104191
C           65.82303991080596       54.51981105465514       47.54587632729221
C           67.74066007322612       54.77050588420526       49.16124145678802
C           68.32566834268485       53.80619419546163       50.20376570199091
C           68.51934270218295       54.55093293139004       51.52490459298424
C           69.64226278749088       53.20245839785843       49.70178742984159
C           70.22280974257032       52.06591250910235       50.55352264875857
C           71.69319717022603       51.86365684136339       50.18848947134120
C           69.44618764986862       50.75834177156172       50.35390995668972
C           69.72709425288056       49.70952767285838       51.44753804138948
C           70.29020834832207       48.42318080755464       50.84204178162334
C           68.47207038439163       49.36915698018649       52.26078123668351
C           67.84946276356565       50.52892907799919       53.04825923776130
C           68.77073170355207       50.99795125007700       54.17067572325601
C           66.49130851930285       50.08643022547035       53.60911785806083
C           65.66743002884661       51.23070675468737       54.22562498596867
C           65.60958302310458       51.08796124685200       55.74738738930619
C           64.23371100355087       51.27396936833924       53.67957656097609
C           64.09362740322045       51.58296686132631       52.18421833816094
C           64.53957493026809       53.01205861991886       51.87372557283528
C           62.63705064733802       51.41236304732249       51.72268489037876
C           62.03726754333884       50.01039203795938       51.87970102020045
C           62.80420637832636       48.98462246320295       51.04557335659862
C           60.56033185374173       49.97178786480668       51.45927438472643
C           59.62633313037266       50.95180280937243       52.17907572674994
C           59.78595975778526       50.86557732700232       53.69720084324010
C           58.15458587458223       50.66014265452607       51.85018330101698
C           57.78204042208555       50.55579148113623       50.36791309494161
C           58.24143156910441       51.78480645841208       49.58542889274906
C           56.26013554118718       50.41195048580495       50.19112786689022
C           55.58214538308530       49.33476505729915       51.04352112807977
C           56.18419915135821       47.95786537725568       50.77033185920057
C           54.06988926388181       49.27469184401015       50.77930360957419
C           53.28540253490069       50.57108457822861       51.02033156820143
C           53.63736798033680       51.19353109461803       52.37133129760167
C           51.77015705263366       50.31023364151475       51.01184624621071
C           51.19624073166710       49.58337114862999       49.79145982149304
C           51.49714930291427       50.34138928843942       48.49921516673351
C           49.67303503940246       49.41638611290515       49.91969770849750
C           49.17219683070103       48.70007372341288       51.17943785021770
C           49.82690632810407       47.32799435768985       51.34277517940818
C           47.65090429624060       48.49926582080945       51.14094228087968
C           46.77510404207516       49.74768538730979       50.97856378225240
C           47.05050615906141       50.79204298985326       52.05873736409612
C           45.28995384080173       49.32722713712127       50.99595513297989
C           44.48601954684391       49.76566344925576       49.76546847466351
C           43.00269570679613       49.50159392405904       50.01397807631912
C           44.98505038442019       49.03304018576331       48.51676277058941
C           44.31344304312145       49.39905551804195       47.18508021975543
C           44.97678773380000       48.57898450770968       46.08104644592515
C           44.42190687879366       50.90382365351438       46.91741413232918
C           43.92209693687042       51.40682435921688       45.55619193284019
C           44.16674360295688       52.91519890165598       45.49190114326601
C           42.44257874802391       51.07507106554121       45.33210345736060
C           41.92023377907616       51.45600126065604       43.93276788904491
C           40.83922920231885       52.53280119463203       44.03981797460622
C           41.35535896484895       50.25075560003128       43.16785934518891
C           42.36810918360744       49.16918317654114       42.76374149517247
C           43.50063654406375       49.75226810104699       41.92086105867330
C           41.63537755635917       48.07172712545183       41.97772879908887
C           42.41244361848923       46.75421183344568       41.83174013539351
C           41.91679419031011       46.00564043116987       40.59474924109185
C           42.25940420103028       45.88109516008327       43.08350108499865
C           43.35240156544919       44.81014071725598       43.22551441221158
C           42.84835437104128       43.69037560271749       44.13596384532992
C           44.65972511730458       45.42052263863746       43.76304821062931
C           45.93795067483241       44.95113871384996       43.05677673017536
C           46.18419877687063       43.45653824419857       43.25441504187330
C           47.14695192935793       45.74329912873343       43.57898486776384
C           47.35630219550003       47.11948739952388       42.92896160625983
C           47.97786202071016       46.96075222618936       41.54344962182181
C           48.25295851108252       47.95375782943123       43.85163584521614
C           48.66287300962161       49.35285203628363       43.36831240727999
C           49.51839635416894       49.98834141587163       44.46570417252180
C           47.44412415529904       50.21795229864171       43.02604703722335
C           47.74363005590008       51.67577428091646       42.64723743276647
C           46.43793515132388       52.39465890966686       42.30721415162026
C           48.76713971483024       51.83974741469743       41.51520233064416
C           48.40064261402618       51.18032888823900       40.18811413097379
C           49.47618195576547       51.43059742059223       39.13692678479974
H           66.67734267021292       50.62363193584242       40.34566456458355
H           67.05461246825293       52.18764692433709       41.06864469694811
H           68.00557509647392       50.76063327269794       41.49143878236863
H           50.43085523629556       51.01788160304523       39.45725232485064
H           49.20492905787396       50.96699914236692       38.19120727862202
H           49.60486359550976       52.49824879204806       38.96904023706102
H           48.90354571384302       52.91083997877850       41.34158534766832
H           49.73076464029656       51.44732028270872       41.84539211190117
H           46.89910518457247       49.75369512931034       42.20348853032552
H           46.77642000350703       50.22992224684550       43.89195901848713
H           49.27915827694279       49.23897382790007       42.47423439083559
H           48.90687870106552       50.23421000818784       45.33213261769833
H           50.29482332646198       49.29517095898377       44.78305309298655
H           50.00630145574925       50.89444026442080       44.11908053727554
H           47.74594390159879       48.05863104593176       44.81381064585128
H           49.16873717019239       47.38301857690768       44.02986591729775
H           47.03300267929761       45.87124936790826       44.65814012546797
H           48.05559674240319       45.15869603351007       43.42137260192855
H           48.16466296808250       52.17526217035400       43.52637481382187
H           45.77405085032115       52.39720867804998       43.16795836350963
H           46.63349165586141       53.42712188234858       42.02531572115394
H           45.92439878849314       51.90492099915849       41.48358729326723
H           46.38569339329955       47.61426020447651       42.83089641090945
H           48.99775896214376       46.59135504741111       41.62932121476938
H           47.40834289570729       46.25523102110138       40.94309808272025
H           48.00032285934923       47.90788742382461       41.01137743419218
H           45.82422487573121       45.13732392112286       41.98343354230876
H           46.28587721164518       43.22639099752467       44.31317072121472
H           45.36915040496169       42.86653188658454       42.84403834901796
H           47.09981859286494       43.15453044820166       42.74890346147956
H           44.61159683066477       46.50636860396237       43.66830251528807
H           44.74690236267685       45.19561084291205       44.82881637969317
H           43.54574220983810       44.38307239692871       42.23666583578083
H           41.96408134823560       43.21979957650728       43.71054546864649
H           43.60574032611883       42.92345989547270       44.27275851844917
H           42.58377890432055       44.09061909317278       45.11166318779866
H           42.27026631475622       46.50911538729759       43.97689018929275
H           41.28191906686740       45.39449899648947       43.04236346487246
H           43.47411674758563       46.97628361911126       41.69015516961387
H           42.11225024450302       46.58321279329859       39.69365959978399
H           42.41303920250520       45.04357153370487       40.49320311667650
H           40.84479871217152       45.83052841778564       40.66369327548810
H           40.68004578429114       47.85422311932766       42.46206108110380
H           41.41047067280242       48.46543361782798       40.98374011894651
H           42.79599609549237       48.72582612981170       43.66843447623347
H           44.12208171852189       48.96121301868747       41.50793492202648
H           43.09529383228475       50.33101757206408       41.09309252027369
H           44.13999023545448       50.39795982210344       42.51486764726604
H           40.57289924277806       49.78949337558922       43.77695094139154
H           40.87998996557096       50.61998757945049       42.25495486509092
H           42.73993674191728       51.87214524563900       43.34253420789653
H           41.21849724509858       53.40358783014712       44.56933138657404
H           40.51077650284594       52.85033325663588       43.05209643923931
H           39.97427856521404       52.15050724014474       44.57893620534875
H           42.29441664082407       50.00673562228285       45.48553770672104
H           41.85573525304625       51.59221370834471       46.09449941026929
H           44.50942042323277       50.93056370576212       44.76513974375848
H           43.85997200140812       53.33109596572280       44.53572179083815
H           43.60882363087012       53.42303876040089       46.27557360629903
H           45.22433684301862       53.13159423540606       45.63342606973421
H           43.86016032541179       51.43470954134762       47.68825874885999
H           45.47219290569200       51.19140438116047       47.01883465148495
H           43.25874352053421       49.11583097709276       47.23679412049194
H           44.96640630873426       47.52214631869268       46.33765859110484
H           44.46472655677274       48.70140868579224       45.13133879442560
H           46.01215648834896       48.88848793164050       45.95560572438313
H           46.05716348483251       49.21201672213790       48.40897282316517
H           44.85119928483861       47.96084286732096       48.67841896630025
H           44.62996161227852       50.84252649426681       49.63787866971115
H           42.39075748186234       49.87866418307154       49.19875676375000
H           42.82192786471378       48.43283837402365       50.11592431261948
H           42.68260967512559       49.98946137381832       50.93281926342193
H           45.21584722709566       48.24100841284324       51.08134177408177
H           44.81240752043806       49.74867978595567       51.88147722410125
H           46.99915698494434       50.20927266588562       50.01346915194619
H           48.06189231101236       51.18216400136230       51.97772965261208
H           46.35902711426152       51.62562574252066       51.95555787016640
H           46.92824850986432       50.36387847379023       53.05155955033758
H           47.41782602282940       47.81522672439014       50.32010276610075
H           47.35811916984750       48.00618312885163       52.07200253879953
H           49.41169699632393       49.30403197633116       52.05813425182548
H           49.67395708388069       46.72618255976922       50.44938320568970
H           50.89417685282305       47.41396305041180       51.52201655411661
H           49.39092476965533       46.79773265042451       52.18689719420360
H           49.22350667530458       50.41102325594219       49.88049934545034
H           49.31785369595043       48.86040843564856       49.04759154311931
H           51.64865516924318       48.59167931399377       49.71877658718717
H           51.11185788343572       51.35775938565742       48.55490918104329
H           52.56605731642698       50.38973537338782       48.31356942464490
H           51.02762364081984       49.84785207377943       47.65081297429127
H           51.53820853372501       49.72455134079964       51.90336402570335
H           51.25915832720013       51.27269051777319       51.10907162832831
H           53.52369518273749       51.29064755174364       50.23255197632476
H           54.65931874592246       51.56051935150590       52.39253473634212
H           52.97643059886612       52.03005046513777       52.58433484800106
H           53.52097841207593       50.45538381082259       53.16222475902455
H           53.91740959806120       48.95556106310777       49.74721028425962
H           53.65136829175713       48.50129569948192       51.42937878479191
H           55.72949232237146       49.56740889806277       52.10079338332521
H           56.10155859260294       47.70974847388973       49.71527468196102
H           57.23396882102948       47.92384320882960       51.04768992108839
H           55.66051694351087       47.19775511799443       51.34492183085909
H           55.80543040439398       51.37726572314938       50.41996700157687
H           56.05602687126326       50.19596022386651       49.13912216660399
H           58.26696662687988       49.67441681300597       49.93943554292053
H           57.84078157710529       52.69141920500083       50.03501718937495
H           59.32401343846952       51.86708807355094       49.56306849083232
H           57.88745273826756       51.72340577797927       48.55847518933921
H           57.89327675668788       49.72103441786837       52.34088206642244
H           57.54562616737595       51.44727292049495       52.30410726073318
H           59.85921300298038       51.97194955778001       51.86080828799464
H           60.75904977119128       51.22437755837069       54.01895750499877
H           59.02247391507157       51.46618360995209       54.18856095722295
H           59.67193250027358       49.83585932128373       54.03006635855552
H           60.50877794244295       50.15661420985150       50.38479533578961
H           60.18990548972395       48.95818578497095       51.63600716790070
H           62.09285357300873       49.70765487287407       52.92692534513281
H           62.30104074014508       48.02031034773124       51.07927969824979
H           62.85932356691285       49.30331684473679       50.00647590332639
H           63.81587423882022       48.84734372852863       51.41845014851006
H           62.03077012404860       52.12634841322351       52.28203897860579
H           62.57667802198557       51.69045827377748       50.66709699823501
H           64.72810417150853       50.90409749145848       51.60879073034200
H           64.41225111910742       53.22832393913298       50.81488363740737
H           63.94835562680368       53.72782732060035       52.44182847555619
H           65.58672306004225       53.15978624213262       52.12132086832212
H           63.77712637953294       50.30769158903215       53.89522159771690
H           63.67366747988363       52.03308196641812       54.23331268151385
H           66.15600975243316       52.17993480706532       53.98987407962726
H           66.60855099250959       51.07541264462330       56.17581081523345
H           65.05648073693642       51.91288332297437       56.19225798501869
H           65.10774005599367       50.16237266405960       56.02180023325206
H           65.92221188247225       49.62040428020362       52.80324363047392
H           66.65914475342861       49.31412832990228       54.36274429100948
H           67.67925855466687       51.36864190515715       52.36721385115554
H           69.73409346827522       51.30540970184061       53.77318520445220
H           68.34093877369894       51.84773972780280       54.69554501427294
H           68.93814088372361       50.19688292666604       54.88775966475235
H           67.72223502065835       48.96811954573029       51.57301042382206
H           68.72269985955755       48.57337895924753       52.96591150246419
H           70.48189700224816       50.10564509433883       52.13218217196388
H           71.19014777325471       48.63028341208511       50.26737855944109
H           70.54403343180489       47.70988661316545       51.62419404938087
H           69.55911853697206       47.96047378233176       50.18183555960989
H           68.37778053759000       50.97278074725902       50.32591818409713
H           69.70969338747601       50.34932436220807       49.37615995659417
H           70.16896207730888       52.34986163694633       51.60743802541774
H           72.12297971484641       51.03426535507957       50.74425684416214
H           71.79181413760853       51.64965474897560       49.12572883137691
H           72.27248184516441       52.75704738839421       50.41183847742348
H           69.49463921040395       52.81634539760054       48.69236358423721
H           70.37865094294024       54.00824972935678       49.64325954521264
H           67.59733308928732       53.00391706296774       50.36405283995871
H           67.58080156711372       54.99838918692563       51.84735332947221
H           68.86084301507483       53.88252512510472       52.31072351728204
H           69.25292170954634       55.34591405179987       51.40901385759243
H           68.49078277000929       55.52672384618850       48.92145971921283
H           66.90037595487033       55.29210103989226       49.62365897907910
H           67.24389782445466       53.00623855045213       48.04168255371292
H           65.42853320417747       53.96683375311967       46.69781665327325
H           65.16973417374103       54.34292673883962       48.39750621013587
H           65.79854684458233       55.58028646956087       47.30594639475247
H           69.21695451524522       54.16933890146287       46.98879337268956
H           68.14526307313987       55.48197623155237       46.51649615023010
H           66.87326855614351       53.94046336793742       45.07029016068471
H           68.59584841076763       53.82221382944870       43.32047419421371
H           68.80474684057262       55.29819489066556       44.25589945462465
H           69.87328378049411       53.92295857955143       44.53298591047075
H           67.28616895153557       51.83534359488230       46.28024121309062
H           69.00518613343448       51.93684162354410       45.91003365340127
H           68.53820773553936       51.58631696783602       43.52772593405379
H           67.91914293165863       49.22383652601206       43.73605248559136
H           68.88832747034543       49.68826494136425       45.12760581341104
H           67.13954338464774       49.52926594548739       45.28934928094912
H           66.31405431445648       52.66673994417746       43.42757523431497
H           65.63354860469786       51.38822013133197       44.42983575369097
H           66.05190769671017       49.75245321565226       42.61301193618478
H           63.90514493340229       51.00021115270240       42.76751032399912
H           64.55510564854960       52.24950762383834       41.71025302329482
H           64.31260880928431       50.61382949519729       41.09526742093255
H           48.28418565306341       50.10456768559815       40.32660246751245
H           47.45109994934774       51.57658030007880       39.82572768346273
C           40.30922160500860       49.69406148167941       65.16328154574623
C           41.74527586494494       49.23426763937472       64.92116806749988
C           42.49708350813979       49.18673590918610       66.24565995458744
C           42.42260232054601       50.17733876353371       63.92170537722252
C           43.84899472548774       49.80756176972204       63.48812556061267
C           44.38373973640049       50.87575193733466       62.53452383736661
C           44.03295824920934       48.39210699898269       62.90926670121461
C           43.64616486848114       48.13357579234247       61.44563891856657
C           42.15742421929992       48.33484325345300       61.17396758601809
C           44.04023557322996       46.69316096267325       61.07512046323307
C           44.11272245557018       46.43654000896139       59.55751525827358
C           43.32417723146632       45.17939283473733       59.18626670007272
C           45.55765386106867       46.27801915149313       59.06810976107029
C           46.46817045651249       47.49308759494114       59.27996165041439
C           46.11471716715329       48.62180625549099       58.31360296892817
C           47.93536608795371       47.10217056753439       59.05908685243327
C           48.58065419309137       46.28217178105828       60.17954818676370
C           48.84245158401761       47.15190872210942       61.40879492494108
C           49.89869495912269       45.65194221391371       59.70828172243824
C           49.74423304164929       44.52489591178073       58.66566961453013
C           50.57230682258822       43.31347722130099       59.08961252299645
C           50.16629511166055       44.99649788147356       57.26740378686011
C           50.08125006862986       43.94385369297138       56.15221488791103
C           50.54164183272832       44.56513642588742       54.83388492994619
C           48.71832996646242       43.23978238785762       56.03981192240373
C           47.46226550036247       44.09397403400114       55.77988190256969
C           46.26394789710626       43.42376728771172       56.45493682577314
C           47.21608776445444       44.26670448297608       54.27405860803317
C           45.90100108481749       44.93806412924745       53.84579117150511
C           45.86757060392671       44.96954199723819       52.31741188584465
C           45.75958100655117       46.34552909120959       54.43701577287379
C           44.40724264834431       47.04002519903911       54.20386344340731
C           44.52515891482775       48.51036759526291       54.60503526711092
C           43.29784126596540       46.34573187003035       55.00379012288694
C           41.87568294054906       46.90229375393558       54.82981905891443
C           40.97649249287171       46.27849010314092       55.89793943383631
C           41.34468528031607       46.62041111289096       53.41861387818118
C           39.99667643709569       47.26692658938630       53.06417985056567
C           39.47213404002655       46.65242264764430       51.76753580907804
C           40.13401058964993       48.78637993271627       52.91654184934954
C           38.79458367802197       49.54124677016122       52.79598916329404
C           38.68576406619026       50.24690310746959       51.44525048991256
C           38.63657979683796       50.55975624439390       53.93299523562471
C           38.33265148179376       49.89567763827127       55.28548169355105
C           36.83590605090915       49.60582384706172       55.39145334392195
C           38.82606325446576       50.74221201895924       56.47485704172266
C           39.65938447045517       49.94502246938857       57.48732495232675
C           38.78212397386270       48.99774925476105       58.30332791248674
C           40.42298675528055       50.88621517393214       58.42981020361858
C           41.68182457027957       51.52049902484190       57.82459710513244
C           42.76133892465728       50.46391952300836       57.58921880811851
C           42.27073933746932       52.59731672408951       58.74827314184169
C           41.37404865417730       53.80156664852820       59.05107602814006
C           40.99584440312873       54.54146560794604       57.76930804478938
C           42.06412944874938       54.78370843126168       60.00944488411600
C           42.52473008355580       54.19862739240765       61.34987982974796
C           41.39525072845750       53.45577036326289       62.06306396791450
C           43.03405873082392       55.29634112410954       62.29354213190263
C           44.17471096713450       56.18169862193226       61.77936757075798
C           45.38539852416123       55.34486332468039       61.36666689469320
C           44.59862221099704       57.17299499961775       62.87361968340024
C           43.58237391671524       58.27628552056087       63.19366620301391
C           43.61194412209201       59.36546911773623       62.12224507448002
C           43.85948599188407       58.88796189341656       64.57425734608780
C           43.53796203514890       57.94595368796882       65.75435426389987
C           42.57672290699848       58.62530250552777       66.73029113344727
C           44.81001511401642       57.49794526970893       66.48869110926623
C           44.64891513623066       56.22642654100049       67.33653800669948
C           45.78637531878999       56.15614651085338       68.35400574259106
C           44.64045984812930       54.98065575778013       66.43950674630449
C           44.17762205043524       53.67246513579433       67.10402047533880
C           44.96125998988030       52.49528194729847       66.51802531770893
C           42.67714217441463       53.40168405133621       66.91562446500807
C           41.71121632800393       54.35762761741000       67.62157762616603
C           41.91198926508405       54.32752904606352       69.13781334140181
C           40.24996106583066       53.98768476112961       67.32523097104111
C           39.76853203412076       54.10285540495545       65.86954647956449
C           40.09471065184207       55.47246729710086       65.28080626987823
C           38.25285872356267       53.84780111477942       65.86667509518784
C           37.57172522777345       53.66662990301410       64.50096887775861
C           36.05731503220640       53.71761873226831       64.70757928725827
C           38.00579838028653       52.34862822924669       63.84738842168931
C           37.27607394605803       51.94967333632926       62.55465626790674
C           37.80810740038739       50.59349853350398       62.08983411887914
C           37.44743134294663       53.01561650686908       61.46664511726873
C           36.76256842472305       52.72846363449344       60.12206837428216
C           37.14520612258548       53.82504084369157       59.12857903915984
C           35.24110779184677       52.64450962124978       60.28907995176206
C           34.45696726839578       52.32715274422439       59.01408564897401
C           34.77405903218375       50.94914169283369       58.44558772291419
H           40.29790898684398       50.69766466747723       65.58384404111466
H           39.74889483607080       49.70557365254038       64.23231212556371
H           39.80632176517714       49.02596900371795       65.85948502121684
H           34.12832727594134       50.73039314342328       57.59787876771660
H           35.80452122209110       50.89403719527230       58.10585424099669
H           34.61915837737744       50.18057253077740       59.20044185739730
H           35.00653517327984       51.87208212864437       61.02374966352757
H           34.88554712987599       53.59884912908907       60.68782920703505
H           37.06549274835143       53.96787650417384       61.83780353697206
H           38.51730224352372       53.13991021317575       61.28518185509638
H           36.21459632058640       51.83168837057478       62.78491679959473
H           37.22233245892451       50.20414644836146       61.26185287584825
H           38.84467353079496       50.67846704754920       61.76928828468914
H           37.75517347243915       49.86884239059638       62.89977101784338
H           39.07426155786034       52.39936776388313       63.63140948832315
H           37.85424069412572       51.54742348701325       64.57529719917949
H           38.04935793450984       52.95535860894798       66.46460010316181
H           37.77816731152667       54.69127578960308       66.37537553526948
H           37.13495066876689       51.77634371572383       59.73626129743327
H           36.68828941115417       54.77089666696636       59.41240314601079
H           38.22434951564274       53.95917926547152       59.10359784517856