3795
 energy: -5103.683433245333 gnorm: 0.000893681544 xtb: 6.6.1 (8d0f1dd)
C          100.41980178018019      114.08124181663305      130.36100641772885
C          100.01439920954874      113.96577421310116      128.90746337778981
C          101.74295331737703      114.79777248279738      130.61226213016502
C          101.71760168114810      116.25680659031249      130.15955274527283
H          101.95087977561123      114.75782380359234      131.68324122097394
H          102.54838222361568      114.27560894924925      130.09288931539078
C          102.91325082208073      117.02568383548021      130.71367682125458
H          101.72889378282309      116.29754995201741      129.06993591908417
H          100.79785183189493      116.73862697071687      130.49735328696346
C          103.02608501098219      118.44334703232137      130.18213257346133
H          102.82113094658919      117.10377640228079      131.80074126786843
H          103.84471827453430      116.50049722358720      130.50348261309614
N          104.26716126644624      118.93236614220908      130.24585560873743
O           98.75536277696027      113.63424847804875      128.78543517270154
O          100.75968201961803      114.12789631199547      127.95837950503166
H           98.43284563837553      113.54769147402349      127.78881759223917
H          100.46853812941930      113.06073184822796      130.75002161408011
H           99.60471490128261      114.58426477487890      130.88376383050456
C          104.61783308388686      120.30462192917480      129.95331541731346
H          105.00999587190668      118.32981477387357      130.58135629299366
C          104.77682583109690      121.10478817448517      131.24844426526465
H          105.54355673796034      120.30503222844003      129.37620131395835
H          103.81716339062494      120.73146366510942      129.34440580578683
C          105.16536848636250      122.56424127652117      131.01662045403958
H          103.82637898753710      121.07838800224715      131.78733395427238
H          105.52199300656839      120.61577297715375      131.87699256846540
C          106.48749910084616      122.76214017469117      130.27462955291656
H          104.37293653041215      123.05492162835601      130.45000841654576
H          105.22831721369531      123.05576304599396      131.99004408588945
C          107.65388641212179      122.04728008757171      130.95394421370924
H          106.38759283378839      122.41028199862350      129.24791922938013
H          106.69561588253860      123.83363067388377      130.23649693553833
C          108.99962988485905      122.45001932286877      130.37584088907235
H          107.65451865923684      122.28237445147700      132.01911887878069
H          107.53811075446959      120.97017615548776      130.84056054057660
N          109.12193720003779      122.03530448135373      128.99040534744807
H          109.13291845454798      123.53622452034068      130.42389600404314
H          109.81160515083377      121.99748868723994      130.95577735138576
C          110.23693602645655      122.26242835459922      128.30444107297490
H          108.36203259734452      121.50109948099538      128.58365537638986
O          102.06852391806164      119.08507598565257      129.75231836482945
C          110.23558584575345      121.81270096520271      126.85610884986403
C          110.89471082445635      122.87119102710440      125.96762668571498
H          110.82031433598934      120.89073245612774      126.79528438111042
H          109.21770533143939      121.59184811905985      126.54035213387107
C          111.39140768222492      122.32184034905785      124.63273397975226
H          110.19316500332374      123.68587686064620      125.78499927781422
H          111.74488857041170      123.28339945752785      126.51592648353072
C          110.23486419811435      121.92049777412311      123.71383322714749
H          111.99291701680588      123.08938667170621      124.14459678190460
H          112.03564794088346      121.45727394021965      124.80816583401116
C          110.72026742963760      121.18783147984848      122.48287314113733
H          109.55708781365794      121.24612299150034      124.23771995072700
H          109.67480705393265      122.81034873233895      123.41885428667926
N          111.52967160529138      121.87322359278134      121.66985533861818
C          112.19224691099207      121.29939598177538      120.51364971216189
H          111.81326173108468      122.80696073305755      121.92522965968755
O          111.22007219930052      122.80570377777320      128.81595658381562
C          113.58737467330245      121.89653647091558      120.36959032491188
H          112.24474531059477      120.21857493411913      120.66404227214882
H          111.59697597154661      121.48915886877964      119.61205890947623
C          114.43637320958692      121.23823104381184      119.28339509865479
H          113.49349848270462      122.96145874987506      120.14518813572928
H          114.10436405495214      121.80158466320169      121.32431914062056
C          115.80858672214502      121.91007740809211      119.23277273178290
H          114.54568648754240      120.17513735070057      119.49931416143217
H          113.95332625505732      121.34652087506896      118.31120539314666
C          116.74802300780973      121.34368644345712      118.16957688250838
H          115.65732152522693      122.97021593956622      119.02140714278761
H          116.28047051974529      121.83708821643316      120.21466809685305
C          117.32933506527546      119.98204498021033      118.53901583202922
N          118.40332148093444      119.63992011283553      117.62963757794533
H          117.70879737606293      120.01436817858485      119.56864377450502
H          116.57124397708135      119.19861423227921      118.48174068850464
C          118.77359451051345      118.39406077370602      117.33857147040706
H          118.98585398339945      120.41086161007000      117.31155538650425
O          110.37717696598469      120.03036185347997      122.25004202822292
C          119.89334680163211      118.27482393950933      116.32950443241008
C          119.55254777063351      118.90100780212715      114.97340538245098
H          120.77321886215974      118.78760861490996      116.72477863322717
H          120.13522883265868      117.21888598878267      116.20313729117854
C          118.18603555082693      118.50556267049986      114.41264885157869
H          119.58007736212323      119.98593223960408      115.07442878221050
H          120.33256111467409      118.60876527491565      114.27005123542513
C          117.92061938043074      116.99799043436796      114.32744374245962
H          117.40596789327894      118.94147355519327      115.04232326424828
H          118.08960390687636      118.94357914551694      113.41711869968709
C          118.81908011002837      116.25385501279736      113.35119926976841
H          118.06659067849992      116.56609151399050      115.31662845579871
H          116.88299425019969      116.83883613522995      114.03565613946942
N          118.15535900903262      115.43711345945727      112.51610068074277
C          118.80988064025240      114.70125187939301      111.45358282505207
H          117.13713073553261      115.46636348528465      112.49685437368959
H          116.21284594429325      121.27548486710010      117.22195194034643
H          117.58141547053881      122.03678231309733      118.03353952139565
O          118.25220885715564      117.39598284197524      117.84087819343452
O          120.04285094339679      116.35363365673257      113.34813417189518
C          118.07892635801491      113.40917140948440      111.09346791039856
H          118.86685593666721      115.33212126466213      110.55638674289891
H          119.83250780035685      114.49324458467673      111.77946610426820
C          118.34164212163768      112.24658236351108      112.05136064963979
H          117.00736455405413      113.61189183138606      111.04426046826333
H          118.40184179047890      113.11425956415614      110.09354498955307
C          117.66455379282149      110.97199977725288      111.54479147206351
H          119.41779226559802      112.08523630256012      112.13107412336876
H          117.97055957304046      112.49806021125345      113.04529614804140
C          117.86955614691085      109.74006749580492      112.42678531861115
H          116.58922108645891      111.13943435509837      111.45800059939046
H          118.04125849493067      110.75031459437683      110.54366689986787
C          119.33158769813598      109.29041670421795      112.52859640074989
H          117.47755841848088      109.92216442625485      113.42797358516249
H          117.28820600814316      108.92022123409328      111.99719554463917
N          119.44875901420278      107.89632204308430      112.90244554214129
H          119.82301683550894      109.41771120667761      111.55968010733783
H          119.86643461993587      109.87400893410189      113.27985044378016
C          119.70053343298794      107.46448864052661      114.14188569153285
H          119.08402039695318      107.21456919241895      112.24429232585753
C          119.76076730599540      105.95729753984807      114.26543017405058
C          121.10973642125438      105.40574226151888      113.79794282306125
H          119.60196903001984      105.66061671291945      115.30231630860179
H          118.97285843363112      105.52334199968986      113.64966269210289
C          122.25045159037563      105.72929582277271      114.75691880652360
H          121.01581908175116      104.32151529921771      113.72033835096634
H          121.34381703014975      105.79463118950885      112.80449377402994
C          123.56471933626963      105.10695664091155      114.27459298665610
H          122.36874502330792      106.80979171882089      114.85589404289348
H          122.00796751407421      105.32722339315028      115.74279023483574
C          124.07676986843421      105.78322882301289      113.01625530758244
H          124.32397271467187      105.20304397977962      115.05002676647342
H          123.40836124885668      104.04836945610285      114.06048530417675
N          124.68621877821806      106.94819451624824      113.22738733953207
C          125.26645144496318      107.73317659925290      112.15567720613119
H          124.71426923826237      107.34806322714689      114.16460588548306
O          119.88893626341547      108.22287220175086      115.09497214521244
C          126.07701373462831      108.89975139388932      112.70640932696107
H          125.90041990195505      107.07027729272987      111.55526257600758
H          124.46348381166369      108.10487446367584      111.51178934901147
C          127.03764019274270      109.48796267142856      111.67009256002281
H          125.39602055442728      109.66552182620275      113.07796084016211
H          126.66064591194312      108.54409879828580      113.55798278005888
C          126.39184002488942      109.91186178068784      110.34850943115514
H          127.54477813346642      110.34608770798263      112.11352435805716
H          127.80071270747605      108.74041749635687      111.44176273920132
C          125.25903211039019      110.92885236446571      110.47505445572961
H          127.17284498040435      110.33715418188633      109.71478165968477
H          126.00666594549102      109.02870945124222      109.83769881828132
C          125.69367476685663      112.24473213022335      111.11807557244501
H          124.89430614789856      111.15988856879164      109.47138316129926
H          124.43243456111514      110.50796994626565      111.04852780929924
N          124.65578342633997      113.24276545009134      110.97212576295233
H          125.87671417879338      112.12037359019645      112.18689519078468
H          126.60585457257781      112.60719646886342      110.63314008004083
O          123.94939909871374      105.28368550050735      111.89583683158997
C          124.04058809219984      113.83034670284158      111.99773977393083
H          124.33435848382466      113.41270741764073      110.02420362665457
C          122.98182457933858      114.84018551100290      111.61426275848400
C          123.63259011723586      116.21634563772540      111.44238613885216
H          122.49602276112316      114.54238831975285      110.68525156121444
H          122.23885649824271      114.90309548617002      112.41070153676722
C          122.57918025187993      117.29168313214061      111.20250244208806
H          124.19022171075932      116.46380161111496      112.34817131052162
H          124.33481547970905      116.18640840857083      110.60594349497177
C          123.21086903696262      118.68442631194492      111.09193713235121
H          122.03204529178100      117.06892117998807      110.28434153162821
H          121.86354928214220      117.27944910555554      112.02719759875623
C          122.10318080864226      119.69667392360623      110.91392935301485
H          123.77919147562207      118.90622909328002      111.99403888467398
H          123.87685058580851      118.71951770359588      110.22751775901008
N          121.76478335719129      120.38149573134642      111.99772125139161
O          124.35297108995071      113.62519064302435      113.17319292582671
C          120.59964756851058      121.23970440446810      112.03795852055768
H          122.21532878079448      120.18907923499557      112.89158093111972
C          120.55517736868019      122.11668042071082      113.28371267606113
H          120.59091089411676      121.85462027385981      111.13365567217095
H          119.70633644515209      120.60238198600182      112.02161927914625
C          119.12170420581025      122.59123426944618      113.51950433228967
H          120.89850492574877      121.53987304783821      114.14274798333943
H          121.22094244448499      122.97351083470659      113.16862150578004
C          118.98164304307231      123.48556810846713      114.74795855361971
H          118.78265191369960      123.12622076447629      112.63188976131742
H          118.48380863843707      121.71530075732716      113.65381839542303
C          117.52152895839569      123.74868067534784      115.12171227381704
H          119.47107317857291      123.00361185270367      115.59556419628886
H          119.49144072749151      124.43372017713315      114.56719180023936
C          116.71793049748480      124.39528414148410      113.99850989103933
H          117.04605676601186      122.80464316403479      115.39153792669850
H          117.48822104804856      124.39854203851108      115.99712371757531
N          115.36221260838084      124.66849561660291      114.43682993872356
H          117.16853282700036      125.34255923885713      113.68833162863093
H          116.68924980908791      123.73360987993493      113.12581040067028
C          114.53979744694449      125.49850840499602      113.79029424761976
H          114.97462675749848      124.05174996477170      115.14885671558639
O          121.52635135763214      119.83460736796316      109.82583086030974
C          113.15972287606319      125.62985843071898      114.41151554608940
C          112.81980657904025      127.09852040361288      114.66494128992801
H          112.42169145010773      125.20905461834293      113.72595249854258
H          113.13129630676157      125.06700315574238      115.34362501816575
C          113.89058914995341      127.75820651960265      115.52734981549915
H          112.74651058419667      127.62105971927618      113.70886743531406
H          111.84376877482921      127.17285914969007      115.14729458103872
C          113.53093640590984      129.19597550002237      115.89892548466865
H          114.04044727284131      127.17711563636414      116.44081874286276
H          114.83209171456831      127.75862854097412      114.97483521390939
C          114.69092407267067      129.82755889397311      116.64437845183210
H          113.32489241809864      129.76769086353846      114.99485458176152
H          112.63382998050557      129.19238971636639      116.51500938862358
N          114.77275975575057      129.48384746220117      117.92947221477570
C          115.81536043828191      129.92853753796533      118.82934620507982
H          114.11650763265156      128.81911150890991      118.32884188436900
O          114.87503454826199      126.13154807801894      112.78897895850758
C          115.22941775079380      130.21168781769910      120.20816539102584
H          116.59997703221994      129.16689053199653      118.90087845732565
H          116.25859007348500      130.82921051700521      118.39661617676926
C          114.36790372036945      131.47433819134937      120.21621170899719
H          114.62736979294364      129.34977858837848      120.50203956145168
H          116.05084435101955      130.30782889880811      120.91621589294407
C          113.49486924097079      131.59480198083537      121.46535756896441
H          115.01036020224524      132.35288098189324      120.13484795726309
H          113.71765710939225      131.45972365482194      119.33865918258772
C          114.27257530186203      131.54381839584985      122.77708152969228
H          112.94021407262106      132.53398650771280      121.41582090076790
H          112.76999853786606      130.77920591595603      121.47100578013858
C          115.29717093843598      132.66609046559401      122.91845440790804
H          113.57303211631806      131.62517815191052      123.61127771539246
H          114.77924792034624      130.58337296378309      122.87123749746267
N          115.87134055497393      132.63650467163589      124.24472390873149
H          116.11723580392855      132.56337149825103      122.20489635661852
H          114.81145660958214      133.63566463893264      122.75680187159080
C          117.17942112429347      132.62409349198896      124.50543020428493
H          115.21892890767056      132.44600051783877      125.00036950877094
O          115.49785314075011      130.57909265797224      116.09383735937051
C          117.48318852244685      132.50582584865478      125.98581834004160
C          118.96666576871353      132.57885655029176      126.33009397855020
H          116.94797563591580      133.30833961022643      126.49808071567976
H          117.07526762493873      131.55699012257614      126.34084514950682
C          119.14371359466244      132.68212299983671      127.84202194017722
H          119.47429334940368      131.68641456744666      125.95548481475265
H          119.41973387041411      133.44327959577271      125.84016317091071
C          120.60140992709466      132.53561955079672      128.27393243602222
H          118.76244557630014      133.64674910292553      128.18601279698612
H          118.55015564338720      131.90153806331409      128.32330385022232
C          120.74104907157421      132.72263846372311      129.77549075715839
H          120.95053150602486      131.53240550032501      128.01298191477369
H          121.22985456227872      133.25843978155069      127.75389376470534
N          121.76635804992753      133.48363364933769      130.15271529055417
O          118.04103060553922      132.73034507005883      123.63325271917144
C          122.07831010241605      133.80906837365140      131.52991045932117
H          122.39935073066047      133.85598537600123      129.44840219016254
C          123.58610450113295      133.96641198467282      131.70813365933117
H          121.57614125386372      134.74495714866791      131.80241118596896
H          121.67584679822542      133.01373250090268      132.16239277196075
C          124.33938147616409      132.65006323094673      131.51161096675270
H          123.93423086319243      134.69297633712773      130.97174668833210
H          123.78855158054807      134.36498440381550      132.70237316321669
C          124.28389182176927      131.73941101277794      132.73679732897361
H          123.90871359130537      132.12868616931985      130.65592618259893
H          125.38335553228742      132.86110708484054      131.27492716146088
C          124.70616246956223      130.31458117851955      132.38848118229845
H          124.93718468813769      132.13632630819231      133.51523159131506
H          123.26747922915386      131.71879943534762      133.13398495329409
C          124.79624691997645      129.42909324619035      133.63543375628652
H          123.97625765098542      129.88250642985469      131.69881923305229
H          125.67554680002998      130.31629942952637      131.88573465906214
N          124.91606008779017      128.03709535019934      133.26665473937396
H          125.67765754041477      129.70680710038613      134.21847260020425
H          123.91333999791580      129.56783801779949      134.25730069528203
C          123.96726331789070      127.08981219355685      133.26368751122030
H          125.77444945920931      127.80931661221767      132.77872673213412
O          119.95746906912686      132.20843480077352      130.57517937279087
C          122.65178375633739      127.42509338428020      133.93962175380219
C          121.68295947658281      126.24406595471419      133.95968530348551
H          122.86376872553816      127.73012185890502      134.96646382285604
H          122.19118363891415      128.26806621374507      133.42028984871044
C          120.44240845076223      126.57190323031902      134.78830690500774
H          121.39640448825445      125.98696112211267      132.93741923344828
H          122.18937362708998      125.37431355321989      134.38349095261938
C          119.46418156170607      125.39732820626443      134.87285269932093
H          120.75229480387921      126.82903042338714      135.80325241016422
H          119.93464706996225      127.44190765178772      134.36916251222343
C          118.89853641410609      124.98987025725326      133.52515386889260
H          119.96792586449219      124.52832091343127      135.30026304842897
H          118.63149528629559      125.67418901722431      135.52155860754456
N          118.12803284763177      125.90030726662911      132.93127155356586
C          117.49915016966142      125.70633443086909      131.64278452149617
H          118.04797391489174      126.83961570449323      133.31960934698904
O          124.18682669126315      125.99082080109370      132.76043763718383
C          116.06899466546720      126.23892539355866      131.63705922712722
H          118.07895632826478      126.22711651783754      130.87243531067108
H          117.51893569043899      124.63654317639667      131.41899559245110
C          115.09585731916816      125.31641471977247      132.36951936466124
H          116.06285495323674      127.22580551941357      132.10248545984481
H          115.74940332405508      126.35945464042490      130.59963844922413
C          113.66488560070182      125.84150680561737      132.26748017155185
H          115.17412911101070      124.32173991006003      131.92755939529823
H          115.38737615560686      125.23923938065097      133.41918784434776
C          112.60508833990146      124.99639051869237      132.97798754235080
H          113.64976573391330      126.84376207608595      132.70062268422220
H          113.39598363636902      125.93677271955376      131.21505708445650
C          112.16805302616588      123.73064225547776      132.22901538696530
H          112.95971695196272      124.71042696211082      133.97024060698359
H          111.71475836335833      125.61211353706553      133.11165247626528
N          113.13220565531331      122.65708685455179      132.31862410684445
H          111.25091891556445      123.35303765644133      132.68740591161765
H          111.98221871562907      123.94612790759133      131.17428584496739
C          113.06532364055299      121.67321853864964      133.23088564545884
H          113.96257343406867      122.73573757676182      131.75404815866818
O          119.11694308139643      123.87971313197053      133.03792198840515
C          114.31433922311584      120.81213683644492      133.28466579558656
C          115.33885909785391      121.49478768213724      134.19821377034549
H          114.05772139649977      119.83413618203954      133.69118637629097
H          114.72553969985643      120.69524351190270      132.28281554448461
C          116.69057914673812      120.78210365953359      134.22064538732951
H          115.49210476062481      122.52537041704150      133.87041596889605
H          114.93205656229888      121.52581017172284      135.21093604445915
C          117.46706948652955      120.95491060002962      132.91130819120434
H          117.29067395289368      121.19760469379085      135.03272014631182
H          116.55116962578755      119.71828486186902      134.42219771787691
C          118.81608828154918      120.27653108238384      133.02823096389110
H          116.92380066465546      120.49672861590270      132.08365780351099
H          117.60992957229125      122.01398008980830      132.70060273791248
N          119.84052475304553      121.09438469162302      133.25674130409629
O          112.10226547382800      121.49791954156386      133.96409346435158
C          121.21408769901475      120.63496169773241      133.31627841562994
H          119.68522907700931      122.09858387825727      133.23579643420106
C          122.13876783586385      121.73719018963249      133.82290604948849
H          121.25906587151826      119.74780620410006      133.95519300218220
H          121.52982579587392      120.32673566757519      132.31030430674915
C          123.57100965796442      121.54463170639596      133.32668322555173
H          121.76547097818045      122.69265620310050      133.44691637159815
H          122.11760055941413      121.77659446355872      134.91242468256135
C          124.45864725136487      122.75083991107432      133.63805441281863
H          124.00098712379960      120.63775315461992      133.75383841895294
H          123.53796484307908      121.40673855786842      132.24538626602748
C          125.67076727645230      122.85370684832947      132.71489201140966
H          123.87886083881638      123.66605928857791      133.50513572586698
H          124.79106707198706      122.71524673239590      134.67694471608760
C          126.73536093108514      121.78773782636972      132.95981933939055
H          125.33003078058870      122.77667065554488      131.67970091189119
H          126.12643519092207      123.83703514902791      132.83591729725222
N          127.75348206620971      121.86510164192356      131.90826173465587
H          127.23244513605908      121.98102720575568      133.91464889943452
H          126.26900008160224      120.79606596302146      133.01697193263806
H          128.50891453686302      121.22502402474778      132.12626534511517
H          127.34433682230822      121.54442275539878      131.03522948737628
O          118.94367807912739      119.05259900986280      132.94443577144361
C           97.46422213449539      124.41901329674297      124.80037284817570
C           98.23720248186405      123.89876583681414      125.99101579932187
C           98.12560426386364      124.09853301669541      123.46218317467526
C           98.15223741932535      122.59812668897899      123.17418562187937
H           97.57094299792041      124.60560965281825      122.67094576830071
H           99.14429071029319      124.48674158525768      123.46429389001854
C           98.41076569912303      122.31320880702557      121.69180887409863
H           98.92535928172133      122.11976913273796      123.77743777872661
H           97.19203605666864      122.15571914133429      123.44825610599028
C           99.67021065114784      123.00062620644503      121.20449752276869
H           98.51546258129210      121.23800988048497      121.54506721630068
H           97.57384544826469      122.67825260046990      121.09474885007899
N          100.80630237696113      122.45746297509797      121.63854506077314
O           97.43809461487565      123.43533164000995      126.92689391623195
O           99.44717932075150      123.92424612848157      126.08916256304357
H           97.92585063163723      123.14970894927890      127.76623908000221
H           97.39773099173718      125.50273488917635      124.92556113503298
H           96.45459083110079      124.01106062558875      124.84991636056502
C          102.11308947170043      122.92684612530169      121.22911137711958
H          100.76258909634713      121.57195299275391      122.14148420671228
C          103.18565096688887      122.52110746790785      122.23104865348074
H          102.35857650353766      122.51165570284773      120.24134463383028
H          102.06464117880255      124.01415357944566      121.12879077212919
C          103.07529030288474      123.26679809585009      123.55999848344661
H          103.10832711299177      121.44672480023416      122.40337520216896
H          104.16327666098081      122.71996260672147      121.78976912592701
C          104.31620651481852      123.08550433634311      124.43312953799985
H          102.96270388636233      124.33579670876799      123.36855641498018
H          102.18930946367676      122.93090394157528      124.10204862156050
C          104.54936769018211      121.64402181105602      124.86807606276837
H          105.19323574987820      123.43220492652419      123.88171089323031
H          104.21396310689261      123.72565680283638      125.31009336882920
C          105.87722636668205      121.47149328556958      125.60145187137796
H          103.72641603825181      121.31543261580245      125.50559924577702
H          104.57946816221947      121.00178662036609      123.98710358584577
N          106.18821050686361      120.06269564352466      125.71959953552472
H          106.67008779876258      121.97864948856243      125.03666489211659
H          105.84231500817251      121.90313162955125      126.60521099379871