3795
 energy: -5103.066505323879 gnorm: 0.000962922590 xtb: 6.6.1 (8d0f1dd)
C          100.44356140242448      114.07081979676377      130.28736843252778
C          100.06239708149684      113.90406468945498      128.83411491291102
C          101.75917054974369      114.80367802399321      130.53089321410602
C          101.72684440979224      116.25389973599960      130.05060745093772
H          101.96132200846057      114.78473513556274      131.60421614591021
H          102.57090550396602      114.27526319399220      130.02765950653085
C          102.90603020087086      117.04095994033719      130.61395362316128
H          101.75642862555094      116.27458260036592      128.96136560210923
H          100.79776479112006      116.73218302300712      130.36631294712566
C          103.00627183322788      118.45932353383996      130.07771070572784
H          102.79991061386008      117.12336130155110      131.69989286764326
H          103.84661547513871      116.52585126643650      130.41968120260884
N          104.24193349458565      118.96133788608205      130.16095372661451
O           98.81544804292574      113.50758393021246      128.70902583695261
O          100.80074464807950      114.07908992382860      127.88775265863788
H           98.52969827960388      113.42123308642547      127.73217817946245
H          100.48878729344402      113.06481567315743      130.71412993809275
H           99.61834939108758      114.58847912166621      130.77980003822333
C          104.57848323925592      120.33932049328406      129.88532466859124
H          104.98781555330883      118.37086041403055      130.51060207259428
C          104.74309987306528      121.11555034342486      131.19470028463988
H          105.49978477610196      120.35839451177570      129.30109867719656
H          103.76715067520344      120.76772184861279      129.29260710877230
C          105.11203726896335      122.58428436240908      130.99371232379264
H          103.80001380958721      121.06650569792826      131.74497237762358
H          105.50125939694748      120.62155350232382      131.80476275917638
C          106.41460144241627      122.81540540317209      130.22754981137066
H          104.30183835856492      123.08093147617384      130.45922952574242
H          105.19320198910175      123.05188805742458      131.97808974974353
C          107.60425994251899      122.10320151531356      130.86734913700144
H          106.30039267462890      122.47947958031614      129.19709587465192
H          106.61102671488817      123.89015569247081      130.20456629265283
C          108.93109782417214      122.53499692483784      130.26757655271948
H          107.62507307243496      122.31509305102151      131.93787539262354
H          107.50043545174329      121.02722890160153      130.73265377525345
N          109.03369013571894      122.13328453476275      128.87742959321227
H          109.04562118907361      123.62365567694346      130.32112778528511
H          109.76171471645290      122.09352646243715      130.82987786255532
C          110.14287748985352      122.37850427804118      128.18462633260586
H          108.28979405741366      121.56226436505364      128.48652052404503
O          102.05028275315647      119.08465084157791      129.63260214696732
C          110.14106846513016      121.92931203683510      126.73645444211657
C          110.82096567937293      122.97464037948600      125.84717913383381
H          110.70927315566739      120.99560343765604      126.68272456551377
H          109.12152201086244      121.72273210957262      126.41654305535738
C          111.37596683677764      122.39355033083309      124.54986550923161
H          110.11370666514775      123.77025173937093      125.61159520188490
H          111.64186577666099      123.41538306209620      126.41711287897124
C          110.25736758567325      121.91130790592746      123.62368908484464
H          111.95727606665892      123.16654984349842      124.04772437757777
H          112.04973467900679      121.56295082796385      124.77532372386540
C          110.78633148950119      121.17031108560867      122.41836983828946
H          109.60231657048469      121.21892050611896      124.15385531912382
H          109.66003232395796      122.76725483115523      123.30009808502719
N          111.60947997877707      121.85160445240925      121.61627943634220
C          112.27601800220978      121.27280617610002      120.46604010813682
H          111.89373562361494      122.78567005573194      121.87170956924273
O          111.11687118832785      122.93705061325426      128.69022538458941
C          113.66235159006942      121.88428642193576      120.30571832074030
H          112.34264729734342      120.19348633396467      120.62719821186373
H          111.67332583838950      121.44133359249091      119.56445610899675
C          114.50426131023482      121.22650874968184      119.21421657264817
H          113.55572708225968      122.94559604575096      120.07435316427214
H          114.18986943227752      121.79581717117539      121.25515980614665
C          115.87515928652246      121.89932937553543      119.15453053859120
H          114.61483144323992      120.16198239610857      119.43007213028071
H          114.01656573787385      121.33208368194209      118.24424253670932
C          116.82340405101672      121.29798851596009      118.11990756977305
H          115.72249485104486      122.95039123397137      118.90693595960931
H          116.33824795662476      121.85518480689599      120.14215335605908
C          117.40848479642332      119.95456350177558      118.54667884946191
N          118.48731873433762      119.58324797053808      117.65721716589530
H          117.78168386122032      120.02888239744533      119.57704550932016
H          116.65376305883892      119.16549325094711      118.52057842167584
C          118.83028416157997      118.33020004650879      117.36989567859511
H          119.08796954537178      120.34610154857276      117.33869296896822
O          110.45926659082480      120.00671177487006      122.18899629378184
C          119.94024510630521      118.18166324302013      116.35790171536924
C          119.61016798126778      118.82245381044272      115.00580049358096
H          120.83470145022302      118.66960919466882      116.74988433300204
H          120.14873857320306      117.11947041934700      116.22722145803745
C          118.21754868453422      118.49327371940338      114.46834092308936
H          119.69141259930151      119.90413390702318      115.10458439227099
H          120.36158605736939      118.48732616424242      114.29179948521083
C          117.88627208923565      116.99897939849265      114.37476702665516
H          117.46580294896056      118.95839339238915      115.11264002512385
H          118.12134209392613      118.94264306657209      113.47752581373413
C          118.76972699588309      116.22483159549986      113.40646155727021
H          118.00084301589085      116.55960569858844      115.36497349086019
H          116.84530398317995      116.88643240739040      114.07160397331425
N          118.08699158737629      115.48546587413220      112.51554028413226
C          118.73453802076142      114.74022702827165      111.45495747486270
H          117.07442852250267      115.57211701136620      112.46853326701317
H          116.29428452302477      121.18593902711575      117.17284944452187
H          117.65628125950386      121.98637748898268      117.96185799830671
O          118.29173677415270      117.34145608960628      117.87795630561747
O          119.99247714520224      116.24241547667889      113.45640017103902
C          118.00070315732916      113.44662123842663      111.10246199512233
H          118.78538641934652      115.36290330616947      110.55367187646019
H          119.75604993488118      114.53308677195847      111.78343134167980
C          118.25803036316275      112.28665170582680      112.06489695892317
H          116.92911518165398      113.64973694624626      111.04820866490549
H          118.32509818937544      113.14584252902465      110.10452449152592
C          117.60044844576122      111.00327305831902      111.55377147116994
H          119.33491466929073      112.13574045802825      112.16176681991122
H          117.87064347080343      112.53645181668280      113.05398746197235
C          117.81734844648524      109.77559527244694      112.43891871604650
H          116.52376656525220      111.15746505036952      111.45805646221874
H          117.99023328754764      110.78794514317386      110.55532947891039
C          119.28651512211287      109.35217550953571      112.56373612243945
H          117.40706588575864      109.95195574448694      113.43392906985093
H          117.25863263151597      108.94583336212044      112.00037407573492
N          119.42054173782927      107.96207096868122      112.93651116241865
H          119.79192514566994      109.49424798936043      111.60262959643309
H          119.79786476765594      109.94597151995752      113.32418088426597
C          119.66480489990361      107.53480601578519      114.17997215914527
H          119.06941146436888      107.27244946717659      112.27497820522025
C          119.73514349369847      106.03016952631349      114.30177383589482
C          121.07407427436050      105.48052566246506      113.80199831976132
H          119.60124020138124      105.73272144732790      115.34187368189787
H          118.93780492389708      105.59592691766554      113.69853464184968
C          122.22998143017982      105.79696442257237      114.74523140674525
H          120.97591040628333      104.39746393655312      113.72099686157034
H          121.29133226850847      105.87804413261085      112.80872029730736
C          123.52795698300206      105.14418459657919      114.25877949446740
H          122.36804562138560      106.87620441766020      114.83075519679976
H          121.99111096205702      105.41082622117479      115.73856564767004
C          124.06781513618948      105.81034639607807      113.00800647819251
H          124.28876393746715      105.20890542245502      115.03666234687896
H          123.34172978868700      104.09259550577644      114.03423881003494
N          124.72313882969281      106.95328035373808      113.22900084141818
C          125.36167722785724      107.68766353795337      112.15644206256503
H          124.75790135487364      107.35865440531664      114.16343648885541
O          119.82830602149266      108.29835874929408      115.13404036605725
C          126.08707355077534      108.91378363389401      112.69353691311436
H          126.06583908027626      107.01757850583284      111.64783620404933
H          124.60698961086641      107.98561439672329      111.42141144196442
C          127.03003514175701      109.53592647316657      111.66166167636854
H          125.35557855118682      109.64604536776328      113.03602000673692
H          126.67423869787025      108.61181246092607      113.56344158896744
C          126.37179818820898      109.93155248481642      110.33706693087737
H          127.50453812591880      110.41461881151587      112.10313854158881
H          127.82261201155622      108.81769463987412      111.43745517983774
C          125.21657856468792      110.92325754559486      110.45997327514279
H          127.14031141996711      110.36864404228547      109.69468085285980
H          126.00644641265366      109.03332995936086      109.83780136918867
C          125.63568363605118      112.26388828809479      111.06093847152052
H          124.81969578047672      111.11612807804828      109.46084568088889
H          124.41580619091002      110.49678408731943      111.06467273427572
N          124.56684288329119      113.23025934341179      110.94784343763568
H          125.86772605937382      112.16218107976880      112.12312742063874
H          126.51843671713438      112.64287327275389      110.53301747782970
O          123.93082334236384      105.33021941654998      111.88670673605442
C          124.00010580406077      113.82193504763353      112.00021221120345
H          124.21486053581089      113.40000905985258      110.00882290543406
C          122.91339209918353      114.81846043798078      111.66657978439170
C          123.54748063223558      116.19704278255051      111.45338145418418
H          122.38467183438848      114.51245014621978      110.76397871470461
H          122.21089130284007      114.88037639801546      112.49916262669586
C          122.47956112043514      117.26550393357731      111.24819393539411
H          124.14413105920167      116.45590022044398      112.33103415891506
H          124.21397618416486      116.16118175157433      110.58776178245013
C          123.10385874847282      118.65912308021313      111.10160128984676
H          121.89801556769751      117.03252267136116      110.35426026320094
H          121.79816094200959      117.25499491947154      112.10126313958786
C          121.98438406145392      119.66295185520157      110.95388303697111
H          123.70326967172794      118.88896813464800      111.98131517190863
H          123.73895986656115      118.68831242472784      110.21388808011373
N          121.61624731930571      120.28000595043260      112.06929314345381
O          124.37701469525048      113.62734947728774      113.15618449507267
C          120.42364314792323      121.09371575471033      112.14687030638449
H          122.07661550404008      120.06958863298888      112.95531271126981
C          120.43917143879507      122.05801078195660      113.32731463044502
H          120.32008338375617      121.63895753044807      111.20445048642607
H          119.55862072547228      120.42567770573267      112.24925350975371
C          119.01561432148448      122.53904570632319      113.60467481225209
H          120.83282549746137      121.54582783914449      114.20542484615311
H          121.08908005401655      122.90819696333769      113.11438995377185
C          118.91843429846585      123.46849385004823      114.81100054000366
H          118.64101193888300      123.04452547464642      112.71320506220475
H          118.38316410344139      121.66741754923736      113.79000053743589
C          117.47059642493245      123.76760043081588      115.20461836933812
H          119.41779888755244      122.99700084203198      115.65898710254388
H          119.44095796142292      124.40171917315384      114.59355808009605
C          116.66444896453403      124.42680399290927      114.09157474699835
H          116.97749470299514      122.83584779370817      115.48708247775696
H          117.46482667201373      124.42186362138261      116.07745597990940
N          115.31541090686683      124.71221078555294      114.53991202560972
H          117.12271566303464      125.37120466945562      113.78403505789713
H          116.62646925619667      123.77235253268171      113.21267248208318
C          114.48670294828474      125.49468374639088      113.83119503194266
H          114.93268739709826      124.10880305778804      115.26252930395265
O          121.42229706497609      119.84516288506738      109.86756200433518
C          113.10861432799965      125.67239559326666      114.43699553056506
C          112.81003613422057      127.15875370110909      114.65373433974347
H          112.36235482159879      125.25860064078125      113.75764660539078
H          113.06020687229274      125.12890227219296      115.38018271092403
C          113.91653078959135      127.80766928534665      115.48015494267771
H          112.73589022316681      127.65285681962290      113.68495121800090
H          111.84581087855534      127.26765488292031      115.15060376865088
C          113.58100636713519      129.24278212706915      115.88812652913212
H          114.10205417228096      127.21399356182029      116.37904452254159
H          114.83528618960847      127.81091685313150      114.89192943728381
C          114.75216413114042      129.83534819136389      116.64634984650759
H          113.37875399464703      129.84042681757688      115.00172554773539
H          112.68856293539713      129.23789306694405      116.51163355795303
N          114.85757353754876      129.41144394297783      117.90872981141912
C          115.90068663510574      129.81583437639361      118.82541040741505
H          114.18594473197648      128.75612119024075      118.29151786436731
O          114.83755493318570      126.05805495344892      112.80102667380804
C          115.30455733215894      130.09136983920504      120.20207562196218
H          116.66551211735241      129.03499895758100      118.89644588666960
H          116.36835985525180      130.71329649314373      118.41292063888383
C          114.45585282142639      131.36278383539144      120.21058388778552
H          114.68535639607008      129.23680655325660      120.48103055398420
H          116.11744726042916      130.17432227350446      120.92119506423077
C          113.57102470715023      131.48318702276532      121.45122517193519
H          115.10489910385196      132.23833035087287      120.14352716517068
H          113.81391322554019      131.36365297560002      119.32631946647373
C          114.33534547569364      131.41270215932212      122.76915233001127
H          113.02493782706429      132.42911090941251      121.40371171745606
H          112.83620559320028      130.67579776043686      121.44325375111002
C          115.36672043255594      132.52499223790355      122.93354638755262
H          113.62883772575417      131.48813499272742      123.59789262833003
H          114.83435921758660      130.44796284930641      122.85330527547276
N          115.95533778992696      132.44508852961820      124.24872170606687
H          116.17816925348228      132.44154919569348      122.20764833064526
H          114.88338685864863      133.50226807276363      122.80434024023985
C          117.26968173673700      132.46725351082250      124.48634031491625
H          115.31430598936694      132.22233917637107      125.00510720471848
O          115.55255179192439      130.61428266620382      116.13278192887097
C          117.60324107040161      132.29799107630149      125.95339984102399
C          119.08917989693578      132.41635233746118      126.27734292569207
H          117.04685383068167      133.06082492143528      126.50432206677354
H          117.23466577366897      131.32362988324215      126.28106750158261
C          119.27640459214335      132.53041057778475      127.78733619396510
H          119.62048303385176      131.53945482217347      125.90303766187508
H          119.50821392668108      133.29415209454962      125.78120867911342
C          120.74087264291664      132.40309381220027      128.20582166132439
H          118.88570461271949      133.49218903770389      128.13054884193036
H          118.69685971424364      131.74620469461743      128.27829907872359
C          120.88344202821769      132.60916806580002      129.70149948346011
H          121.09325248370820      131.40059245252624      127.94928630804560
H          121.35436939732399      133.13000425101296      127.67354756272695
N          121.88031097563724      133.41620526032349      130.07116219902187
O          118.10477612626724      132.63358022390196      123.60249531077002
C          122.16093322664904      133.76642924836599      131.44608036777893
H          122.50608732976073      133.81386493947360      129.37181025606341
C          123.66444392672366      133.92825541753919      131.65998145327586
H          121.65500250709627      134.70850827606284      131.69431975291459
H          121.74265114597692      132.98291933464392      132.08426649293102
C          124.42392611549401      132.61273463384669      131.48839469348377
H          124.02868326867930      134.64782681850673      130.92467122013136
H          123.84476689790829      134.33704246291728      132.65559168470608
C          124.32754560058274      131.69360207211378      132.70443445749908
H          124.02009484374494      132.09517779539536      130.61913411820180
H          125.47562711288268      132.82308042820031      131.28696041969181
C          124.72784850738530      130.26453279134935      132.34845410976152
H          124.97208769728093      132.07023711057943      133.50149706351877
H          123.30335309118134      131.68963529456559      133.08388173137581
C          124.78709607809456      129.36597789704743      133.58664063652228
H          123.99605134900990      129.85235233472559      131.64937723974194
H          125.70288135005737      130.25047406212454      131.85814095357873
N          124.89957815024187      127.97881323732013      133.20545493478929
H          125.65918501625812      129.63262575010182      134.19144863076889
H          123.89456210944235      129.50730374019423      134.19582511168130
C          123.96701380847269      127.01422983603207      133.25154057301714
H          125.74818194498297      127.75637404557659      132.69770658640465
O          120.12813464430907      132.07508365303960      130.51161806129835
C          122.65939369522795      127.34202558899845      133.94812497339919
C          121.69889816537867      126.15416380098961      133.96215782202469
H          122.88167713076992      127.63824846444027      134.97625758790488
H          122.18756808921373      128.18874166621387      133.44450942771235
C          120.45209526914761      126.46926579918741      134.78551135074775
H          121.41849111467658      125.90140821708027      132.93767438048394
H          122.21107741822860      125.28727953875287      134.38422939877492
C          119.47170283696805      125.29517041699762      134.83702984403197
H          120.75299738207707      126.70787807609804      135.80866324499448
H          119.95047133494074      127.34874998260250      134.37927110184870
C          118.91336995108239      124.90645890302400      133.47883041506142
H          119.96729043012340      124.41703195983197      135.25631675238876
H          118.63212468504132      125.56084594997007      135.48303285973765
N          118.20334897806876      125.85082940822933      132.86285969154042
C          117.57984826139766      125.67352176016642      131.56968503730928
H          118.15677897732502      126.79670156748327      133.24370794585786
O          124.19009695546707      125.91212487932653      132.76904813762982
C          116.14391334380642      126.19281342500715      131.56683384543078
H          118.15611592855676      126.21623279688669      130.81402952349265
H          117.60681138598710      124.60839767423830      131.32855868879537
C          115.17483263798641      125.22088372469571      132.23706333251826
H          116.11716375515617      127.15484914710471      132.08098707477183
H          115.83382634436518      126.35751745157469      130.53321499404493
C          113.73953235607101      125.73821535957255      132.16578619883538
H          115.26010173790139      124.25945472791132      131.72873460449543
H          115.46343808323570      125.07704554697528      133.28083047133075
C          112.68970401555225      124.84440922270626      132.82990784603001
H          113.71185798911141      126.71555597298590      132.65418044166495
H          113.46651882555123      125.89154554748690      131.12063428719404
C          112.30438132451060      123.58493009854109      132.04195421807631
H          113.03238425924319      124.54374869947551      133.82222199015877
H          111.77951238718769      125.43305807914331      132.96099507224176
N          113.27869286158749      122.52569400333964      132.15687624982314
H          111.37768354447624      123.18246598326350      132.45925205402961
H          112.14792928809547      123.81964370343236      130.98565394386370
C          113.12804800295373      121.46923993780634      132.97990991256808
H          114.15985393716294      122.64965150616618      131.68541593188937
O          119.08647947288324      123.78466622848391      133.00712098261789
C          114.38835492290154      120.62858533070067      133.09940684680734
C          115.37206580862824      121.32030426315396      134.04956127140480
H          114.12603947052075      119.64563020502897      133.49215696673716
H          114.84121294334987      120.51371834305550      132.11444351346211
C          116.74538385691909      120.65055746664584      134.07615993679138
H          115.49879654168429      122.36298139301702      133.75009839172026
H          114.94608249554251      121.31338705812091      135.05490921353888
C          117.53007087356173      120.87237803880141      132.77950714503118
H          117.32248640515125      121.06833855998580      134.90385830948509
H          116.63562121976892      119.57894513076239      134.25625169255079
C          118.88658271894134      120.20841695387014      132.89394387828742
H          116.99996042546709      120.42954097244578      131.93531161941067
H          117.65800741346946      121.93939226957363      132.60217043570964
N          119.89234766928581      121.02934276187278      133.18187961287140
O          112.09489341040353      121.21992020958884      133.57141401233216
C          121.26514278575641      120.57127242983830      133.26694636513682
H          119.72330999466975      122.03231050618567      133.19713916794686
C          122.17995778464068      121.66518761588490      133.80785953960105
H          121.29554154250059      119.67638482838912      133.89580568385168
H          121.60210966770127      120.27525530332873      132.26449112348953
C          123.61829086952844      121.48197065699252      133.32567130741407
H          121.81015272694864      122.62794996191288      133.44657020893277
H          122.14310108468273      121.68427644579876      134.89807422113159
C          124.50455379521890      122.68176194654401      133.66618570380538
H          124.04256210986345      120.56699859821234      133.73843688779144
H          123.59466355756180      121.36484756653351      132.24189857587371
C          125.68252998572245      122.83414054370310      132.70678308660689
H          123.91491481302484      123.59743257272493      133.59253653998567
H          124.87059804390783      122.60285583498478      134.69102151248967
C          126.75540854333336      121.75710707859227      132.84957164710997
H          125.30141985529926      122.81145638913206      131.68337519579643
H          126.14162124684741      123.81099913251896      132.86096347311184
N          127.69092568048161      121.86742336305713      131.72556550877371
H          127.32140612546308      121.92590626921482      133.76920441929772
H          126.29100888520699      120.76605635741436      132.91073175113564
H          128.49490927939826      121.27191054328213      131.89297615149164
H          127.23866621457994      121.51649362391116      130.88590124691166
O          119.03529505533687      118.99300695304925      132.75920317317048
C           97.50870927173850      124.37769942577529      124.74844679216240
C           98.25429971569977      123.86423341182255      125.96325238481370
C           98.20266343393951      124.04540055786315      123.43026268718604
C           98.22744688670058      122.54394419870926      123.14578093045552
H           97.67614422825498      124.55469358358356      122.62065731413443
H           99.22334871604413      124.42597596530473      123.45983578693597
C           98.49078862015250      122.25845328803092      121.66399174791813
H           98.99716807349128      122.06395927372195      123.75137673869273
H           97.26473130537198      122.10325354525470      123.41631605330956
C           99.75388780319915      122.94248308413344      121.18160690854673
H           98.59029320395730      121.18282003576306      121.51632884893981
H           97.65787700755212      122.62843177351822      121.06380505563051
N          100.88659577988042      122.38296393570484      121.60575609759684
O           97.43848013923689      123.38787962696050      126.87028863903788
O           99.45988482925391      123.91127676426377      126.08871107251501
H           97.91186547567632      123.09572224686723      127.71865618453491
H           97.44077208560282      125.46306031411200      124.86115744096121
H           96.49687645151162      123.97191904386882      124.77468251105439
C          102.19391830826251      122.84171034596415      121.18932853674768
H          100.83772103577864      121.49367107361080      122.10627794341748
C          103.25962299786394      122.46060579938461      122.20789113549094
H          102.44492051401276      122.40308042017089      120.21238879610895
H          102.14830298305701      123.92627371865375      121.06091701386272
C          103.13262547009728      123.23804722626097      123.51677692100813
H          103.18225659665566      121.39042902701651      122.40380122506288
H          104.24092018513599      122.65201453332595      121.77189555114114
C          104.37156544008002      123.09247068019293      124.39852579400008
H          103.01252934980846      124.29981103008559      123.29309349435785
H          102.24639745114096      122.90509755631307      124.06022284391538
C          104.63908117030404      121.65898774408684      124.83937410789468
H          105.24119218855246      123.46394025902647      123.85406892776180
H          104.24614461057270      123.72968059884640      125.27410159884020
C          105.97623476313423      121.51595524820891      125.56296801325247
H          103.82856793524299      121.31540786875654      125.48545049267973
H          104.67841950130929      121.01280250381237      123.96210632612232
N          106.30359103837459      120.11208357006649      125.69665633455357
H          106.75661172183266      122.02380761346338      124.98265842222581
H          105.94561618069426      121.95912959470455      126.56175688656548