3258
 energy: -3427.519602119464 gnorm: 0.000724802978 xtb: 6.6.1 (8d0f1dd)
C          120.19628248142806       92.06296339317115      116.14446826527960
C          120.67948512162239       92.52672119350022      117.51191370372486
C          120.33550158823577       91.53005511641717      118.61533781512681
C          120.74054539760328       92.04919606716855      119.99364211046169
C          120.39628061563252       91.07977276615890      121.12690840347119
C          118.91111904063172       91.06185882450551      121.49884781907933
C          118.45734659648242       92.27161675429471      122.31992592465267
C          118.89929520081456       92.18989348003687      123.77944448543674
C          118.53471470392333       93.42703094333501      124.60155594581552
C          117.03226686217418       93.61260359078763      124.81161046157743
C          116.74495227072028       94.70080095212106      125.84460121127192
C          115.25100011203627       94.93206650165122      126.06134407069590
C          114.99714010032014       95.99004983482072      127.13441334093380
C          113.52456390664041       96.37901344623505      127.27976313178431
C          112.99152096563580       97.17465793302914      126.08985805153988
C          111.55982358187461       97.65510052214177      126.30912629548305
C          110.99515716171356       98.33588623556149      125.06405006292940
C          109.55037470699061       98.78626633556652      125.26732206554846
C          108.87191078209953       99.24428850717584      123.97665503358702
C          109.52109430817414      100.47987308080980      123.35569591318512
C          108.64504801938054      101.14558454098032      122.29452890562774
C          108.39397352383068      100.26871978281663      121.07017196597175
C          107.50295047252453      100.96428683446227      120.04407522001456
C          107.13079822249223      100.04166618466526      118.88787828351408
C          106.17491351861355      100.70494460278609      117.90022389054725
C          105.79470431618778       99.75720524617930      116.76595221833951
C          104.75314010881894      100.32877761349506      115.80575620399740
C          105.25809766077410      101.50757012785732      114.97651455490069
C          104.28979376811712      101.85123317914784      113.84753769391513
C          104.78083164085905      103.00304976621973      112.97383262331016
C          103.86931340433443      103.21250003274059      111.76782660958894
C          104.34433141327941      104.30608421364130      110.80945999805668
C          104.10500698944325      105.71407354544023      111.34620596199188
C          104.41452794038558      106.80031773238120      110.31870488801934
C          104.08328993059047      108.18489015126308      110.86714037327681
C          104.33739610421685      109.31165705975262      109.86992954922862
C          103.97727881458502      110.66418975258557      110.47757031649013
C          104.22727588833091      111.84153025801099      109.53998538045489
C          103.91353039899873      113.16399926091344      110.23439184423903
C          104.16951338470287      114.38019054265595      109.35014094194329
C          103.94904793895161      115.68186536511708      110.11658826210912
C          104.32476705505569      116.92024216004660      109.30804490027255
C          104.22660514972732      118.19457479767632      110.14384066914407
C          104.81920586858057      119.40086315668279      109.42053028436496
C          104.90313512660674      120.65373562403666      110.29338080510404
C          103.55927811137751      121.31781954735824      110.58932330812696
C          102.95042159750508      121.99619521521316      109.36602690182407
C          101.65257173447920      122.72891164834417      109.69339067819877
C          101.02735380458374      123.36032971045060      108.45250840821032
C           99.75300245058118      124.13133682485025      108.78385536367836
C           99.17113979773187      124.88557159455630      107.58736256896378
C           98.62885485417088      123.98949793436869      106.47246974268000
C           97.35943646489051      123.24321570913814      106.87544377869214
C           96.78767913091195      122.37538120253049      105.75429371602117
C           97.65948155040532      121.15963272105283      105.44815660771681
C           96.98302785316721      120.13572123200863      104.53653724645851
C           96.61490961864004      120.65541932019406      103.14641665156584
C           97.82529824404216      120.99061198139481      102.27771272081714
C           97.39930101566161      121.57961787503457      100.93460501047996
C           98.54462495277834      121.71073573498938       99.93053289219290
C           99.68765610903719      122.60171010227117      100.41164618035153
C          100.67029131545884      122.91888449733887       99.28559858800870
C          101.89327415397605      123.67699809263857       99.79565399310611
C          102.79380826878229      124.15622177347919       98.65967335622749
C          104.12542266233339      124.72889218221923       99.14519192111821
C          103.97172039763798      125.99431623881084       99.98502612484256
C          105.32569465989738      126.60168605681083      100.34546844438349
C          105.21261698792327      127.86866106224990      101.19413348549872
C          104.73297584854481      127.59481137723935      102.61753435749760
C          104.64329660914360      128.87371774067088      103.44674159960714
C          104.14360470194561      128.62442256091290      104.87104263712742
C          102.63741403991494      128.37997746459047      104.94837183040336
C          102.18810883098259      127.84558933899018      106.30864885859182
C          102.44684191521789      128.81217948363823      107.46391976059793
C          101.74616750231093      128.39583944966020      108.75945998574338
C          102.24025962872471      127.07470551916047      109.34887566417356
C          103.62977586673296      127.15629746555803      109.97782194793182
C          104.17862498698280      125.76540841406553      110.28502862741954
C          105.49918747534694      125.80382560016054      111.04658796804402
C          106.12887127781897      124.41917061348872      111.16099984405294
C          107.42987930843918      124.43990080950515      111.95760173547495
C          108.17550360119670      123.10515286738523      111.92033744414337
C          108.85399002600582      122.78333428822960      110.58768680061385
C          109.92962126494980      123.80189833572275      110.20975891875673
C          110.92995801464441      123.27783851404160      109.18126507255727
C          110.31466203007402      122.96380426949230      107.82061428786528
C          111.39232489231038      122.68901285960736      106.77444204619829
C          110.80840852062532      122.32239607560211      105.41370868580381
C          111.89033948401730      122.13873746633622      104.35510897287639
C          111.34478212811875      121.79432202197094      102.96848984078264
C          110.62496448516377      120.44830279784614      102.86566356734635
C          111.53261974215876      119.25603127910350      103.15481860993953
C          110.81452020642391      117.92285388933294      102.95676705413841
C          111.75096199575282      116.71958437417338      103.06875768835273
C          112.23085233561216      116.43247231062050      104.48940786540486
C          113.34597454125142      115.39046142782702      104.50171329646777
C          113.89902972213504      115.14323909415477      105.90190417096166
C          115.15473496892751      114.27541900238141      105.88571799846454
C          115.74366008613016      114.09525119803777      107.28145943877196
C          117.02402389982709      113.26547129871405      107.27914768708081
C          117.60703565591103      113.11378789126947      108.68164477198972
C          118.93052398512077      112.35585632216227      108.68165503486009
C          119.47525827746081      112.12398743317779      110.08857639499993
C          120.86040843985128      111.48454575634858      110.06169027243840
C          121.37315714951747      111.14551907880757      111.45922436384544
C          122.86845955901505      110.82761158887907      111.48626401577370
C          123.25558548006238      109.66138420632288      110.58065132034888
C          124.73222438350663      109.30000475802136      110.72006969157259
C          125.14875572858537      108.12364891488417      109.83626684391606
C          125.21978292349043      108.46777636496545      108.34905558426928
C          125.62657729400767      107.25015317554049      107.52245136281230
C          125.87229484634248      107.54930115500855      106.04363422701581
C          124.62307030760873      108.01177556917362      105.29665648484831
C          124.84411095192908      108.04328198622449      103.78584035893721
C          123.62884015469741      108.58771409991800      103.03999614032324
C          123.83303354514939      108.58686641138159      101.52677065995690
C          122.65318060773663      109.18184050629152      100.75614803946213
C          122.51378363203870      110.69223593119919      100.94215575231698
C          121.50705090199430      111.33137681381375       99.98529691989756
C          120.08319688187396      110.83281642909515      100.19362018020129
H          121.52948540600900      112.41347956716992      100.13450326877825
H          121.81214150244232      111.13429633356502       98.95387796789171
H          122.20949198774547      110.91536150925344      101.96653807886675
H          123.49148770449401      111.15573344362519      100.77945904747861
H          122.79010739636402      108.97212427466182       99.69215843087196
H          121.73618219331330      108.68349496557985      101.07533012528680
H          124.74014729669251      109.14789801157497      101.28479578976203
H          123.99043382971485      107.55728997390344      101.19264186827476
H          122.75147788454314      107.98543596925639      103.28834629262271
H          123.43864448282325      109.60554424595971      103.38233777246610
H          125.71275884365139      108.66884139753982      103.56234272146381
H          125.07000624284603      107.03424955104884      103.42997440379359
H          123.79439417814301      107.33682772825097      105.52497125879985
H          124.34136122223831      109.01084343088471      105.63373936983740
H          126.65133751183623      108.31060403072986      105.95184079644876
H          126.24868930673659      106.63923184413567      105.56763506679232
H          126.54192832441275      106.82652981262181      107.94600168789128
H          124.84421632102242      106.49153279139838      107.60718375028597
H          124.24762462838802      108.82555308884693      108.00940813830873
H          125.94632933439395      109.27062071403211      108.19754930539544
H          126.13300383729472      107.77153681047992      110.15853635328338
H          124.44242627668534      107.30319082758567      109.98224927589173
H          125.34591140597912      110.17119569294034      110.47458474081286
H          124.93313198021191      109.04355865546535      111.76407213190528
H          122.64831692995281      108.78922484362009      110.83523872623188
H          123.04541777738243      109.92596992319089      109.54428972325165
H          123.42785806759895      111.71611454008010      111.18179032259181
H          123.16121140614956      110.59435004005617      112.51420618581967
H          121.19228058771695      111.99999327033092      112.11719389743290
H          120.81035271659982      110.29770768451033      111.85729718316695
H          120.82308849709159      110.57861861069206      109.45286155059954
H          121.56227923561657      112.17427330797503      109.58738826565235
H          119.53310538404425      113.07843733541530      110.61673889676774
H          118.78855152088001      111.48216091728744      110.64477023614405
H          118.79504011171370      111.38899427410334      108.18909171986044
H          119.66512574592038      112.91912085235765      108.09870080863686
H          117.76184882801337      114.10488668010061      109.11550731017466
H          116.89163315413599      112.58805423352480      109.31603921714721
H          116.81857028182776      112.27585273588839      106.86152337365085
H          117.76199013605742      113.74812061031980      106.63498909089346
H          115.95688780878345      115.07757288605802      107.71089108006451
H          115.00359820502221      113.61256895164166      107.92243795310323
H          114.91136541378768      113.29744679590418      105.46450365500293
H          115.90418601162536      114.73360152055946      105.23411771215278
H          114.13430927284450      116.10297973438949      106.36744494991028
H          113.13374699262634      114.66129860924322      106.51439756210807
H          112.97602377311733      114.45168131867833      104.08202306262325
H          114.15532130750678      115.73753550342498      103.85533006314911
H          112.60487512124861      117.34968545717084      104.94768064855292
H          111.39049517246826      116.08178916357883      105.09362693198138
H          111.23812471800404      115.83385777739333      102.68869570922931
H          112.62004439531776      116.89267194037622      102.42786291967070
H          110.00859307995947      117.83097960141654      103.68881973715968
H          110.35960900826751      117.91756337689483      101.96238135756033
H          112.39828950539837      119.30034794308443      102.48749097294666
H          111.89734171002708      119.31941273167753      104.18032902243351
H          109.77124829859076      120.42738788624924      103.54420328110164
H          110.23013754525125      120.35121970145738      101.85008719721918
H          110.65512151357382      122.58306092607896      102.65865116454253
H          112.18014225933800      121.79532919783217      102.26320114023196
H          112.45935096107179      123.06835315895762      104.27556355806189
H          112.58602634421773      121.36289101762742      104.68085692004261
H          110.23862304933937      121.39854499863115      105.51612821857464
H          110.12035595801829      123.10747820518471      105.09016421197533
H          112.02308628499594      123.57496267392351      106.66984168635069
H          112.03031152716628      121.87231237301808      107.12299098113644
H          109.65657073307980      122.09654116941734      107.90114106314662
H          109.70631569982879      123.81220444942977      107.49702868320317
H          111.70745824559113      124.03285015153627      109.04326108482573
H          111.41138127439687      122.37859755292632      109.57424122050786
H          109.46064869461969      124.70708113767252      109.81653531491874
H          110.48323742342728      124.08038348519406      111.11103119730130
H          109.32003603405241      121.79876723682293      110.67918334361600
H          108.10967677715117      122.71839129335531      109.79271891770311
H          108.94503162956715      123.11717887889696      112.69430468737373
H          107.47317279259462      122.30382204458009      112.16484517746335
H          108.07830935200921      125.23221419894638      111.57825923963529
H          107.19906354068485      124.68541549098379      112.99822074890524
H          105.42489194057573      123.73463123449432      111.63932902082884
H          106.31973023918549      124.04183808741520      110.15501627906849
H          106.19545447703864      126.46649605798950      110.52640688487242
H          105.33412034022119      126.22195892635011      112.04328025968577
H          103.44608519072237      125.20636132764784      110.87158599692233
H          104.32454698671539      125.22769764366546      109.34487516854595
H          104.31736407382503      127.66641528904785      109.30087849257488
H          103.57935903905721      127.74354217862316      110.89847618576010
H          101.53085296871865      126.75180106532042      110.11502466758223
H          102.24201474708960      126.31078462167902      108.57090245302152
H          101.87973601786021      129.18424491796716      109.50376189964176
H          100.67393613031710      128.31107536150549      108.56024185934255
H          103.51962960857989      128.89688647526560      107.64091123124206
H          102.08360686115820      129.80378170375812      107.17944700109287
H          101.11555066818215      127.63555931672151      106.26121982577754
H          102.70388793042763      126.90170127685603      106.49530607162882
H          102.10850092134402      129.31104812516267      104.72803771966930
H          102.34946874516949      127.65150686832811      104.18771289307934
H          104.67006911166709      127.76075949156363      105.28182550422619
H          104.39250158021160      129.49235965839691      105.48453668752106
H          105.63560930710240      129.33066418086301      103.49326123652853
H          103.97969383164200      129.58535813318815      102.94887734319529
H          103.75449424204326      127.11531128451941      102.58585709495721
H          105.42633985247753      126.90208701355573      103.10166718738998
H          106.19301937865096      128.35075595573460      101.24122773592838
H          104.52703833376766      128.56862901939087      100.70930400537422
H          105.91810447984858      125.86273356494344      100.88772821593844
H          105.86105374701195      126.84071503460049       99.42244640957325
H          103.38303552576113      126.72911607571938       99.42934220254880
H          103.42954679883663      125.75141555274006      100.89869807359135
H          104.64624103301222      123.97154208048475       99.73577973938356
H          104.74928226339263      124.95218897634956       98.27552006165892
H          103.00073324577872      123.31312324284292       97.99701079969448
H          102.26574006362601      124.91345305006485       98.07421079826842
H          101.55681553491080      124.53175911685126      100.38495255153931
H          102.46765032802631      123.02292127997376      100.45581196744021
H          100.99171544859549      121.98908854811144       98.80977299912765
H          100.16396818070481      123.51760048532223       98.52372851262326
H           99.28091260885532      123.53669104257644      100.80563643450911
H          100.22363370924724      122.10452029369655      101.22216523275699
H           98.93971943965289      120.71862394034302       99.70608410501606
H           98.14266859576060      122.12318346013920       99.00062309697472
H           96.62766887879262      120.94020360378904      100.49584905300134
H           96.94989674223012      122.56262414230144      101.10070066304468
H           98.46208377484889      121.70749390967983      102.79593170432655
H           98.40836928314009      120.08324621050708      102.10773801640434
H           96.02324506438325      119.88823857402227      102.63919298922869
H           95.98087497880138      121.53914568031217      103.24181608325844
H           97.65116299711561      119.27757183877259      104.42295992253726
H           96.07167917792289      119.78093320867356      105.02615870744341
H           98.59640542130690      121.48399326256900      104.99522918358547
H           97.90478371027982      120.66237798692001      106.39069788883046
H           95.79448868504973      122.02635225654265      106.05091061248797
H           96.66864606871910      122.98613066279111      104.85693450402316
H           97.56333525453499      122.60784073940904      107.73783873755509
H           96.60466970633152      123.97549335119808      107.17620807804187
H           98.40706931025123      124.61303639296599      105.60143247433263
H           99.39908482137342      123.27803880765264      106.17718009292358
H           98.36434422192161      125.53673736110861      107.93701849136464
H           99.95079470577618      125.53105255767173      107.17348007082772
H           99.00779066440717      123.44388317282947      109.18736328385705
H           99.97958627225151      124.85728212577158      109.56819751370861
H          101.74897946150497      124.04153401483941      107.99304925929663
H          100.80621704386172      122.57405928920795      107.72819427057669
H          100.94284375616142      122.02752516177507      110.13677742656925
H          101.85130969821010      123.50712517933738      110.43415661569618
H          103.67233033926378      122.70677076998723      108.95509728708552
H          102.74889366192851      121.24815159949269      108.59677472923281
H          102.86021295895105      120.57692703234822      110.97966287683590
H          103.70352201863990      122.07010520692859      111.36950535294591
H          105.38194694950879      120.38286129211589      111.23798101138046
H          105.54611708455695      121.38817694588131      109.80273215224315
H          105.83184136682709      119.14281570731622      109.10067359262013
H          104.24041832939494      119.60964425870320      108.51965738937264
H          103.17961104602919      118.37996718218953      110.39341295982562
H          104.76978829196159      118.04350094895102      111.07972591251831
H          105.35181210696545      116.81282627482446      108.94868872036517
H          103.67802037938057      117.00097531307979      108.43092231992831
H          102.90241985163374      115.75049831266077      110.42320698610106
H          104.55227473937576      115.66065888182364      111.02731284091062
H          105.19919522955126      114.34375789885011      108.98652853228658
H          103.51497518594530      114.34917524626056      108.47623528486572
H          102.86987813191242      113.16312778315550      110.55694778505038
H          104.52723077073590      113.24466735092493      111.13454547950910
H          105.27237722116850      111.83653411669111      109.21884590900747
H          103.61095589806487      111.74002688822668      108.64332894022590
H          102.92419387847428      110.65553387208591      110.76849307300991
H          104.55870683115639      110.81025949217482      111.39066689158093
H          105.38875498718978      109.30830382850469      109.57116404942910
H          103.74309425306703      109.14539762623001      108.96795517253940
H          103.03210403396395      108.20577736672811      111.16605517528619
H          104.67617402430092      108.36580409812717      111.76681203434188
H          105.46961224255314      106.75471686582928      110.03850881749207
H          103.82870851210780      106.62135772377296      109.41268612530317
H          103.05818719921443      105.80261971906701      111.64854469614524
H          104.71669892210673      105.88043418150458      112.23460866218137
H          105.40650384835659      104.16919716416544      110.59208914698362
H          103.80209546796874      104.20145109209273      109.86446778261158
H          103.80572915932409      102.26797974500197      111.22204278765474
H          102.86259633594963      103.45265901696185      112.11603840150630
H          104.82913430373161      103.91535857639359      113.57068092481980
H          105.79076299378889      102.77858962237862      112.62170780070340
H          104.15132919063572      100.96543273535811      113.22260733945703
H          103.31426981424659      102.10607648708167      114.27026351289339
H          105.39679937092939      102.38129315400397      115.61674396540340
H          106.22981626739460      101.24978869602707      114.54655649815371
H          104.44479045211790       99.53172305106654      115.12373671338415
H          103.86739716983291      100.63417687016195      116.36906982678362
H          106.69296197909783       99.49197900283022      116.20296285556243
H          105.39839101049347       98.83496283866350      117.19973260355226
H          105.27078916991154      101.01666673463123      118.43019010069308
H          106.64394182848679      101.60302300542438      117.49434108691642
H          108.03774488943181       99.72956337667725      118.36414019510408
H          106.66306598743975       99.13896303706973      119.28885628105427
H          106.58673832821074      101.30126879955446      120.53612190926013
H          108.01297273330773      101.84774602181453      119.65246603344961
H          109.34870182509971      100.00555010762669      120.60906701552823
H          107.90908712347560       99.34088858300902      121.37891575796878
H          107.68592720432332      101.41906929863343      122.74402643752826
H          109.12719324003965      102.07244277010925      121.97407948789176
H          109.71876757425093      101.20756268113340      124.14759395831707
H          110.47738347373810      100.20590896430950      122.90924966008012
H          108.89405192724028       98.42076286790106      123.25976018073405
H          107.82448408039374       99.46786082867941      124.19862959102144
H          108.97706767233186       97.95184912909603      125.68237285486880
H          109.52226974618901       99.59558500474493      126.00147525305863
H          111.61771171914160       99.19611217114957      124.81136933876579
H          111.03831145607496       97.63618173987247      124.22564983841386
H          110.93043992603390       96.80087703696746      126.57307702520387
H          111.53196354088143       98.35195216031279      127.15083025632897
H          113.63410042900888       98.04091059457073      125.91942421834143
H          113.01794814295697       96.55729534097549      125.19014092854650
H          112.92290316919278       95.47641277994674      127.41480117018671
H          113.41174251549553       96.98454692968247      128.18314325350227
H          115.36003970468335       95.60932376534831      128.09275121652962
H          115.57922126820951       96.88545712734492      126.90124922956308
H          114.80177061428994       95.24880175254228      125.11868185865454
H          114.77354220181955       93.99431071566434      126.35697923268883
H          117.20678317393275       94.42361391755107      126.79603352771744
H          117.20654273358441       95.63536467441062      125.51591635717848
H          116.55761161896095       93.88240789670198      123.86656466260511
H          116.59415203812087       92.66979520291864      125.14868758528911
H          119.01231308081343       93.33955949072889      125.58146597537902
H          118.94399776759590       94.31680952528205      124.11702148792460
H          118.44848644102834       91.30756557644239      124.24153884108092
H          119.98344618546049       92.06200204629074      123.82062248738966
H          118.84742005699583       93.18814929547415      121.87377757650462
H          117.36880950626747       92.32120412294866      122.28344465660184
H          118.31761544833526       91.00905576527862      120.58444939402477
H          118.70032008402097       90.15550110522064      122.07221625658687
H          120.70009120733623       90.07330790716209      120.82755811829374
H          120.98093322241709       91.34314010713109      122.01037492828657
H          121.82012669908517       92.22291443913358      119.99473644590211
H          120.25558827663690       93.01111041619316      120.17151638825327
H          119.26175396923364       91.33301067609925      118.59279131037692
H          120.84533245632190       90.58268664453686      118.42078975462039
H          121.76190858021178       92.67292931869407      117.48530599023502
H          120.22128876378112       93.48982170377734      117.74670925944554
H          120.46530877591931       92.78625381254294      115.37807504101106
H          120.64176164947489       91.10513077637003      115.88307918258640
H          119.11441491634356       91.94877944804236      116.14483131429900
H          119.79223025496447      110.93886569464385      101.23645526208449
H          119.38903579347320      111.40537650431688       99.58214200749630
H          119.99785208326745      109.78638080056113       99.91379645356885
C           98.39455477681970       99.84277570420637      103.45889537481163
C           98.36603910789592      101.23689274772953      102.84683795045592
C           98.02111267040178      102.32395521565074      103.86352811972846
C           97.98476168800826      103.69822739716726      103.20042231796036
C           97.66107594710033      104.84155635620816      104.16005110343140
C           97.62954376202468      106.17285917526669      103.41236864919242
C           97.34910414456101      107.38065327136684      104.30324063773254
C           97.29419417959461      108.66498036980728      103.47774932839309
C           97.12450084537643      109.92423389863977      104.32294135335989
C           96.97220805122032      111.16905671800380      103.45028738810807
C           97.03902139214505      112.46186469156115      104.25920852134539
C           96.70754567801862      113.69210680616288      103.41638128580824
C           97.02639091804387      114.98960479146470      104.15854356558232
C           96.33227984524487      116.21876656345412      103.57193572226588
C           96.63843923939932      116.50327223656264      102.10108328160190
C           98.09816452220747      116.85207103215927      101.81700429511004
C           98.27930227950256      117.28930202090820      100.36456721139537
C           99.71097424296205      117.69730329374966      100.02198184105750
C           99.82956190524949      118.10947665410538       98.55516634418559
C          101.21952279655828      118.62036042615985       98.18096726222589
C          101.26349311993840      119.08421221623323       96.72437358268080