3258
 energy: -3427.514508673135 gnorm: 0.000980096879 xtb: 6.6.1 (8d0f1dd)
C          120.19564758624300       92.06332844969776      116.14444359715064
C          120.67890872796708       92.52767242470924      117.51188535025724
C          120.33487398555452       91.53107403523364      118.61547331062621
C          120.73971349612221       92.05101018048312      119.99364057396083
C          120.39579761620205       91.08128408027198      121.12670055715930
C          118.91081516684216       91.06268906202546      121.49870553802673
C          118.45687820222810       92.27261743652490      122.31966068321837
C          118.89851546405980       92.18996181703267      123.77926095082525
C          118.53408171446038       93.42697714405490      124.60134289943016
C          117.03152757988558       93.61253875328008      124.81095818597844
C          116.74462046183220       94.70070338989528      125.84418051657109
C          115.25054829713211       94.93196470525859      126.06054818855441
C          114.99687565171672       95.98997000718401      127.13374310228940
C          113.52435113931472       96.37857822468872      127.27934586589024
C          112.99127875860515       97.17451505283212      126.08953829221029
C          111.55935046030464       97.65444578484545      126.30913041043013
C          110.99505637011067       98.33544524997828      125.06382741683906
C          109.55018467114427       98.78588182568875      125.26722224553859
C          108.87133566002070       99.24351333113088      123.97656056499997
C          109.52093667894425      100.47929278491945      123.35595660628806
C          108.64479410965102      101.14591284087574      122.29520198274037
C          108.39394416163289      100.26873557161267      121.07065602283819
C          107.50281048429747      100.96459177099345      120.04442093315595
C          107.13117350272546      100.04142978645103      118.88809697698692
C          106.17496056501211      100.70541643134472      117.90069568341545
C          105.79499608187501       99.75706542321463      116.76648513837557
C          104.75277640234209      100.32836894436768      115.80644796575416
C          105.25821620647845      101.50745325843403      114.97725440993025
C          104.28947896544557      101.85056859667505      113.84803521490348
C          104.78093850186966      103.00304668254991      112.97479176752084
C          103.86884701791782      103.21237390604408      111.76877786867956
C          104.34433159124841      104.30583794044493      110.81000207546153
C          104.10452821543315      105.71399813787606      111.34711968670578
C          104.41450359751879      106.80001766061518      110.31893577019777
C          104.08293967589881      108.18477479601314      110.86782013172115
C          104.33754934399180      109.31137212073386      109.86992442795109
C          103.97707710882815      110.66403913429002      110.47805688561569
C          104.22756836482087      111.84120498218627      109.53972829567161
C          103.91350018266951      113.16371390214134      110.23478033520293
C          104.16959122852823      114.37979285109030      109.34972441794902
C          103.94890413336985      115.68150693899210      110.11687768594699
C          104.32462746592441      116.91992898009350      109.30770080915991
C          104.22627156527723      118.19418603330446      110.14422106421925
C          104.81884769861382      119.40052052854098      109.42022702817145
C          104.90264513992713      120.65328189666964      110.29377921914811
C          103.55832650162786      121.31712189623912      110.58963526665035
C          102.95000948318066      121.99581671151573      109.36584430570396
C          101.65194627601214      122.72868586633072      109.69348214615034
C          101.02714479748032      123.36014583364623      108.45210625216136
C           99.75267982125010      124.13134578935502      108.78391992426154
C           99.17137811420740      124.88528014942656      107.58680481668731
C           98.62936418448017      123.98853927880448      106.47222645528140
C           97.35953983929156      123.24266035777919      106.87560864950964
C           96.78796128837995      122.37509310078877      105.75407247056614
C           97.65990027443677      121.15909093289795      105.44829204083304
C           96.98280730403599      120.13521811265896      104.53654723629404
C           96.61544057085868      120.65564237884837      103.14642928055709
C           97.82636893713831      120.99076770368163      102.27820138807864
C           97.40002460640089      121.57918758958921      100.93475100300523
C           98.54531675170519      121.70979178739729       99.93067091570423
C           99.68843879175365      122.60069554633225      100.41209425942945
C          100.67064627606138      122.91807594089602       99.28556805580834
C          101.89365277115456      123.67602754650838       99.79619271764506
C          102.79426702080995      124.15559581468210       98.66021934237327
C          104.12581271767885      124.72825459644336       99.14624008909158
C          103.97133185961994      125.99369862719576       99.98611514590981
C          105.32552860765412      126.60078096470137      100.34664626376031
C          105.21235178365791      127.86797042162321      101.19495228765579
C          104.73231169826418      127.59397395378325      102.61825224374347
C          104.64333553343529      128.87307534744531      103.44733928025815
C          104.14383174870120      128.62374183393263      104.87173246014859
C          102.63744282452723      128.37981392095716      104.94891118104117
C          102.18833437835454      127.84477013123360      106.30911795762820
C          102.44747709578050      128.81185709684499      107.46419750715876
C          101.74614511573296      128.39624684528476      108.75961001011575
C          102.23954245595783      127.07484001317161      109.34937974343271
C          103.62910789076609      127.15681329970704      109.97876340576734
C          104.17793518220202      125.76543238708196      110.28518343565450
C          105.49870148218081      125.80420434415726      111.04691817921444
C          106.12829692718186      124.41921183159462      111.16131528200651
C          107.42948655616468      124.44083285724821      111.95811875242832
C          108.17499239127604      123.10576528899301      111.92073608599995
C          108.85328730841962      122.78348068584437      110.58759773062519
C          109.92914994156106      123.80224959802327      110.20976515705524
C          110.92982960313397      123.27718937420960      109.18175097707442
C          110.31431217105798      122.96308843707487      107.82084962065254
C          111.39283609830004      122.68784678437913      106.77513992972546
C          110.80837826622852      122.32174544461883      105.41408077026961
C          111.89076486380714      122.13780558857043      104.35549188226862
C          111.34476849955725      121.79413879742150      102.96858593941803
C          110.62435573137869      120.44821016216339      102.86496419852612
C          111.53262600546346      119.25612814929002      103.15474773203613
C          110.81405278824192      117.92286728415510      102.95668559525660
C          111.75084412446924      116.71944022435520      103.06824746976280
C          112.23053556771890      116.43256987185455      104.48946033905824
C          113.34619836363667      115.39056319966774      104.50130348159476
C          113.89905611799202      115.14363620580447      105.90208535347308
C          115.15490401732018      114.27528075907360      105.88556910930798
C          115.74367437058856      114.09524737550493      107.28183617881022
C          117.02438648553763      113.26525235389488      107.27917868912728
C          117.60720955796157      113.11375191966651      108.68222202739524
C          118.93089753852988      112.35536911570367      108.68188602644783
C          119.47571693621374      112.12407540917677      110.08923721214995
C          120.86107451322317      111.48428701909100      110.06178771202651
C          121.37366267897171      111.14629584459469      111.45999534855109
C          122.86911907284690      110.82835341947333      111.48649414152003
C          123.25549102969396      109.66167158447445      110.58081305555540
C          124.73231038208746      109.30019124020912      110.72054552649617
C          125.14797727588422      108.12355766344416      109.83669607728986
C          125.21852503694369      108.46778252280080      108.34929411075657
C          125.62576403807985      107.24972875303325      107.52316157160647
C          125.87192654836228      107.54896239316272      106.04443328830122
C          124.62275505415381      108.01213975402685      105.29743852155211
C          124.84415562174615      108.04271866492807      103.78649056491076
C          123.62879175704481      108.58789026474227      103.04091754628440
C          123.83306930564225      108.58674027797534      101.52751614570317
C          122.65300314825448      109.18150322867912      100.75679606519527
C          122.51420927962333      110.69225920333770      100.94246714518938
C          121.50804078188550      111.33157047421545       99.98487941755002
C          120.08355354044033      110.83353322445446      100.19325771861895
H          121.53023283733833      112.41342665516233      100.13392574847016
H          121.81190156163774      111.13289086075025       98.95412732133236
H          122.20980234091529      110.91630321331917      101.96666872016645
H          123.49158635932032      111.15456251703665      100.77897382053375
H          122.79003360581392      108.97228942592476       99.69321184066000
H          121.73557569065702      108.68348509200194      101.07588197405519
H          124.73899999025114      109.14858756416754      101.28644372811095
H          123.99024632554709      107.55746073536777      101.19358077014239
H          122.75044835863289      107.98693163439859      103.29004559374744
H          123.43955580259447      109.60591951009290      103.38297252029385
H          125.71175347160046      108.66861662031124      103.56351183028964
H          125.06913763387621      107.03383214311800      103.43090541307242
H          123.79281829456066      107.33861991961270      105.52642145263088
H          124.34196795536434      109.01166773706038      105.63367446343915
H          126.64987164276761      108.31054971617213      105.95315210365843
H          126.24755235890505      106.63906175147542      105.56844020108682
H          126.54082201784949      106.82706033098300      107.94692511089377
H          124.84339552131529      106.49099063041210      107.60811687011730
H          124.24610722301485      108.82517181221958      108.00950121555938
H          125.94492489202253      109.27004747570359      108.19784043884160
H          126.13199864701423      107.77199047127435      110.15816976041573
H          124.44158804486101      107.30324684172123      109.98322105006265
H          125.34508816688282      110.17111032708151      110.47442358802444
H          124.93198904424290      109.04351642323648      111.76421332509101
H          122.64747731748771      108.79016095802994      110.83583684841750
H          123.04465790356201      109.92587585842367      109.54452985406581
H          123.42727107600636      111.71679021601875      111.18160445280611
H          123.16075219823894      110.59484989120034      112.51405626321035
H          121.19265227200766      112.00179225684045      112.11599672143075
H          120.80990246207092      110.29926752860854      111.85802835855536
H          120.82271855571048      110.57851217094881      109.45309641542458
H          121.56197406147771      112.17422391738819      109.58741268594139
H          119.53348523761119      113.07879819889794      110.61609930229039
H          118.78859856649467      111.48277016132511      110.64523372173463
H          118.79469786227750      111.38875753147330      108.18971472603523
H          119.66440885011914      112.91913405731859      108.09903158836697
H          117.76201844698697      114.10484390146331      109.11499153476666
H          116.89132155941125      112.58847481551008      109.31629335321657
H          116.81863872909784      112.27612423773549      106.86146319779562
H          117.76178949712693      113.74878440081213      106.63568222546172
H          115.95693995096654      115.07735144362024      107.71072153140041
H          115.00350950057353      113.61256822530261      107.92251492978387
H          114.91100498949817      113.29763928491124      105.46481294787178
H          115.90415739884133      114.73365331476043      105.23471103782130
H          114.13471554805092      116.10311347376506      106.36728890199460
H          113.13391455642228      114.66167331205529      106.51440609504262
H          112.97644454578634      114.45182173571541      104.08246098711784
H          114.15550348840311      115.73803814128942      103.85582829375991
H          112.60456388125573      117.34939479616423      104.94772791478869
H          111.39060571348128      116.08107058493434      105.09331801964906
H          111.23788524445202      115.83375371994049      102.68918476588671
H          112.62011843901584      116.89262260397936      102.42845657095623
H          110.00844106787106      117.82999745942716      103.68873940848589
H          110.35956075725670      117.91751473208994      101.96263451173442
H          112.39746284616164      119.30014295013925      102.48711827213369
H          111.89694736072215      119.31955810158603      104.18021060494627
H          109.77047008527074      120.42645773311513      103.54311463557747
H          110.23079101164808      120.35086026326418      101.84930243666562
H          110.65485785293195      122.58243848111115      102.65974335539700
H          112.17992136799971      121.79437459439485      102.26381756719314
H          112.45891559145809      123.06722216199877      104.27624998899626
H          112.58572546643354      121.36172742572097      104.68146946032091
H          110.23798827157583      121.39824851705251      105.51623687665679
H          110.12139782066562      123.10735879694171      105.09089943291194
H          112.02268327128901      123.57372068935638      106.67046795523449
H          112.03003751375886      121.87074267470869      107.12384027160759
H          109.65601934583637      122.09608330327448      107.90150054515493
H          109.70687933560075      123.81157110811543      107.49718779158903
H          111.70678415174378      124.03199998262588      109.04339087559602
H          111.41047622653633      122.37773632617562      109.57481903802619
H          109.45991726178244      124.70639293533274      109.81594074876718
H          110.48227585637383      124.07967736029012      111.11106021608502
H          109.31900308852448      121.79887351452000      110.67926871082537
H          108.10879395312429      122.71839606913497      109.79308693285439
H          108.94477374894832      123.11745131643657      112.69408056878795
H          107.47258017792495      122.30441401407944      112.16485710334604
H          108.07758006440400      125.23269194780366      111.57858961114765
H          107.19809781378262      124.68504728326707      112.99851271142738
H          105.42495556698263      123.73431124803996      111.64002779025149
H          106.31931651895853      124.04141520025772      110.15560946812445
H          106.19504417710341      126.46570198004467      110.52635933996487
H          105.33373341308393      126.22136499209776      112.04351593858574
H          103.44602531503978      125.20572840558249      110.87173933064201
H          104.32438497260055      125.22773275812230      109.34520539097518
H          104.31688730609889      127.66635943592524      109.30218088218392
H          103.57852129922686      127.74222838110636      110.90006298839592
H          101.53066650312577      126.75189076367036      110.11568515682676
H          102.24233629030607      126.31064907086252      108.57173900268086
H          101.87961121008128      129.18385849289677      109.50424760356731
H          100.67454661972519      128.31011299069169      108.56014154764628
H          103.52008239734782      128.89690721539534      107.64132215400063
H          102.08344998836021      129.80240029106409      107.17933522387307
H          101.11589199374559      127.63565771560346      106.26209334998767
H          102.70375938307149      126.90026998094324      106.49536999613282
H          102.10934063861997      129.31100233727625      104.73017635102826
H          102.34904418568618      127.65175036882752      104.18825737187430
H          104.66995290562593      127.75971654585986      105.28259151802752
H          104.39272987974009      129.49151096010345      105.48498108804019
H          105.63567844495172      129.32932609742477      103.49396073007291
H          103.97945467975325      129.58394192813296      102.94995603507324
H          103.75357121339314      127.11528443319818      102.58625041442710
H          105.42486213446080      126.90036267624932      103.10259233730663
H          106.19268364362800      128.34959040608356      101.24220699376217
H          104.52643902367167      128.56687563211909      100.71032577115817
H          105.91785606970539      125.86158943589139      100.88897862244946
H          105.86058504589575      126.83938139355396       99.42372011838378
H          103.38381589205073      126.72793601755680       99.42965320843294
H          103.42884938952457      125.75074686091713      100.89951774799781
H          104.64690133885189      123.97081929768628       99.73691803039166
H          104.74976335227761      124.95193013468608       98.27705081495596
H          103.00128438907349      123.31296839017423       97.99717691323910
H          102.26643633932640      124.91329766135622       98.07631443838129
H          101.55702806723100      124.53064100686362      100.38511719803554
H          102.46779908395648      123.02172192954258      100.45674789439919
H          100.99204577869376      121.98853299035260       98.80942546183533
H          100.16446556223812      123.51751824779191       98.52503917201412
H           99.28185262523371      123.53539061945450      100.80594381386445
H          100.22482821784837      122.10328902845096      101.22250210118693
H           98.94043399492733      120.71779835263052       99.70602260097780
H           98.14381756999947      122.12299594332887       99.00147706569969
H           96.62892709000594      120.93939741923927      100.49667308183680
H           96.95157219952463      122.56198522659354      101.10125388347751
H           98.46247326787224      121.70822673153243      102.79641105384378
H           98.41053021508282      120.08373401314849      102.10946032596966
H           96.02420854900858      119.88858692296910      102.63941594132839
H           95.98259678996577      121.53950154146600      103.24250361372310
H           97.65077678261024      119.27664855839008      104.42403219498124
H           96.07156650367108      119.78147669401496      105.02637148119076
H           98.59669871643155      121.48313571710439      104.99489134905042
H           97.90620761146371      120.66164506366577      106.39073813477312
H           95.79535797381718      122.02579150958526      106.05047009135363
H           96.67081225250276      122.98538699367487      104.85683782917303
H           97.56332107900992      122.60729629831530      107.73816022857649
H           96.60570082879656      123.97538717943171      107.17541213027744
H           98.40748294477265      124.61194877680289      105.60188947358719
H           99.39969436707941      123.27710231171808      106.17696610858511
H           98.36475236983610      125.53508037722632      107.93705005001301
H           99.95138766260422      125.53009945154183      107.17360915583704
H           99.00854544837850      123.44299390640347      109.18732050057203
H           99.98028922640542      124.85651226636261      109.56824126730150
H          101.74948440777275      124.04058492923151      107.99353696777176
H          100.80615093665331      122.57328080894428      107.72870084270873
H          100.94296787171076      122.02672247288039      110.13666121514504
H          101.85160772442677      123.50619759525769      110.43421882127544
H          103.67250102577771      122.70588154427200      108.95611130239662
H          102.74876871030696      121.24741616116985      108.59717272076259
H          102.85978084504507      120.57579020134125      110.97951361364807
H          103.70324466410885      122.06863494659939      111.36994251345831
H          105.38136132874718      120.38185609857906      111.23796610281669
H          105.54515074748885      121.38729093614964      109.80271648833528
H          105.83128771561439      119.14245870106713      109.10063998837143
H          104.23940964230549      119.60900020356571      108.52020610771206
H          103.17960818430210      118.37940681265206      110.39322557531251
H          104.76973866600689      118.04303916074956      111.07966190652084
H          105.35145064088093      116.81245655484388      108.94878758933774
H          103.67747936705933      117.00046819533397      108.43155118588928
H          102.90251454864311      115.74977152113769      110.42285962104248
H          104.55218590035516      115.66007165793891      111.02723791217927
H          105.19903652318771      114.34306404935984      108.98645843804242
H          103.51477937618749      114.34850273645741      108.47661008628603
H          102.86999679608763      113.16263674226664      110.55661957739323
H          104.52711041927805      113.24442905776668      111.13460387837945
H          105.27244532704680      111.83610585226491      109.21898682454517
H          103.61093471837526      111.73991172613368      108.64379703313728
H          102.92411894122527      110.65540947220255      110.76809478213876
H          104.55833746389537      110.81016940220434      111.39084617245780
H          105.38866888551736      109.30833022189154      109.57158964211895
H          103.74301896042664      109.14530577319971      108.96856968099179
H          103.03185551397770      108.20566269207752      111.16558246104465
H          104.67558660569503      108.36579096424582      111.76714554803550
H          105.46935418408167      106.75461676755629      110.03904489140949
H          103.82849002251203      106.62132343180316      109.41351256404411
H          103.05779322820439      105.80250126239218      111.64818620424744
H          104.71595205732120      105.88063050875589      112.23519030033489
H          105.40637328393382      104.16933506064484      110.59317702990437
H          103.80209361489956      104.20168377885258      109.86540689946904
H          103.80573571872321      102.26837332132172      111.22276510378443
H          102.86266343727820      103.45322211609582      112.11690771995337
H          104.82878011914160      103.91529651932170      113.57124345134707
H          105.79039236674308      102.77881746433006      112.62187760105135
H          104.15208138071988      100.96556849222324      113.22241841044827
H          103.31439332658977      102.10581498839841      114.27009089960730
H          105.39629784980130      102.38132030539091      115.61682172677934
H          106.22952249857741      101.24991081291795      114.54687463770244
H          104.44508311961245       99.53186262868685      115.12412811135107
H          103.86790571746623      100.63450873626782      116.36960095720913
H          106.69297293899118       99.49208914098341      116.20332588239908
H          105.39823888272696       98.83574167282032      117.20061421321708
H          105.27096560567864      101.01597888903102      118.43047239254940
H          106.64373781569572      101.60335025306124      117.49463814007379
H          108.03776023162293       99.72934283726403      118.36406581284484
H          106.66289450351218       99.13948873977735      119.28887829730569
H          106.58642484825766      101.30024416406842      120.53592533375600
H          108.01247253064166      101.84790283502926      119.65254350667506
H          109.34836455223189      100.00526180630474      120.60920054935796
H          107.90853487614086       99.34145149785657      121.37897032091364
H          107.68576898842321      101.41834351175321      122.74414152214214
H          109.12700308602332      102.07249371890434      121.97458223052622
H          109.71823075376946      101.20666751217851      124.14757958777058
H          110.47720236175712      100.20566570708743      122.90910362187152
H          108.89349907892587       98.42047806165004      123.25908815908592
H          107.82451906324758       99.46805605173378      124.19840359875636
H          108.97720261394701       97.95162329524126      125.68175213403076
H          109.52269752564608       99.59558831925320      126.00014229224448
H          111.61777161360202       99.19563388849177      124.81127157535005
H          111.03852100976708       97.63610233158050      124.22493439851438
H          110.93022670141352       96.80029034083127      126.57233487301446
H          111.53174289060728       98.35160374965531      127.14990382392607
H          113.63337282871801       98.04120502887243      125.91932958237844
H          113.01789718230172       96.55775948831088      125.18924643459361
H          112.92276483429200       95.47615839019866      127.41367147711644
H          113.41151786088886       96.98443934397910      128.18205141365760
H          115.35917416101015       95.60832949425796      128.09145041932140
H          115.57911804965222       96.88534765697344      126.90122484525818
H          114.80096492532350       95.24811799645106      125.11766158910959
H          114.77350646595983       93.99439480810686      126.35641367619904
H          117.20528043818652       94.42250456983597      126.79534401867204
H          117.20692358724571       95.63511093277974      125.51608713618616
H          116.55695057295812       93.88247875178787      123.86572440466688
H          116.59330229485280       92.67001040523301      125.14789984499092
H          119.01076768288988       93.33909552110558      125.58123487469160
H          118.94350005631193       94.31698199697676      124.11708322199327
H          118.44681138469873       91.30797249558013      124.24035020413748
H          119.98235492411301       92.06183577558845      123.82026334690468
H          118.84705150660723       93.18959968217793      121.87416189351497
H          117.36833060689835       92.32233555960758      122.28300143218492
H          118.31688733099907       91.00886079171461      120.58466450774834
H          118.70063744133199       90.15718582675002      122.07309914034684
H          120.69951360729310       90.07534407525044      120.82675599769536
H          120.98014155891981       91.34486094420426      122.01002181388678
H          121.81901730143139       92.22463908523993      119.99441787361151
H          120.25488245708040       93.01307961783974      120.17160837904434
H          119.26137235689886       91.33307733223202      118.59243383049345
H          120.84591964653876       90.58485756052855      118.42121887320181
H          121.76110211997491       92.67334315434906      117.48501663915056
H          120.22089749436938       93.49119205679770      117.74595350556027
H          120.46462526943505       92.78651287466698      115.37782785345361
H          120.64147753398655       91.10573465176147      115.88377049677871
H          119.11377721877966       91.94891082390434      116.14482828382710
H          119.79180647699712      110.93941819851537      101.23616093657621
H          119.38897295437692      111.40574091404548       99.58182897395980
H          119.99799787268097      109.78699858296376       99.91394929040885
C           98.39445766210828       99.84337288409635      103.45989108509492
C           98.36605836227653      101.23707111143374      102.84691790403789
C           98.02096818528068      102.32426221295243      103.86357596382821
C           97.98461519307355      103.69833670637323      103.19967459777865
C           97.66068650924259      104.84171002272528      104.15949677773767
C           97.62942131887080      106.17295665299946      103.41125535841925
C           97.34888124402555      107.38086965391329      104.30236675773031
C           97.29424307345029      108.66518028188457      103.47634403073504
C           97.12458359645034      109.92449479847656      104.32190788252794
C           96.97223981231569      111.16924691113934      103.44874954661228
C           97.03924074366655      112.46196696249305      104.25817811280153
C           96.70770015899997      113.69229687708774      103.41512589676667
C           97.02723174037386      114.98947142094993      104.15793533600298
C           96.33295262015761      116.21896091664890      103.57159837189941
C           96.63920485309050      116.50324709091598      102.10075924032127
C           98.09917763554090      116.85191267231171      101.81678585633470
C           98.27987200878901      117.28987740698243      100.36435427115053
C           99.71194408139486      117.69746548397508      100.02221576075817
C           99.82999123292691      118.10944963143116       98.55513006850971
C          101.22029557249566      118.62015516955482       98.18139776945998
C          101.26442389744537      119.08396162664251       96.72461678295271