      -----------------------------------------------------------      
     |                   =====================                   |     
     |                           x T B                           |     
     |                   =====================                   |     
     |                         S. Grimme                         |     
     |          Mulliken Center for Theoretical Chemistry        |     
     |                    University of Bonn                     |     
      -----------------------------------------------------------      

   * xtb version 6.6.1 (8d0f1dd) compiled by 'stahn@M-Bot' on 2023-08-01

   xtb is free software: you can redistribute it and/or modify it under
   the terms of the GNU Lesser General Public License as published by
   the Free Software Foundation, either version 3 of the License, or
   (at your option) any later version.
   
   xtb is distributed in the hope that it will be useful,
   but WITHOUT ANY WARRANTY; without even the implied warranty of
   MERCHANTABILITY or FITNESS FOR A PARTICULAR PURPOSE.  See the
   GNU Lesser General Public License for more details.
   
   Cite this work as:
   * C. Bannwarth, E. Caldeweyher, S. Ehlert, A. Hansen, P. Pracht,
     J. Seibert, S. Spicher, S. Grimme, WIREs Comput. Mol. Sci., 2020, 11,
     e01493. DOI: 10.1002/wcms.1493
   
   for GFN2-xTB:
   * C. Bannwarth, S. Ehlert and S. Grimme., J. Chem. Theory Comput., 2019,
     15, 1652-1671. DOI: 10.1021/acs.jctc.8b01176
   for GFN1-xTB:
   * S. Grimme, C. Bannwarth, P. Shushkov, J. Chem. Theory Comput., 2017,
     13, 1989-2009. DOI: 10.1021/acs.jctc.7b00118
   for GFN0-xTB:
   * P. Pracht, E. Caldeweyher, S. Ehlert, S. Grimme, ChemRxiv, 2019, preprint.
     DOI: 10.26434/chemrxiv.8326202.v1
   for GFN-FF:
   * S. Spicher and S. Grimme, Angew. Chem. Int. Ed., 2020, 59, 15665-15673.
     DOI: 10.1002/anie.202004239
   
   for ALPB and GBSA implicit solvation:
   * S. Ehlert, M. Stahn, S. Spicher, S. Grimme, J. Chem. Theory Comput.,
     2021, 17, 4250-4261. DOI: 10.1021/acs.jctc.1c00471
   
   for DFT-D4:
   * E. Caldeweyher, C. Bannwarth and S. Grimme, J. Chem. Phys., 2017,
     147, 034112. DOI: 10.1063/1.4993215
   * E. Caldeweyher, S. Ehlert, A. Hansen, H. Neugebauer, S. Spicher,
     C. Bannwarth and S. Grimme, J. Chem. Phys., 2019, 150, 154122.
     DOI: 10.1063/1.5090222
   * E. Caldeweyher, J.-M. Mewes, S. Ehlert and S. Grimme, Phys. Chem. Chem. Phys.
     2020, 22, 8499-8512. DOI: 10.1039/D0CP00502A
   
   for sTDA-xTB:
   * S. Grimme and C. Bannwarth, J. Chem. Phys., 2016, 145, 054103.
     DOI: 10.1063/1.4959605
   
   in the mass-spec context:
   * V. Asgeirsson, C. Bauer and S. Grimme, Chem. Sci., 2017, 8, 4879.
     DOI: 10.1039/c7sc00601b
   * J. Koopman and S. Grimme, ACS Omega 2019, 4, 12, 15120-15133.
     DOI: 10.1021/acsomega.9b02011
   
   for metadynamics refer to:
   * S. Grimme, J. Chem. Theory Comput., 2019, 155, 2847-2862
     DOI: 10.1021/acs.jctc.9b00143
   
   for SPH calculations refer to:
   * S. Spicher and S. Grimme, J. Chem. Theory Comput., 2021, 17, 1701-1714
     DOI: 10.1021/acs.jctc.0c01306
   
   with help from (in alphabetical order)
   P. Atkinson, C. Bannwarth, F. Bohle, G. Brandenburg, E. Caldeweyher
   M. Checinski, S. Dohm, S. Ehlert, S. Ehrlich, I. Gerasimov, C. Hölzer
   A. Katbashev, J. Koopman, C. Lavigne, S. Lehtola, F. März, M. Müller,
   F. Musil, H. Neugebauer, J. Pisarek, C. Plett, P. Pracht, F. Pultar,
   J. Seibert, P. Shushkov, S. Spicher, M. Stahn, M. Steiner, T. Strunk,
   J. Stückrath, T. Rose, and J. Unsleber
   
 * started run on 2024/07/12 at 17:32:58.426     

           -------------------------------------------------
          |                Calculation Setup                |
           -------------------------------------------------

          program call               : /home/abt-grimme/AK-bin/xtb input.xyz --input input.inp --opt --gbsa water
          hostname                   : boar029.thch.uni-bonn.de
          coordinate file            : input.xyz
          omp threads                :                     8

   ID    Z sym.   atoms
    1    6 C      1-146, 294-300, 306, 309-314, 323-468, 616-622, 628,
                  631-636, 645-790, 938-944, 950, 953-958, 967-1112,
                  1260-1266, 1272, 1275-1280, 1289-1434, 1582-1588, 1594,
                  1597-1602, 1611-1756, 1904-1910, 1916, 1919-1924,
                  1933-2078, 2226-2232, 2238, 2241-2246, 2255-2400,
                  2548-2554, 2560, 2563-2568, 2577-2722, 2870-2876, 2882,
                  2885-2890, 2899-3044, 3192-3198, 3204, 3207-3212,
                  3221-3366, 3514-3520, 3526, 3529-3534, 3543-3688,
                  3836-3842, 3848, 3851-3856
    2    1 H      147-293, 301-305, 307, 308, 315-322, 469-615, 623-627, 629,
                  630, 637-644, 791-937, 945-949, 951, 952, 959-966,
                  1113-1259, 1267-1271, 1273, 1274, 1281-1288, 1435-1581,
                  1589-1593, 1595, 1596, 1603-1610, 1757-1903, 1911-1915,
                  1917, 1918, 1925-1932, 2079-2225, 2233-2237, 2239, 2240,
                  2247-2254, 2401-2547, 2555-2559, 2561, 2562, 2569-2576,
                  2723-2869, 2877-2881, 2883, 2884, 2891-2898, 3045-3191,
                  3199-3203, 3205, 3206, 3213-3220, 3367-3513, 3521-3525,
                  3527, 3528, 3535-3542, 3689-3835, 3843-3847, 3849, 3850,
                  3857-3864

molecular fragmentation (1/2 indicates fragments):
111111111111111111111111111111111111111111111111111111111111111111111111
111111111111111111111111111111111111111111111111111111111111111111111111
111111111111111111111111111111111111111111111111111111111111111111111111
111111111111111111111111111111111111111111111111111111111111111111111111
111111111111111111111111111111111122222222222222222222222222222222222222
222222222222222222222222222222222222222222222222222222222222222222222222
222222222222222222222222222222222222222222222222222222222222222222222222
222222222222222222222222222222222222222222222222222222222222222222222222
222222222222222222222222222222222222222222222222222222222222222222222222
222222222222222222222222222222222222222222222222222222222222222222222222
222222222222222222222222222222222222222222222222222222222222222222222222
222222222222222222222222222222222222222222222222222222222222222222222222
222222222222222222222222222222222222222222222222222222222222222222222222
222222222222222222222222222222222222222222222222222222222222222222222222
222222222222222222222222222222222222222222222222222222222222222222222222
222222222222222222222222222222222222222222222222222222222222222222222222
222222222222222222222222222222222222222222222222222222222222222222222222
222222222222222222222222222222222222222222222222222222222222222222222222
222222222222222222222222222222222222222222222222222222222222222222222222
222222222222222222222222222222222222222222222222222222222222222222222222
222222222222222222222222222222222222222222222222222222222222222222222222
222222222222222222222222222222222222222222222222222222222222222222222222
222222222222222222222222222222222222222222222222222222222222222222222222
222222222222222222222222222222222222222222222222222222222222222222222222
222222222222222222222222222222222222222222222222222222222222222222222222
222222222222222222222222222222222222222222222222222222222222222222222222
222222222222222222222222222222222222222222222222222222222222222222222222
222222222222222222222222222222222222222222222222222222222222222222222222
222222222222222222222222222222222222222222222222222222222222222222222222
222222222222222222222222222222222222222222222222222222222222222222222222
222222222222222222222222222222222222222222222222222222222222222222222222
222222222222222222222222222222222222222222222222222222222222222222222222
222222222222222222222222222222222222222222222222222222222222222222222222
222222222222222222222222222222222222222222222222222222222222222222222222
222222222222222222222222222222222222222222222222222222222222222222222222
222222222222222222222222222222222222222222222222222222222222222222222222
222222222222222222222222222222222222222222222222222222222222222222222222
222222222222222222222222222222222222222222222222222222222222222222222222
222222222222222222222222222222222222222222222222222222222222222222222222
222222222222222222222222222222222222222222222222222222222222222222222222
222222222222222222222222222222222222222222222222222222222222222222222222
222222222222222222222222222222222222222222222222222222222222222222222222
222222222222222222222222222222222222222222222222222222222222222222222222
222222222222222222222222222222222222222222222222222222222222222222222222
222222222222222222222222222222222222222222222222222222222222222222222222
222222222222222222222222222222222222222222222222222222222222222222222222
222222222222222222222222222222222222222222222222222222222222222222222222
222222222222222222222222222222222222222222222222222222222222222222222222
222222222222222222222222222222222222222222222222222222222222222222222222
222222222222222222222222222222222222222222222222222222222222222222222222
222222222222222222222222222222222222222222222222222222222222222222222222
222222222222222222222222222222222222222222222222222222222222222222222222
222222222222222222222222222222222222222222222222222222222222222222222222
222222222222222222222222222222222222222222222222
# atoms in fragment 1/2:   322  3542
 fragment masses (1/2) :     2085.00    22935.05
CMA distance (Bohr)    :  25.892
constraining FC (au)   :  0.0500

           -------------------------------------------------
          |                 G F N 2 - x T B                 |
           -------------------------------------------------

        Reference                      10.1021/acs.jctc.8b01176
      * Hamiltonian:
        H0-scaling (s, p, d)           1.850000    2.230000    2.230000
        zeta-weighting                 0.500000
      * Dispersion:
        s8                             2.700000
        a1                             0.520000
        a2                             5.000000
        s9                             5.000000
      * Repulsion:
        kExp                           1.500000    1.000000
        rExp                           1.000000
      * Coulomb:
        alpha                          2.000000
        third order                    shell-resolved
        anisotropic                    true
        a3                             3.000000
        a5                             4.000000
        cn-shift                       1.200000
        cn-exp                         4.000000
        max-rad                        5.000000

      * Solvation model:               GBSA
        Solvent                        water
        Parameter file                 internal GFN2-xTB/GBSA
        Dielectric constant                8.0200E+01
        Reference state                gsolv [1 M gas/solution]
        Free energy shift                  1.8574E-03 Eh       1.1656E+00 kcal/mol
        Temperature                        2.9815E+02 K
        Density                            1.0000E+00 kg/L
        Solvent mass                       1.8000E+01 g/mol
        Interaction kernel             Still
        Born radius scaling (c1)           1.5524E+00
        Born radii integrator          GBOBC
        Born offset                        2.4628E-02 a0       4.6540E-02 AA
        H-bond correction              true
        Ion screening                  false
        Surface tension                    1.0000E-05 Eh       1.5569E+01 dyn/cm
        Grid points                               230 per atom
q/qsh data taken from xtbrestart
CAMM data taken from xtbrestart

          ...................................................
          :                      SETUP                      :
          :.................................................:
          :  # basis functions                9624          :
          :  # atomic orbitals                9624          :
          :  # shells                         5784          :
          :  # electrons                      9624          :
          :  max. iterations                   250          :
          :  Hamiltonian                  GFN2-xTB          :
          :  restarted?                       true          :
          :  GBSA solvation                   true          :
          :  PC potential                    false          :
          :  electronic temp.          300.0000000     K    :
          :  accuracy                    1.0000000          :
          :  -> integral cutoff          0.2500000E+02      :
          :  -> integral neglect         0.1000000E-07      :
          :  -> SCF convergence          0.1000000E-05 Eh   :
          :  -> wf. convergence          0.1000000E-03 e    :
          :  Broyden damping             0.4000000          :
          ...................................................

 iter      E             dE          RMSdq      gap      omega  full diag
   1  -5190.4381163 -0.519044E+04  0.106E-04    3.78       0.0  T
   2  -5190.4381163 -0.133314E-07  0.874E-05    3.78      18.4  T
   3  -5190.4381163 -0.113241E-07  0.716E-05    3.78      22.5  T

   *** convergence criteria satisfied after 3 iterations ***

         #    Occupation            Energy/Eh            Energy/eV
      -------------------------------------------------------------
         1        2.0000           -0.6336669             -17.2430
       ...           ...                  ...                  ...
      4806        2.0000           -0.3651167              -9.9353
      4807        2.0000           -0.3646848              -9.9236
      4808        2.0000           -0.3640325              -9.9058
      4809        2.0000           -0.3627339              -9.8705
      4810        2.0000           -0.3622361              -9.8569
      4811        2.0000           -0.3621222              -9.8538
      4812        2.0000           -0.3594796              -9.7819 (HOMO)
      4813                         -0.2205945              -6.0027 (LUMO)
      4814                         -0.2203936              -5.9972
      4815                         -0.2200898              -5.9889
      4816                         -0.2198158              -5.9815
      4817                         -0.2198131              -5.9814
       ...                                ...                  ...
      9624                          0.6688560              18.2005
      -------------------------------------------------------------
                  HL-Gap            0.1388851 Eh            3.7793 eV
             Fermi-level           -0.2900371 Eh           -7.8923 eV

 SCC (total)                   0 d,  0 h, 17 min, 19.433 sec
 SCC setup                      ...        0 min,  2.464 sec (  0.237%)
 Dispersion                     ...        0 min,  6.716 sec (  0.646%)
 classical contributions        ...        0 min,  0.194 sec (  0.019%)
 integral evaluation            ...        0 min, 11.601 sec (  1.116%)
 iterations                     ...       10 min, 40.358 sec ( 61.606%)
 molecular gradient             ...        5 min, 50.773 sec ( 33.747%)
 printout                       ...        0 min, 27.328 sec (  2.629%)

         :::::::::::::::::::::::::::::::::::::::::::::::::::::
         ::                     SUMMARY                     ::
         :::::::::::::::::::::::::::::::::::::::::::::::::::::
         :: total energy           -5103.344822591222 Eh    ::
         :: total w/o Gsasa/hb     -5103.156874141143 Eh    ::
         :: gradient norm              0.742214866406 Eh/a0 ::
         :: HOMO-LUMO gap              3.779254753205 eV    ::
         ::.................................................::
         :: SCC energy             -5190.438116296209 Eh    ::
         :: -> isotropic ES            0.271823795886 Eh    ::
         :: -> anisotropic ES          0.842440441884 Eh    ::
         :: -> anisotropic XC          3.455208184874 Eh    ::
         :: -> dispersion             -6.909800246780 Eh    ::
         :: -> Gsolv                  -0.189464806495 Eh    ::
         ::    -> Gelec               -0.001516356416 Eh    ::
         ::    -> Gsasa               -0.182575070148 Eh    ::
         ::    -> Ghb                 -0.007230823058 Eh    ::
         ::    -> Gshift               0.001857443127 Eh    ::
         :: repulsion energy          85.979130935885 Eh    ::
         :: add. restraining           0.000000000000 Eh    ::
         :: total charge              -0.000000000031 e     ::
         :::::::::::::::::::::::::::::::::::::::::::::::::::::

      ----------------------------------------------------------- 
     |              Fast Inertial Relaxation Engine              |
      ----------------------------------------------------------- 

          ...................................................
          :                      SETUP                      :
          :.................................................:
          :   energy convergence        0.5000000E-05 Eh    :
          :   grad. convergence         0.1000000E-02 Eh/a0 :
          :   optimization log               true           :
          :   writing optlog all                1     steps :
          :   Hessian reset                    20     steps :
          :   time step scaling                 5     steps :
          :   maximium step len.        1.0000000     a0    :
          :   initial time step         0.2500000     fs    :
          :   maximum time step         1.2500000     fs    :
          :   power reset thr           0.0000000     au    :
          :   alpha parameter           0.1000000           :
          :   BFGS update                   false           :
          :   preconditioning               false           :
          ...................................................

........................................................................
.............................. CYCLE    1 ..............................
........................................................................

 iter      E             dE          RMSdq      gap      omega  full diag
   1  -5190.6492372 -0.519065E+04  0.910E-03    3.79       0.0  T
   2  -5190.6492735 -0.362448E-04  0.557E-03    3.79       1.0  T
   3  -5190.6492636  0.983343E-05  0.298E-03    3.79       1.0  T
   4  -5190.6492822 -0.185120E-04  0.784E-04    3.79       2.1  T
   5  -5190.6492839 -0.172597E-05  0.274E-04    3.79       5.9  T
   6  -5190.6492840 -0.117428E-06  0.180E-04    3.79       8.9  T
   7  -5190.6492840 -0.477448E-07  0.127E-04    3.79      12.7  T
     SCC iter.                  ...       24 min, 49.118 sec
     gradient                   ...        5 min, 55.723 sec
 * total energy  : -5103.4065751 Eh     change    :  -0.6175251E-01 Eh
   gradient norm :     0.6813261 Eh/a0  converged?    E=F G=F D=F
   time step     :     0.2500000 fs     power     :   0.3137925E-05
   step length   :     0.0869860 a0     speed     :   0.8416363E-02

........................................................................
.............................. CYCLE    2 ..............................
........................................................................

 iter      E             dE          RMSdq      gap      omega  full diag
   1  -5190.9599641 -0.519096E+04  0.132E-02    3.80       0.0  T
   2  -5190.9600410 -0.769592E-04  0.810E-03    3.80       1.0  T
   3  -5190.9600206  0.204865E-04  0.430E-03    3.80       1.0  T
   4  -5190.9600590 -0.384229E-04  0.114E-03    3.80       1.4  T
   5  -5190.9600627 -0.367833E-05  0.405E-04    3.80       4.0  T
   6  -5190.9600629 -0.247655E-06  0.270E-04    3.80       6.0  T
   7  -5190.9600630 -0.109113E-06  0.191E-04    3.80       8.4  T
     SCC iter.                  ...       24 min, 48.447 sec
     gradient                   ...        5 min, 54.865 sec
 * total energy  : -5103.4874249 Eh     change    :  -0.8084985E-01 Eh
   gradient norm :     0.5976256 Eh/a0  converged?    E=F G=F D=F
   time step     :     0.2500000 fs     power     :   0.3998396E-05
   step length   :     0.1268367 a0     speed     :   0.1227213E-01

........................................................................
.............................. CYCLE    3 ..............................
........................................................................

 iter      E             dE          RMSdq      gap      omega  full diag
   1  -5191.3629826 -0.519136E+04  0.168E-02    3.81       0.0  T
   2  -5191.3631059 -0.123295E-03  0.103E-02    3.81       1.0  T
   3  -5191.3630731  0.327337E-04  0.539E-03    3.81       1.0  T
   4  -5191.3631334 -0.602807E-04  0.145E-03    3.81       1.1  T
   5  -5191.3631394 -0.595206E-05  0.514E-04    3.81       3.1  T
   6  -5191.3631397 -0.385806E-06  0.348E-04    3.81       4.6  T
   7  -5191.3631399 -0.183548E-06  0.246E-04    3.81       6.5  T
     SCC iter.                  ...       24 min, 42.664 sec
     gradient                   ...        5 min, 53.657 sec
 * total energy  : -5103.5750814 Eh     change    :  -0.8765642E-01 Eh
   gradient norm :     0.4989249 Eh/a0  converged?    E=F G=F D=F
   time step     :     0.2500000 fs     power     :   0.4190133E-05
   step length   :     0.1616480 a0     speed     :   0.1564031E-01

........................................................................
.............................. CYCLE    4 ..............................
........................................................................

 iter      E             dE          RMSdq      gap      omega  full diag
   1  -5191.8503706 -0.519185E+04  0.196E-02    3.83       0.0  T
   2  -5191.8505359 -0.165244E-03  0.120E-02    3.83       1.0  T
   3  -5191.8504913  0.445719E-04  0.617E-03    3.83       1.0  T
   4  -5191.8505707 -0.794174E-04  0.167E-03    3.83       1.0  T
   5  -5191.8505788 -0.811060E-05  0.597E-04    3.83       2.7  T
   6  -5191.8505793 -0.494427E-06  0.410E-04    3.83       3.9  T
   7  -5191.8505796 -0.259509E-06  0.290E-04    3.83       5.6  T
     SCC iter.                  ...       24 min, 45.128 sec
     gradient                   ...        6 min,  1.612 sec
 * total energy  : -5103.6573870 Eh     change    :  -0.8230562E-01 Eh
   gradient norm :     0.3998278 Eh/a0  converged?    E=F G=F D=F
   time step     :     0.2500000 fs     power     :   0.3758466E-05
   step length   :     0.1901505 a0     speed     :   0.1839808E-01

........................................................................
.............................. CYCLE    5 ..............................
........................................................................

 iter      E             dE          RMSdq      gap      omega  full diag
   1  -5192.4138580 -0.519241E+04  0.215E-02    3.84       0.0  T
   2  -5192.4140491 -0.191088E-03  0.130E-02    3.84       1.0  T
   3  -5192.4139953  0.538634E-04  0.656E-03    3.84       1.0  T
   4  -5192.4140863 -0.910781E-04  0.181E-03    3.84       1.0  T
   5  -5192.4140960 -0.964085E-05  0.647E-04    3.84       2.5  T
   6  -5192.4140965 -0.538023E-06  0.451E-04    3.84       3.6  T
   7  -5192.4140969 -0.322160E-06  0.317E-04    3.84       5.1  T
     SCC iter.                  ...       24 min, 50.710 sec
     gradient                   ...        5 min, 55.595 sec
 * total energy  : -5103.7251228 Eh     change    :  -0.6773581E-01 Eh
   gradient norm :     0.3234464 Eh/a0  converged?    E=F G=F D=F
   time step     :     0.2500000 fs     power     :   0.2899817E-05
   step length   :     0.2112332 a0     speed     :   0.2043795E-01

........................................................................
.............................. CYCLE    6 ..............................
........................................................................

 iter      E             dE          RMSdq      gap      omega  full diag
   1  -5193.1102772 -0.519311E+04  0.244E-02    3.86       0.0  T
   2  -5193.1105074 -0.230180E-03  0.148E-02    3.86       1.0  T
   3  -5193.1104369  0.704358E-04  0.709E-03    3.86       1.0  T
   4  -5193.1105469 -0.110027E-03  0.200E-03    3.86       1.0  T
   5  -5193.1105591 -0.121538E-04  0.719E-04    3.86       2.2  T
   6  -5193.1105597 -0.589269E-06  0.506E-04    3.86       3.2  T
   7  -5193.1105601 -0.416612E-06  0.351E-04    3.85       4.6  T
     SCC iter.                  ...       24 min, 46.036 sec
     gradient                   ...        5 min, 53.092 sec
 * total energy  : -5103.7786766 Eh     change    :  -0.5355380E-01 Eh
   gradient norm :     0.2954140 Eh/a0  converged?    E=F G=F D=F
   time step     :     0.2750000 fs     power     :   0.1828089E-05
   step length   :     0.2475967 a0     speed     :   0.2177847E-01

........................................................................
.............................. CYCLE    7 ..............................
........................................................................

 iter      E             dE          RMSdq      gap      omega  full diag
   1  -5193.9310756 -0.519393E+04  0.259E-02    3.88       0.0  T
   2  -5193.9312975 -0.221910E-03  0.156E-02    3.87       1.0  T
   3  -5193.9312225  0.750414E-04  0.678E-03    3.87       1.0  T
   4  -5193.9313287 -0.106197E-03  0.200E-03    3.87       1.0  T
   5  -5193.9313413 -0.125883E-04  0.740E-04    3.87       2.2  T
   6  -5193.9313418 -0.535899E-06  0.518E-04    3.87       3.1  T
   7  -5193.9313423 -0.465579E-06  0.352E-04    3.87       4.6  T
     SCC iter.                  ...       24 min, 50.475 sec
     gradient                   ...        5 min, 54.595 sec
 * total energy  : -5103.8165259 Eh     change    :  -0.3784929E-01 Eh
   gradient norm :     0.3251549 Eh/a0  converged?    E=F G=F D=F
   time step     :     0.3025000 fs     power     :   0.9845919E-06
   step length   :     0.2761361 a0     speed     :   0.2208071E-01

........................................................................
.............................. CYCLE    8 ..............................
........................................................................

 iter      E             dE          RMSdq      gap      omega  full diag
   1  -5194.8410136 -0.519484E+04  0.258E-02    3.89       0.0  T
   2  -5194.8411779 -0.164325E-03  0.153E-02    3.89       1.0  T
   3  -5194.8411244  0.535419E-04  0.542E-03    3.89       1.0  T
   4  -5194.8411944 -0.699833E-04  0.175E-03    3.89       1.0  T
   5  -5194.8412043 -0.993708E-05  0.700E-04    3.89       2.3  T
   6  -5194.8412047 -0.440748E-06  0.459E-04    3.88       3.5  T
   7  -5194.8412051 -0.418530E-06  0.305E-04    3.88       5.3  T
     SCC iter.                  ...       24 min, 55.969 sec
     gradient                   ...        5 min, 55.544 sec
 * total energy  : -5103.8470892 Eh     change    :  -0.3056330E-01 Eh
   gradient norm :     0.3684581 Eh/a0  converged?    E=F G=F D=F
   time step     :     0.3327500 fs     power     :   0.7160652E-06
   step length   :     0.2963138 a0     speed     :   0.2154016E-01

........................................................................
.............................. CYCLE    9 ..............................
........................................................................

 iter      E             dE          RMSdq      gap      omega  full diag
   1  -5195.7970324 -0.519580E+04  0.253E-02    3.90       0.0  T
   2  -5195.7971307 -0.982951E-04  0.148E-02    3.90       1.0  T
   3  -5195.7971156  0.150982E-04  0.350E-03    3.90       1.0  T
   4  -5195.7971396 -0.240223E-04  0.121E-03    3.90       1.3  T
   5  -5195.7971435 -0.381863E-05  0.613E-04    3.90       2.6  T
   6  -5195.7971438 -0.353931E-06  0.345E-04    3.90       4.7  T
   7  -5195.7971441 -0.289875E-06  0.232E-04    3.89       6.9  T
     SCC iter.                  ...       24 min, 46.194 sec
     gradient                   ...        5 min, 50.997 sec
 * total energy  : -5103.8836397 Eh     change    :  -0.3655052E-01 Eh
   gradient norm :     0.3796949 Eh/a0  converged?    E=F G=F D=F
   time step     :     0.3660250 fs     power     :   0.9559627E-06
   step length   :     0.3166004 a0     speed     :   0.2092261E-01

........................................................................
.............................. CYCLE   10 ..............................
........................................................................

 iter      E             dE          RMSdq      gap      omega  full diag
   1  -5196.7542544 -0.519675E+04  0.260E-02    3.91       0.0  T
   2  -5196.7543318 -0.774154E-04  0.152E-02    3.90       1.0  T
   3  -5196.7542956  0.362092E-04  0.425E-03    3.90       1.0  T
   4  -5196.7543458 -0.502018E-04  0.107E-03    3.90       1.5  T
   5  -5196.7543484 -0.262577E-05  0.523E-04    3.90       3.1  T
   6  -5196.7543486 -0.242171E-06  0.318E-04    3.90       5.1  T
   7  -5196.7543488 -0.173870E-06  0.187E-04    3.90       8.6  T
     SCC iter.                  ...       25 min, 13.982 sec
     gradient                   ...        6 min, 19.496 sec
 * total energy  : -5103.9329513 Eh     change    :  -0.4931158E-01 Eh
   gradient norm :     0.3342301 Eh/a0  converged?    E=F G=F D=F
   time step     :     0.4026275 fs     power     :   0.1240404E-05
   step length   :     0.3464169 a0     speed     :   0.2081186E-01

........................................................................
.............................. CYCLE   11 ..............................
........................................................................

 iter      E             dE          RMSdq      gap      omega  full diag
   1  -5197.6630011 -0.519766E+04  0.289E-02    3.90       0.0  T
   2  -5197.6631387 -0.137578E-03  0.171E-02    3.90       1.0  T
   3  -5197.6630252  0.113502E-03  0.710E-03    3.90       1.0  T
   4  -5197.6631790 -0.153833E-03  0.138E-03    3.90       1.2  T
   5  -5197.6631834 -0.432084E-05  0.587E-04    3.90       2.7  T
   6  -5197.6631841 -0.743978E-06  0.289E-04    3.90       5.6  T
   7  -5197.6631842 -0.528617E-07  0.145E-04    3.90      11.1  T
     SCC iter.                  ...       24 min, 50.133 sec
     gradient                   ...        5 min, 52.880 sec
 * total energy  : -5103.9839892 Eh     change    :  -0.5103794E-01 Eh
   gradient norm :     0.2345798 Eh/a0  converged?    E=F G=F D=F
   time step     :     0.4428903 fs     power     :   0.9521309E-06
   step length   :     0.3877511 a0     speed     :   0.2117737E-01

........................................................................
.............................. CYCLE   12 ..............................
........................................................................

 iter      E             dE          RMSdq      gap      omega  full diag
   1  -5198.4660675 -0.519847E+04  0.326E-02    3.90       0.0  T
   2  -5198.4663191 -0.251547E-03  0.197E-02    3.90       1.0  T
   3  -5198.4661511  0.167915E-03  0.942E-03    3.89       1.0  T
   4  -5198.4663972 -0.246067E-03  0.180E-03    3.89       1.0  T
   5  -5198.4664053 -0.809693E-05  0.682E-04    3.89       2.4  T
   6  -5198.4664063 -0.997395E-06  0.347E-04    3.89       4.6  T
   7  -5198.4664064 -0.802947E-07  0.203E-04    3.89       7.9  T
     SCC iter.                  ...       24 min, 55.931 sec
     gradient                   ...        5 min, 51.886 sec
 * total energy  : -5104.0078231 Eh     change    :  -0.2383383E-01 Eh
   gradient norm :     0.1681451 Eh/a0  converged?    E=F G=F D=F
   time step     :     0.4871793 fs     power     :  -0.1610475E-06
   step length   :     0.4274878 a0     speed     :   0.2122511E-01

........................................................................
.............................. CYCLE   13 ..............................
........................................................................
 * reset velocities

 iter      E             dE          RMSdq      gap      omega  full diag
   1  -5198.4530560 -0.519845E+04  0.910E-04    3.89       0.0  T
   2  -5198.4530564 -0.404244E-06  0.547E-04    3.89       2.9  T
   3  -5198.4530564  0.126520E-07  0.258E-04    3.89       6.2  T
     SCC iter.                  ...       10 min, 40.156 sec
     gradient                   ...        5 min, 51.544 sec
 * total energy  : -5104.0093726 Eh     change    :  -0.1549520E-02 Eh
   gradient norm :     0.1631758 Eh/a0  converged?    E=F G=F D=F
   time step     :     0.2435896 fs     power     :   0.8313266E-07
   step length   :     0.0093543 a0     speed     :   0.9288977E-03

........................................................................
.............................. CYCLE   14 ..............................
........................................................................

 iter      E             dE          RMSdq      gap      omega  full diag
   1  -5198.4266214 -0.519843E+04  0.179E-03    3.89       0.0  T
   2  -5198.4266228 -0.142667E-05  0.107E-03    3.89       1.5  T
   3  -5198.4266227  0.957752E-07  0.457E-04    3.89       3.5  T
   4  -5198.4266229 -0.238203E-06  0.132E-04    3.89      12.2  T
     SCC iter.                  ...       14 min, 13.463 sec
     gradient                   ...        5 min, 53.119 sec
 * total energy  : -5104.0122903 Eh     change    :  -0.2917767E-02 Eh
   gradient norm :     0.1536350 Eh/a0  converged?    E=F G=F D=F
   time step     :     0.2435896 fs     power     :   0.1540381E-06
   step length   :     0.0184312 a0     speed     :   0.1830247E-02

........................................................................
.............................. CYCLE   15 ..............................
........................................................................

 iter      E             dE          RMSdq      gap      omega  full diag
   1  -5198.3876207 -0.519839E+04  0.257E-03    3.89       0.0  T
   2  -5198.3876237 -0.302269E-05  0.155E-03    3.89       1.0  T
   3  -5198.3876234  0.265536E-06  0.704E-04    3.89       2.3  T
   4  -5198.3876241 -0.636782E-06  0.199E-04    3.89       8.1  T
     SCC iter.                  ...       14 min, 16.173 sec
     gradient                   ...        5 min, 53.840 sec
 * total energy  : -5104.0162453 Eh     change    :  -0.3954945E-02 Eh
   gradient norm :     0.1404770 Eh/a0  converged?    E=F G=F D=F
   time step     :     0.2435896 fs     power     :   0.2052618E-06
   step length   :     0.0269693 a0     speed     :   0.2678092E-02

........................................................................
.............................. CYCLE   16 ..............................
........................................................................

 iter      E             dE          RMSdq      gap      omega  full diag
   1  -5198.3368166 -0.519834E+04  0.329E-03    3.89       0.0  T
   2  -5198.3368214 -0.481382E-05  0.198E-03    3.90       1.0  T
   3  -5198.3368209  0.479647E-06  0.889E-04    3.90       1.8  T
   4  -5198.3368220 -0.105603E-05  0.258E-04    3.90       6.2  T
   5  -5198.3368221 -0.172407E-06  0.901E-05    3.90      17.9  T
     SCC iter.                  ...       17 min, 43.330 sec
     gradient                   ...        5 min, 52.580 sec
 * total energy  : -5104.0208182 Eh     change    :  -0.4572911E-02 Eh
   gradient norm :     0.1251135 Eh/a0  converged?    E=F G=F D=F
   time step     :     0.2435896 fs     power     :   0.2329699E-06
   step length   :     0.0347445 a0     speed     :   0.3450187E-02

........................................................................
.............................. CYCLE   17 ..............................
........................................................................

 iter      E             dE          RMSdq      gap      omega  full diag
   1  -5198.2752340 -0.519828E+04  0.389E-03    3.89       0.0  T
   2  -5198.2752406 -0.660920E-05  0.233E-03    3.90       1.0  T
   3  -5198.2752400  0.628161E-06  0.102E-03    3.90       1.6  T
   4  -5198.2752413 -0.136629E-05  0.299E-04    3.90       5.4  T
   5  -5198.2752416 -0.230132E-06  0.105E-04    3.90      15.3  T
   6  -5198.2752416 -0.123919E-07  0.712E-05    3.90      22.6  T
     SCC iter.                  ...       21 min, 16.702 sec
     gradient                   ...        5 min, 53.634 sec
 * total energy  : -5104.0255780 Eh     change    :  -0.4759853E-02 Eh
   gradient norm :     0.1094731 Eh/a0  converged?    E=F G=F D=F
   time step     :     0.2435896 fs     power     :   0.2377126E-06
   step length   :     0.0415780 a0     speed     :   0.4128767E-02

........................................................................
.............................. CYCLE   18 ..............................
........................................................................

 iter      E             dE          RMSdq      gap      omega  full diag
   1  -5198.2042496 -0.519820E+04  0.436E-03    3.89       0.0  T
   2  -5198.2042574 -0.787004E-05  0.261E-03    3.90       1.0  T
   3  -5198.2042565  0.981638E-06  0.111E-03    3.90       1.4  T
   4  -5198.2042583 -0.181051E-05  0.342E-04    3.90       4.7  T
   5  -5198.2042586 -0.321501E-06  0.114E-04    3.90      14.1  T
   6  -5198.2042586 -0.135651E-07  0.756E-05    3.90      21.3  T
     SCC iter.                  ...       21 min, 21.162 sec
     gradient                   ...        5 min, 55.751 sec
 * total energy  : -5104.0301634 Eh     change    :  -0.4585378E-02 Eh
   gradient norm :     0.0958722 Eh/a0  converged?    E=F G=F D=F
   time step     :     0.2435896 fs     power     :   0.2244323E-06
   step length   :     0.0473349 a0     speed     :   0.4700432E-02

........................................................................
.............................. CYCLE   19 ..............................
........................................................................

 iter      E             dE          RMSdq      gap      omega  full diag
   1  -5198.1170745 -0.519812E+04  0.521E-03    3.89       0.0  T
   2  -5198.1170847 -0.102501E-04  0.312E-03    3.90       1.0  T
   3  -5198.1170830  0.169672E-05  0.128E-03    3.90       1.3  T
   4  -5198.1170857 -0.272972E-05  0.407E-04    3.90       4.0  T
   5  -5198.1170862 -0.477211E-06  0.131E-04    3.90      12.3  T
   6  -5198.1170862 -0.149485E-07  0.841E-05    3.90      19.1  T
     SCC iter.                  ...       21 min, 20.278 sec
     gradient                   ...        6 min,  1.280 sec
 * total energy  : -5104.0347631 Eh     change    :  -0.4599669E-02 Eh
   gradient norm :     0.0856688 Eh/a0  converged?    E=F G=F D=F
   time step     :     0.2679486 fs     power     :   0.1981437E-06
   step length   :     0.0576552 a0     speed     :   0.5204779E-02

........................................................................
.............................. CYCLE   20 ..............................
........................................................................

 iter      E             dE          RMSdq      gap      omega  full diag
   1  -5198.0142300 -0.519801E+04  0.604E-03    3.89       0.0  T
   2  -5198.0142418 -0.118032E-04  0.361E-03    3.90       1.0  T
   3  -5198.0142389  0.289700E-05  0.141E-03    3.89       1.1  T
   4  -5198.0142430 -0.410397E-05  0.457E-04    3.90       3.5  T
   5  -5198.0142436 -0.638062E-06  0.143E-04    3.90      11.3  T
   6  -5198.0142437 -0.131649E-07  0.879E-05    3.90      18.3  T
     SCC iter.                  ...       21 min, 20.005 sec
     gradient                   ...        5 min, 55.135 sec
 * total energy  : -5104.0391802 Eh     change    :  -0.4417129E-02 Eh
   gradient norm :     0.0811464 Eh/a0  converged?    E=F G=F D=F
   time step     :     0.2947435 fs     power     :   0.1679615E-06
   step length   :     0.0683242 a0     speed     :   0.5607192E-02
 * RMSD in coord.:     0.0411040 a0     energy gain  -0.6943576E+00 Eh

........................................................................
.............................. CYCLE   21 ..............................
........................................................................

 iter      E             dE          RMSdq      gap      omega  full diag
   1  -5197.9267468 -0.519793E+04  0.518E-03    3.89       0.0  T
   2  -5197.9267537 -0.694045E-05  0.310E-03    3.90       1.0  T
   3  -5197.9267510  0.272740E-05  0.114E-03    3.89       1.4  T
   4  -5197.9267546 -0.356409E-05  0.362E-04    3.90       4.4  T
   5  -5197.9267550 -0.414726E-06  0.115E-04    3.90      14.0  T
   6  -5197.9267550 -0.577165E-08  0.674E-05    3.90      23.9  T
     SCC iter.                  ...       21 min, 21.949 sec
     gradient                   ...        5 min, 53.191 sec
 * total energy  : -5104.0424734 Eh     change    :  -0.3293218E-02 Eh
   gradient norm :     0.0808292 Eh/a0  converged?    E=F G=F D=F
   time step     :     0.2500000 fs     power     :   0.1528971E-06
   step length   :     0.0597681 a0     speed     :   0.5782888E-02

........................................................................
.............................. CYCLE   22 ..............................
........................................................................

 iter      E             dE          RMSdq      gap      omega  full diag
   1  -5197.8428714 -0.519784E+04  0.520E-03    3.89       0.0  T
   2  -5197.8428766 -0.516752E-05  0.312E-03    3.90       1.0  T
   3  -5197.8428731  0.343028E-05  0.111E-03    3.89       1.5  T
   4  -5197.8428775 -0.430738E-05  0.309E-04    3.90       5.2  T
   5  -5197.8428777 -0.298409E-06  0.103E-04    3.90      15.7  T
   6  -5197.8428778 -0.139698E-08  0.559E-05    3.90      28.8  T
     SCC iter.                  ...       21 min, 13.051 sec
     gradient                   ...        6 min,  5.814 sec
 * total energy  : -5104.0456005 Eh     change    :  -0.3127055E-02 Eh
   gradient norm :     0.0806941 Eh/a0  converged?    E=F G=F D=F
   time step     :     0.2500000 fs     power     :   0.1483246E-06
   step length   :     0.0607909 a0     speed     :   0.5881842E-02

........................................................................
.............................. CYCLE   23 ..............................
........................................................................

 iter      E             dE          RMSdq      gap      omega  full diag
   1  -5197.7658079 -0.519777E+04  0.523E-03    3.89       0.0  T
   2  -5197.7658115 -0.365951E-05  0.313E-03    3.90       1.0  T
   3  -5197.7658075  0.403575E-05  0.109E-03    3.89       1.5  T
   4  -5197.7658125 -0.498612E-05  0.248E-04    3.89       6.5  T
   5  -5197.7658126 -0.178504E-06  0.931E-05    3.89      17.3  T
   6  -5197.7658126 -0.448381E-09  0.496E-05    3.89      32.4  T
     SCC iter.                  ...       21 min, 11.429 sec
     gradient                   ...        5 min, 52.939 sec
 * total energy  : -5104.0487116 Eh     change    :  -0.3111155E-02 Eh
   gradient norm :     0.0791529 Eh/a0  converged?    E=F G=F D=F
   time step     :     0.2500000 fs     power     :   0.1504566E-06
   step length   :     0.0615132 a0     speed     :   0.5951733E-02

........................................................................
.............................. CYCLE   24 ..............................
........................................................................

 iter      E             dE          RMSdq      gap      omega  full diag
   1  -5197.6979583 -0.519770E+04  0.528E-03    3.89       0.0  T
   2  -5197.6979609 -0.260694E-05  0.316E-03    3.89       1.0  T
   3  -5197.6979565  0.433624E-05  0.109E-03    3.89       1.5  T
   4  -5197.6979618 -0.531585E-05  0.202E-04    3.89       8.0  T
   5  -5197.6979619 -0.105359E-06  0.892E-05    3.89      18.0  T
   6  -5197.6979619 -0.262480E-08  0.486E-05    3.89      33.1  T
     SCC iter.                  ...       21 min, 12.167 sec
     gradient                   ...        5 min, 53.854 sec
 * total energy  : -5104.0518685 Eh     change    :  -0.3156816E-02 Eh
   gradient norm :     0.0759826 Eh/a0  converged?    E=F G=F D=F
   time step     :     0.2500000 fs     power     :   0.1543761E-06
   step length   :     0.0622645 a0     speed     :   0.6024426E-02

........................................................................
.............................. CYCLE   25 ..............................
........................................................................

 iter      E             dE          RMSdq      gap      omega  full diag
   1  -5197.6409877 -0.519764E+04  0.533E-03    3.89       0.0  T
   2  -5197.6409896 -0.196716E-05  0.319E-03    3.89       1.0  T
   3  -5197.6409854  0.418983E-05  0.106E-03    3.89       1.5  T
   4  -5197.6409906 -0.511652E-05  0.179E-04    3.89       9.0  T
   5  -5197.6409906 -0.745085E-07  0.924E-05    3.89      17.4  T
   6  -5197.6409906 -0.753425E-08  0.535E-05    3.89      30.1  T
     SCC iter.                  ...       21 min, 14.837 sec
     gradient                   ...        5 min, 52.513 sec
 * total energy  : -5104.0550576 Eh     change    :  -0.3189087E-02 Eh
   gradient norm :     0.0718139 Eh/a0  converged?    E=F G=F D=F
   time step     :     0.2500000 fs     power     :   0.1565723E-06
   step length   :     0.0631672 a0     speed     :   0.6111763E-02

........................................................................
.............................. CYCLE   26 ..............................
........................................................................

 iter      E             dE          RMSdq      gap      omega  full diag
   1  -5197.5916680 -0.519759E+04  0.591E-03    3.89       0.0  T
   2  -5197.5916700 -0.193241E-05  0.352E-03    3.89       1.0  T
   3  -5197.5916657  0.431936E-05  0.107E-03    3.89       1.5  T
   4  -5197.5916709 -0.527707E-05  0.189E-04    3.89       8.5  T
   5  -5197.5916710 -0.766677E-07  0.111E-04    3.89      14.5  T
   6  -5197.5916710 -0.176060E-07  0.704E-05    3.89      22.8  T
     SCC iter.                  ...       21 min, 13.237 sec
     gradient                   ...        5 min, 52.281 sec
 * total energy  : -5104.0585519 Eh     change    :  -0.3494368E-02 Eh
   gradient norm :     0.0671247 Eh/a0  converged?    E=F G=F D=F
   time step     :     0.2750000 fs     power     :   0.1546303E-06
   step length   :     0.0709571 a0     speed     :   0.6241347E-02

........................................................................
.............................. CYCLE   27 ..............................
........................................................................

 iter      E             dE          RMSdq      gap      omega  full diag
   1  -5197.5530590 -0.519755E+04  0.650E-03    3.89       0.0  T
   2  -5197.5530610 -0.195162E-05  0.385E-03    3.89       1.0  T
   3  -5197.5530574  0.361713E-05  0.998E-04    3.89       1.6  T
   4  -5197.5530619 -0.448209E-05  0.208E-04    3.89       7.7  T
   5  -5197.5530619 -0.895507E-07  0.133E-04    3.89      12.1  T
   6  -5197.5530620 -0.297623E-07  0.923E-05    3.89      17.4  T
     SCC iter.                  ...       21 min, 12.725 sec
     gradient                   ...        6 min,  2.237 sec
 * total energy  : -5104.0622855 Eh     change    :  -0.3733624E-02 Eh
   gradient norm :     0.0628984 Eh/a0  converged?    E=F G=F D=F
   time step     :     0.3025000 fs     power     :   0.1485738E-06
   step length   :     0.0800237 a0     speed     :   0.6398942E-02

........................................................................
.............................. CYCLE   28 ..............................
........................................................................

 iter      E             dE          RMSdq      gap      omega  full diag
   1  -5197.5281056 -0.519753E+04  0.702E-03    3.88       0.0  T
   2  -5197.5281075 -0.192304E-05  0.415E-03    3.88       1.0  T
   3  -5197.5281053  0.217464E-05  0.834E-04    3.88       1.9  T
   4  -5197.5281082 -0.287935E-05  0.231E-04    3.88       7.0  T
   5  -5197.5281083 -0.106450E-06  0.153E-04    3.88      10.5  T
   6  -5197.5281084 -0.426553E-07  0.108E-04    3.88      14.8  T
     SCC iter.                  ...       21 min, 14.068 sec
     gradient                   ...        5 min, 57.090 sec
 * total energy  : -5104.0661991 Eh     change    :  -0.3913601E-02 Eh
   gradient norm :     0.0595377 Eh/a0  converged?    E=F G=F D=F
   time step     :     0.3327500 fs     power     :   0.1401058E-06
   step length   :     0.0902967 a0     speed     :   0.6564002E-02

........................................................................
.............................. CYCLE   29 ..............................
........................................................................

 iter      E             dE          RMSdq      gap      omega  full diag
   1  -5197.5191876 -0.519752E+04  0.742E-03    3.88       0.0  T
   2  -5197.5191895 -0.191227E-05  0.437E-03    3.88       1.0  T
   3  -5197.5191882  0.133683E-05  0.762E-04    3.88       2.1  T
   4  -5197.5191902 -0.202481E-05  0.242E-04    3.88       6.7  T
   5  -5197.5191903 -0.945929E-07  0.167E-04    3.88       9.6  T
   6  -5197.5191903 -0.583232E-07  0.113E-04    3.88      14.2  T
     SCC iter.                  ...       21 min, 17.042 sec
     gradient                   ...        5 min, 55.669 sec
 * total energy  : -5104.0702605 Eh     change    :  -0.4061394E-02 Eh
   gradient norm :     0.0568815 Eh/a0  converged?    E=F G=F D=F
   time step     :     0.3660250 fs     power     :   0.1309873E-06
   step length   :     0.1017030 a0     speed     :   0.6721064E-02

........................................................................
.............................. CYCLE   30 ..............................
........................................................................

 iter      E             dE          RMSdq      gap      omega  full diag
   1  -5197.5278136 -0.519753E+04  0.765E-03    3.87       0.0  T
   2  -5197.5278157 -0.211449E-05  0.452E-03    3.87       1.0  T
   3  -5197.5278132  0.246939E-05  0.966E-04    3.87       1.7  T
   4  -5197.5278166 -0.340114E-05  0.238E-04    3.87       6.8  T
   5  -5197.5278167 -0.764003E-07  0.171E-04    3.87       9.4  T
   6  -5197.5278167 -0.614946E-07  0.112E-04    3.87      14.4  T
     SCC iter.                  ...       21 min, 14.632 sec
     gradient                   ...        5 min, 51.633 sec
 * total energy  : -5104.0744691 Eh     change    :  -0.4208610E-02 Eh
   gradient norm :     0.0553404 Eh/a0  converged?    E=F G=F D=F
   time step     :     0.4026275 fs     power     :   0.1225866E-06
   step length   :     0.1142466 a0     speed     :   0.6863648E-02

........................................................................
.............................. CYCLE   31 ..............................
........................................................................

 iter      E             dE          RMSdq      gap      omega  full diag
   1  -5197.5545545 -0.519755E+04  0.772E-03    3.87       0.0  T
   2  -5197.5545570 -0.249637E-05  0.458E-03    3.87       1.0  T
   3  -5197.5545528  0.421023E-05  0.117E-03    3.87       1.4  T
   4  -5197.5545582 -0.541824E-05  0.228E-04    3.87       7.0  T
   5  -5197.5545583 -0.723048E-07  0.159E-04    3.87      10.1  T
   6  -5197.5545584 -0.464752E-07  0.102E-04    3.87      15.7  T
     SCC iter.                  ...       21 min, 19.243 sec
     gradient                   ...        5 min, 51.291 sec
 * total energy  : -5104.0788979 Eh     change    :  -0.4428753E-02 Eh
   gradient norm :     0.0556982 Eh/a0  converged?    E=F G=F D=F
   time step     :     0.4428903 fs     power     :   0.1176789E-06
   step length   :     0.1279956 a0     speed     :   0.6990595E-02

........................................................................
.............................. CYCLE   32 ..............................
........................................................................

 iter      E             dE          RMSdq      gap      omega  full diag
   1  -5197.5994914 -0.519760E+04  0.774E-03    3.87       0.0  T
   2  -5197.5994940 -0.261535E-05  0.461E-03    3.87       1.0  T
   3  -5197.5994902  0.381138E-05  0.107E-03    3.87       1.5  T
   4  -5197.5994950 -0.482783E-05  0.215E-04    3.87       7.5  T
   5  -5197.5994951 -0.723985E-07  0.132E-04    3.87      12.2  T
   6  -5197.5994951 -0.246446E-07  0.828E-05    3.87      19.4  T
     SCC iter.                  ...       21 min, 15.132 sec
     gradient                   ...        5 min, 55.471 sec
 * total energy  : -5104.0837635 Eh     change    :  -0.4865561E-02 Eh
   gradient norm :     0.0559878 Eh/a0  converged?    E=F G=F D=F
   time step     :     0.4871793 fs     power     :   0.1194449E-06
   step length   :     0.1432793 a0     speed     :   0.7113933E-02

........................................................................
.............................. CYCLE   33 ..............................
........................................................................

 iter      E             dE          RMSdq      gap      omega  full diag
   1  -5197.6636119 -0.519766E+04  0.804E-03    3.87       0.0  T
   2  -5197.6636147 -0.278236E-05  0.479E-03    3.87       1.0  T
   3  -5197.6636127  0.195872E-05  0.799E-04    3.87       2.0  T
   4  -5197.6636153 -0.256106E-05  0.227E-04    3.87       7.1  T
   5  -5197.6636154 -0.116579E-06  0.108E-04    3.87      14.8  T
   6  -5197.6636154 -0.935052E-08  0.551E-05    3.87      29.2  T
     SCC iter.                  ...       21 min, 14.757 sec
     gradient                   ...        5 min, 50.291 sec
 * total energy  : -5104.0892775 Eh     change    :  -0.5514002E-02 Eh
   gradient norm :     0.0516510 Eh/a0  converged?    E=F G=F D=F
   time step     :     0.5358972 fs     power     :   0.1234194E-06
   step length   :     0.1611283 a0     speed     :   0.7272865E-02

........................................................................
.............................. CYCLE   34 ..............................
........................................................................

 iter      E             dE          RMSdq      gap      omega  full diag
   1  -5197.7506117 -0.519775E+04  0.883E-03    3.87       0.0  T
   2  -5197.7506159 -0.419283E-05  0.528E-03    3.87       1.0  T
   3  -5197.7506088  0.709054E-05  0.136E-03    3.87       1.2  T
   4  -5197.7506173 -0.848522E-05  0.264E-04    3.87       6.1  T
   5  -5197.7506174 -0.188310E-06  0.122E-04    3.87      13.2  T
   6  -5197.7506175 -0.928412E-08  0.586E-05    3.87      27.5  T
     SCC iter.                  ...       21 min, 16.451 sec
     gradient                   ...        5 min, 55.153 sec
 * total energy  : -5104.0951928 Eh     change    :  -0.5915383E-02 Eh
   gradient norm :     0.0430426 Eh/a0  converged?    E=F G=F D=F
   time step     :     0.5894869 fs     power     :   0.1156633E-06
   step length   :     0.1827027 a0     speed     :   0.7496972E-02

........................................................................
.............................. CYCLE   35 ..............................
........................................................................

 iter      E             dE          RMSdq      gap      omega  full diag
   1  -5197.8673214 -0.519787E+04  0.966E-03    3.87       0.0  T
   2  -5197.8673275 -0.617053E-05  0.584E-03    3.87       1.0  T
   3  -5197.8673089  0.186565E-04  0.213E-03    3.87       1.0  T
   4  -5197.8673314 -0.224901E-04  0.296E-04    3.87       5.4  T
   5  -5197.8673316 -0.206012E-06  0.144E-04    3.87      11.2  T
   6  -5197.8673316 -0.109167E-07  0.675E-05    3.87      23.8  T
     SCC iter.                  ...       21 min, 18.305 sec
     gradient                   ...        6 min,  2.996 sec
 * total energy  : -5104.1008145 Eh     change    :  -0.5621691E-02 Eh
   gradient norm :     0.0409176 Eh/a0  converged?    E=F G=F D=F
   time step     :     0.6484356 fs     power     :   0.9384892E-07
   step length   :     0.2074277 a0     speed     :   0.7737756E-02

........................................................................
.............................. CYCLE   36 ..............................
........................................................................

 iter      E             dE          RMSdq      gap      omega  full diag
   1  -5198.0154898 -0.519802E+04  0.992E-03    3.87       0.0  T
   2  -5198.0154963 -0.646665E-05  0.603E-03    3.87       1.0  T
   3  -5198.0154723  0.239847E-04  0.236E-03    3.87       1.0  T
   4  -5198.0155011 -0.288193E-04  0.284E-04    3.87       5.7  T
   5  -5198.0155013 -0.154374E-06  0.142E-04    3.87      11.3  T
   6  -5198.0155013 -0.903674E-08  0.667E-05    3.87      24.1  T
     SCC iter.                  ...       21 min, 17.728 sec
     gradient                   ...        5 min, 53.603 sec
 * total energy  : -5104.1060753 Eh     change    :  -0.5260777E-02 Eh
   gradient norm :     0.0426939 Eh/a0  converged?    E=F G=F D=F
   time step     :     0.7132792 fs     power     :   0.7978242E-07
   step length   :     0.2317082 a0     speed     :   0.7857727E-02

........................................................................
.............................. CYCLE   37 ..............................
........................................................................

 iter      E             dE          RMSdq      gap      omega  full diag
   1  -5198.1809256 -0.519818E+04  0.102E-02    3.87       0.0  T
   2  -5198.1809341 -0.849918E-05  0.612E-03    3.87       1.0  T
   3  -5198.1809179  0.161573E-04  0.221E-03    3.87       1.0  T
   4  -5198.1809376 -0.196384E-04  0.348E-04    3.87       4.6  T
   5  -5198.1809379 -0.316493E-06  0.146E-04    3.87      11.0  T
   6  -5198.1809379 -0.795899E-08  0.799E-05    3.87      20.1  T
     SCC iter.                  ...       21 min, 13.764 sec
     gradient                   ...        5 min, 52.531 sec
 * total energy  : -5104.1113404 Eh     change    :  -0.5265063E-02 Eh
   gradient norm :     0.0393853 Eh/a0  converged?    E=F G=F D=F
   time step     :     0.7846071 fs     power     :   0.7111900E-07
   step length   :     0.2562294 a0     speed     :   0.7899358E-02

........................................................................
.............................. CYCLE   38 ..............................
........................................................................

 iter      E             dE          RMSdq      gap      omega  full diag
   1  -5198.3270119 -0.519833E+04  0.105E-02    3.86       0.0  T
   2  -5198.3270210 -0.907945E-05  0.618E-03    3.86       1.0  T
   3  -5198.3270126  0.840449E-05  0.184E-03    3.86       1.0  T
   4  -5198.3270231 -0.104811E-04  0.345E-04    3.86       4.7  T
   5  -5198.3270233 -0.277840E-06  0.147E-04    3.86      10.9  T
   6  -5198.3270233 -0.808177E-08  0.807E-05    3.86      19.9  T
     SCC iter.                  ...       21 min, 19.474 sec
     gradient                   ...        5 min, 51.197 sec
 * total energy  : -5104.1164744 Eh     change    :  -0.5134064E-02 Eh
   gradient norm :     0.0420533 Eh/a0  converged?    E=F G=F D=F
   time step     :     0.8630678 fs     power     :   0.6120131E-07
   step length   :     0.2827960 a0     speed     :   0.7925805E-02

........................................................................
.............................. CYCLE   39 ..............................
........................................................................

 iter      E             dE          RMSdq      gap      omega  full diag
   1  -5198.4033155 -0.519840E+04  0.105E-02    3.87       0.0  T
   2  -5198.4033199 -0.440688E-05  0.621E-03    3.87       1.0  T
   3  -5198.4033139  0.598362E-05  0.137E-03    3.87       1.2  T
   4  -5198.4033213 -0.741423E-05  0.260E-04    3.87       6.2  T
   5  -5198.4033214 -0.120068E-06  0.136E-04    3.87      11.9  T
   6  -5198.4033215 -0.940145E-08  0.593E-05    3.87      27.1  T
     SCC iter.                  ...       21 min, 14.989 sec
     gradient                   ...        6 min,  2.882 sec
 * total energy  : -5104.1221146 Eh     change    :  -0.5640207E-02 Eh
   gradient norm :     0.0417716 Eh/a0  converged?    E=F G=F D=F
   time step     :     0.9493746 fs     power     :   0.6486314E-07
   step length   :     0.3105076 a0     speed     :   0.7911334E-02

........................................................................
.............................. CYCLE   40 ..............................
........................................................................

 iter      E             dE          RMSdq      gap      omega  full diag
   1  -5198.3770397 -0.519838E+04  0.109E-02    3.87       0.0  T
   2  -5198.3770484 -0.869336E-05  0.657E-03    3.87       1.0  T
   3  -5198.3770333  0.151235E-04  0.201E-03    3.87       1.0  T
   4  -5198.3770518 -0.185528E-04  0.363E-04    3.87       4.4  T
   5  -5198.3770521 -0.277471E-06  0.219E-04    3.87       7.3  T
   6  -5198.3770521 -0.461296E-07  0.141E-04    3.87      11.4  T
     SCC iter.                  ...       21 min, 14.640 sec
     gradient                   ...        6 min,  1.336 sec
 * total energy  : -5104.1285465 Eh     change    :  -0.6431823E-02 Eh
   gradient norm :     0.0389777 Eh/a0  converged?    E=F G=F D=F
   time step     :     1.0443120 fs     power     :   0.6576141E-07
   step length   :     0.3444807 a0     speed     :   0.7979023E-02

........................................................................
.............................. CYCLE   41 ..............................
........................................................................

 iter      E             dE          RMSdq      gap      omega  full diag
   1  -5198.2707817 -0.519827E+04  0.121E-02    3.86       0.0  T
   2  -5198.2707985 -0.167944E-04  0.730E-03    3.86       1.0  T
   3  -5198.2707837  0.147748E-04  0.223E-03    3.86       1.0  T
   4  -5198.2708021 -0.184097E-04  0.530E-04    3.87       3.0  T
   5  -5198.2708029 -0.831838E-06  0.252E-04    3.87       6.4  T
   6  -5198.2708030 -0.498858E-07  0.161E-04    3.87      10.0  T
     SCC iter.                  ...       21 min, 54.224 sec
     gradient                   ...        6 min, 51.454 sec
 * total energy  : -5104.1352620 Eh     change    :  -0.6715538E-02 Eh
   gradient norm :     0.0359139 Eh/a0  converged?    E=F G=F D=F
   time step     :     1.1487432 fs     power     :   0.5856412E-07
   step length   :     0.3847836 a0     speed     :   0.8102307E-02

........................................................................
.............................. CYCLE   42 ..............................
........................................................................

 iter      E             dE          RMSdq      gap      omega  full diag
   1  -5198.1643149 -0.519816E+04  0.132E-02    3.86       0.0  T
   2  -5198.1643240 -0.909997E-05  0.791E-03    3.86       1.0  T
   3  -5198.1643066  0.174064E-04  0.246E-03    3.86       1.0  T
   4  -5198.1643279 -0.213311E-04  0.367E-04    3.86       4.4  T
   5  -5198.1643281 -0.199777E-06  0.193E-04    3.86       8.4  T
   6  -5198.1643281 -0.185273E-07  0.897E-05    3.86      17.9  T
     SCC iter.                  ...       21 min, 43.546 sec
     gradient                   ...        6 min, 47.404 sec
 * total energy  : -5104.1418264 Eh     change    :  -0.6564395E-02 Eh
   gradient norm :     0.0371032 Eh/a0  converged?    E=F G=F D=F
   time step     :     1.2500000 fs     power     :   0.5208469E-07
   step length   :     0.4234684 a0     speed     :   0.8194569E-02
 * RMSD in coord.:     0.0550516 a0     energy gain  -0.1026462E+00 Eh

........................................................................
.............................. CYCLE   43 ..............................
........................................................................

 iter      E             dE          RMSdq      gap      omega  full diag
   1  -5198.1516442 -0.519815E+04  0.227E-03    3.86       0.0  T
   2  -5198.1516444 -0.292357E-06  0.138E-03    3.86       1.2  T
   3  -5198.1516433  0.111441E-05  0.529E-04    3.86       3.0  T
   4  -5198.1516447 -0.133589E-05  0.652E-05    3.86      24.7  T
   5  -5198.1516447 -0.872024E-08  0.356E-05    3.86      45.1  T
   6  -5198.1516447 -0.107138E-08  0.179E-05    3.86      89.8  T
     SCC iter.                  ...       21 min, 22.654 sec
     gradient                   ...        6 min,  2.508 sec
 * total energy  : -5104.1430614 Eh     change    :  -0.1235012E-02 Eh
   gradient norm :     0.0363663 Eh/a0  converged?    E=F G=F D=F
   time step     :     0.2500000 fs     power     :   0.6325001E-07
   step length   :     0.0801881 a0     speed     :   0.7758625E-02

........................................................................
.............................. CYCLE   44 ..............................
........................................................................

 iter      E             dE          RMSdq      gap      omega  full diag
   1  -5198.1476090 -0.519815E+04  0.227E-03    3.86       0.0  T
   2  -5198.1476095 -0.549746E-06  0.141E-03    3.86       1.1  T
   3  -5198.1476081  0.142797E-05  0.628E-04    3.86       2.6  T
   4  -5198.1476100 -0.185113E-05  0.773E-05    3.86      20.8  T
   5  -5198.1476100 -0.168693E-07  0.340E-05    3.86      47.3  T
   6  -5198.1476100 -0.779437E-09  0.178E-05    3.86      90.3  T
     SCC iter.                  ...       21 min, 19.834 sec
     gradient                   ...        5 min, 55.489 sec
 * total energy  : -5104.1444454 Eh     change    :  -0.1383992E-02 Eh
   gradient norm :     0.0328601 Eh/a0  converged?    E=F G=F D=F
   time step     :     0.2500000 fs     power     :   0.7040040E-07
   step length   :     0.0768770 a0     speed     :   0.7438265E-02

........................................................................
.............................. CYCLE   45 ..............................
........................................................................

 iter      E             dE          RMSdq      gap      omega  full diag
   1  -5198.1521678 -0.519815E+04  0.247E-03    3.86       0.0  T
   2  -5198.1521687 -0.865625E-06  0.155E-03    3.86       1.0  T
   3  -5198.1521671  0.164383E-05  0.720E-04    3.86       2.2  T
   4  -5198.1521693 -0.228356E-05  0.941E-05    3.86      17.1  T
   5  -5198.1521694 -0.253494E-07  0.409E-05    3.86      39.3  T
   6  -5198.1521694 -0.131149E-08  0.226E-05    3.86      71.3  T
     SCC iter.                  ...       21 min, 16.589 sec
     gradient                   ...        6 min, 10.872 sec
 * total energy  : -5104.1458706 Eh     change    :  -0.1425162E-02 Eh
   gradient norm :     0.0287755 Eh/a0  converged?    E=F G=F D=F
   time step     :     0.2500000 fs     power     :   0.7115364E-07
   step length   :     0.0746862 a0     speed     :   0.7226290E-02

........................................................................
.............................. CYCLE   46 ..............................
........................................................................

 iter      E             dE          RMSdq      gap      omega  full diag
   1  -5198.1652770 -0.519817E+04  0.266E-03    3.86       0.0  T
   2  -5198.1652779 -0.937246E-06  0.166E-03    3.86       1.0  T
   3  -5198.1652760  0.195445E-05  0.762E-04    3.86       2.1  T
   4  -5198.1652786 -0.263091E-05  0.985E-05    3.86      16.3  T
   5  -5198.1652786 -0.254377E-07  0.460E-05    3.86      35.0  T
   6  -5198.1652786 -0.162436E-08  0.253E-05    3.86      63.5  T
     SCC iter.                  ...       21 min, 17.330 sec
     gradient                   ...        5 min, 56.475 sec
 * total energy  : -5104.1472426 Eh     change    :  -0.1372066E-02 Eh
   gradient norm :     0.0265487 Eh/a0  converged?    E=F G=F D=F
   time step     :     0.2500000 fs     power     :   0.6761029E-07
   step length   :     0.0732782 a0     speed     :   0.7090060E-02

........................................................................
.............................. CYCLE   47 ..............................
........................................................................

 iter      E             dE          RMSdq      gap      omega  full diag
   1  -5198.1862352 -0.519819E+04  0.273E-03    3.86       0.0  T
   2  -5198.1862359 -0.697019E-06  0.166E-03    3.86       1.0  T
   3  -5198.1862340  0.192058E-05  0.701E-04    3.86       2.3  T
   4  -5198.1862364 -0.239844E-05  0.901E-05    3.86      17.9  T
   5  -5198.1862364 -0.182199E-07  0.455E-05    3.86      35.3  T
   6  -5198.1862364 -0.139062E-08  0.244E-05    3.86      66.0  T
     SCC iter.                  ...       21 min, 21.900 sec
     gradient                   ...        5 min, 56.087 sec
 * total energy  : -5104.1485376 Eh     change    :  -0.1295001E-02 Eh
   gradient norm :     0.0265543 Eh/a0  converged?    E=F G=F D=F
   time step     :     0.2500000 fs     power     :   0.6408493E-07
   step length   :     0.0720804 a0     speed     :   0.6974163E-02

........................................................................
.............................. CYCLE   48 ..............................
........................................................................

 iter      E             dE          RMSdq      gap      omega  full diag
   1  -5198.2162503 -0.519822E+04  0.294E-03    3.86       0.0  T
   2  -5198.2162508 -0.468751E-06  0.176E-03    3.86       1.0  T
   3  -5198.2162495  0.134798E-05  0.577E-04    3.86       2.8  T
   4  -5198.2162511 -0.161176E-05  0.847E-05    3.86      19.0  T
   5  -5198.2162511 -0.144200E-07  0.445E-05    3.86      36.1  T
   6  -5198.2162511 -0.842192E-09  0.213E-05    3.86      75.6  T
     SCC iter.                  ...       21 min, 26.309 sec
     gradient                   ...        5 min, 56.930 sec
 * total energy  : -5104.1499128 Eh     change    :  -0.1375126E-02 Eh
   gradient norm :     0.0271177 Eh/a0  converged?    E=F G=F D=F
   time step     :     0.2750000 fs     power     :   0.6244565E-07
   step length   :     0.0779216 a0     speed     :   0.6853935E-02

........................................................................
.............................. CYCLE   49 ..............................
........................................................................

 iter      E             dE          RMSdq      gap      omega  full diag
   1  -5198.2543746 -0.519825E+04  0.311E-03    3.86       0.0  T
   2  -5198.2543749 -0.339926E-06  0.184E-03    3.86       1.0  T
   3  -5198.2543744  0.516125E-06  0.423E-04    3.86       3.8  T
   4  -5198.2543751 -0.650084E-06  0.763E-05    3.86      21.1  T
     SCC iter.                  ...       14 min, 23.641 sec
     gradient                   ...        6 min, 17.194 sec
 * total energy  : -5104.1514113 Eh     change    :  -0.1498530E-02 Eh
   gradient norm :     0.0267386 Eh/a0  converged?    E=F G=F D=F
   time step     :     0.3025000 fs     power     :   0.6232334E-07
   step length   :     0.0842845 a0     speed     :   0.6739648E-02

........................................................................
.............................. CYCLE   50 ..............................
........................................................................

 iter      E             dE          RMSdq      gap      omega  full diag
   1  -5198.2988505 -0.519830E+04  0.329E-03    3.86       0.0  T
   2  -5198.2988510 -0.410508E-06  0.195E-03    3.86       1.0  T
   3  -5198.2988501  0.845975E-06  0.505E-04    3.86       3.2  T
   4  -5198.2988511 -0.104201E-05  0.756E-05    3.86      21.3  T
   5  -5198.2988512 -0.603268E-08  0.428E-05    3.86      37.6  T
     SCC iter.                  ...       17 min, 54.208 sec
     gradient                   ...        6 min, 10.104 sec
 * total energy  : -5104.1530493 Eh     change    :  -0.1637970E-02 Eh
   gradient norm :     0.0251209 Eh/a0  converged?    E=F G=F D=F
   time step     :     0.3327500 fs     power     :   0.6175076E-07
   step length   :     0.0915688 a0     speed     :   0.6656477E-02

........................................................................
.............................. CYCLE   51 ..............................
........................................................................

 iter      E             dE          RMSdq      gap      omega  full diag
   1  -5198.3466610 -0.519835E+04  0.349E-03    3.86       0.0  T
   2  -5198.3466615 -0.588753E-06  0.209E-03    3.86       1.0  T
   3  -5198.3466600  0.156434E-05  0.622E-04    3.86       2.6  T
   4  -5198.3466619 -0.188386E-05  0.891E-05    3.86      18.1  T
   5  -5198.3466619 -0.125128E-07  0.486E-05    3.86      33.1  T
   6  -5198.3466619 -0.126784E-08  0.221E-05    3.86      72.7  T
     SCC iter.                  ...       21 min, 20.718 sec
     gradient                   ...        5 min, 54.407 sec
 * total energy  : -5104.1547979 Eh     change    :  -0.1748672E-02 Eh
   gradient norm :     0.0230278 Eh/a0  converged?    E=F G=F D=F
   time step     :     0.3660250 fs     power     :   0.5923136E-07
   step length   :     0.1001131 a0     speed     :   0.6615998E-02

........................................................................
.............................. CYCLE   52 ..............................
........................................................................

 iter      E             dE          RMSdq      gap      omega  full diag
   1  -5198.3928677 -0.519839E+04  0.370E-03    3.86       0.0  T
   2  -5198.3928684 -0.665674E-06  0.221E-03    3.86       1.0  T
   3  -5198.3928670  0.132608E-05  0.588E-04    3.86       2.7  T
   4  -5198.3928687 -0.161250E-05  0.104E-04    3.86      15.5  T
   5  -5198.3928687 -0.206110E-07  0.546E-05    3.86      29.5  T
   6  -5198.3928687 -0.119144E-08  0.246E-05    3.86      65.4  T
     SCC iter.                  ...       21 min, 18.079 sec
     gradient                   ...        5 min, 56.692 sec
 * total energy  : -5104.1566062 Eh     change    :  -0.1808232E-02 Eh
   gradient norm :     0.0217311 Eh/a0  converged?    E=F G=F D=F
   time step     :     0.4026275 fs     power     :   0.5495258E-07
   step length   :     0.1099729 a0     speed     :   0.6606891E-02

........................................................................
.............................. CYCLE   53 ..............................
........................................................................

 iter      E             dE          RMSdq      gap      omega  full diag
   1  -5198.4307786 -0.519843E+04  0.388E-03    3.86       0.0  T
   2  -5198.4307793 -0.725417E-06  0.230E-03    3.87       1.0  T
   3  -5198.4307783  0.958708E-06  0.572E-04    3.87       2.8  T
   4  -5198.4307795 -0.121941E-05  0.105E-04    3.87      15.3  T
   5  -5198.4307796 -0.177970E-07  0.602E-05    3.87      26.7  T
     SCC iter.                  ...       17 min, 45.218 sec
     gradient                   ...        5 min, 56.803 sec
 * total energy  : -5104.1584557 Eh     change    :  -0.1849534E-02 Eh
   gradient norm :     0.0222307 Eh/a0  converged?    E=F G=F D=F
   time step     :     0.4428903 fs     power     :   0.5100517E-07
   step length   :     0.1207923 a0     speed     :   0.6597181E-02

........................................................................
.............................. CYCLE   54 ..............................
........................................................................

 iter      E             dE          RMSdq      gap      omega  full diag
   1  -5198.4543392 -0.519845E+04  0.406E-03    3.87       0.0  T
   2  -5198.4543401 -0.919054E-06  0.241E-03    3.87       1.0  T
   3  -5198.4543373  0.281301E-05  0.852E-04    3.87       1.9  T
   4  -5198.4543407 -0.340117E-05  0.115E-04    3.87      14.0  T
   5  -5198.4543407 -0.238197E-07  0.687E-05    3.87      23.4  T
   6  -5198.4543407 -0.391628E-08  0.357E-05    3.87      45.1  T
     SCC iter.                  ...       21 min, 19.615 sec
     gradient                   ...        5 min, 58.168 sec
 * total energy  : -5104.1604124 Eh     change    :  -0.1956652E-02 Eh
   gradient norm :     0.0231441 Eh/a0  converged?    E=F G=F D=F
   time step     :     0.4871793 fs     power     :   0.4980483E-07
   step length   :     0.1321203 a0     speed     :   0.6559881E-02

........................................................................
.............................. CYCLE   55 ..............................
........................................................................

 iter      E             dE          RMSdq      gap      omega  full diag
   1  -5198.4603642 -0.519846E+04  0.434E-03    3.87       0.0  T
   2  -5198.4603654 -0.113884E-05  0.259E-03    3.87       1.0  T
   3  -5198.4603608  0.450607E-05  0.105E-03    3.87       1.5  T
   4  -5198.4603663 -0.542965E-05  0.115E-04    3.87      14.0  T
   5  -5198.4603663 -0.187765E-07  0.693E-05    3.87      23.2  T
   6  -5198.4603663 -0.343152E-08  0.357E-05    3.87      45.0  T
     SCC iter.                  ...       21 min, 16.149 sec
     gradient                   ...        6 min,  3.828 sec
 * total energy  : -5104.1625645 Eh     change    :  -0.2152146E-02 Eh
   gradient norm :     0.0217334 Eh/a0  converged?    E=F G=F D=F
   time step     :     0.5358972 fs     power     :   0.5007729E-07
   step length   :     0.1444856 a0     speed     :   0.6521659E-02

........................................................................
.............................. CYCLE   56 ..............................
........................................................................

 iter      E             dE          RMSdq      gap      omega  full diag
   1  -5198.4484641 -0.519845E+04  0.471E-03    3.87       0.0  T
   2  -5198.4484653 -0.124224E-05  0.281E-03    3.87       1.0  T
   3  -5198.4484617  0.356792E-05  0.100E-03    3.87       1.6  T
   4  -5198.4484660 -0.427901E-05  0.128E-04    3.87      12.6  T
   5  -5198.4484660 -0.294867E-07  0.688E-05    3.87      23.4  T
   6  -5198.4484660 -0.197997E-08  0.309E-05    3.87      52.0  T
     SCC iter.                  ...       21 min, 17.038 sec
     gradient                   ...        5 min, 54.075 sec
 * total energy  : -5104.1648691 Eh     change    :  -0.2304569E-02 Eh
   gradient norm :     0.0190668 Eh/a0  converged?    E=F G=F D=F
   time step     :     0.5894869 fs     power     :   0.4763434E-07
   step length   :     0.1591461 a0     speed     :   0.6530356E-02

........................................................................
.............................. CYCLE   57 ..............................
........................................................................

 iter      E             dE          RMSdq      gap      omega  full diag
   1  -5198.4218324 -0.519842E+04  0.502E-03    3.86       0.0  T
   2  -5198.4218336 -0.111216E-05  0.299E-03    3.86       1.0  T
   3  -5198.4218317  0.189876E-05  0.808E-04    3.86       2.0  T
   4  -5198.4218340 -0.234445E-05  0.123E-04    3.86      13.0  T
   5  -5198.4218340 -0.174705E-07  0.686E-05    3.86      23.4  T
   6  -5198.4218340 -0.243290E-08  0.312E-05    3.86      51.5  T
     SCC iter.                  ...       21 min, 20.133 sec
     gradient                   ...        5 min, 56.503 sec
 * total energy  : -5104.1672050 Eh     change    :  -0.2335883E-02 Eh
   gradient norm :     0.0190735 Eh/a0  converged?    E=F G=F D=F
   time step     :     0.6484356 fs     power     :   0.4312671E-07
[...]
  3612   6 C     3613   6 C                                       1.3829017
  3609   6 C     3614   6 C                                       1.3878078
  3613   6 C     3614   6 C                                       1.3832291
  3615   6 C     3616   6 C                                       1.5357087
  3617   6 C     3618   6 C                                       1.3888333
  3618   6 C     3619   6 C                                       1.3826496
  3619   6 C     3620   6 C                                       1.3828103
  3620   6 C     3621   6 C                                       1.3832067
  3617   6 C     3622   6 C                                       1.3908436
  3621   6 C     3622   6 C                                       1.3831804
  3616   6 C     3623   6 C                                       1.5310153
  3623   6 C     3624   6 C                                       1.5380624
  3625   6 C     3626   6 C                                       1.3897281
  3626   6 C     3627   6 C                                       1.3834826
  3627   6 C     3628   6 C                                       1.3837444
  3628   6 C     3629   6 C                                       1.3844968
  3625   6 C     3630   6 C                                       1.3897779
  3629   6 C     3630   6 C                                       1.3843161
  3624   6 C     3631   6 C                                       1.5317588
  3631   6 C     3632   6 C                                       1.5304611
  3633   6 C     3634   6 C                                       1.3897574
  3634   6 C     3635   6 C                                       1.3826739
  3635   6 C     3636   6 C                                       1.3840441
  3636   6 C     3637   6 C                                       1.3847453
  3633   6 C     3638   6 C                                       1.3890888
  3637   6 C     3638   6 C                                       1.3830829
  3632   6 C     3639   6 C                                       1.5353647
  3639   6 C     3640   6 C                                       1.5299210
  3641   6 C     3642   6 C                                       1.3869211
  3642   6 C     3643   6 C                                       1.3832420
  3643   6 C     3644   6 C                                       1.3829647
  3644   6 C     3645   6 C                                       1.3839737
  3641   6 C     3646   6 C                                       1.3906039
  3645   6 C     3646   6 C                                       1.3823983
  3640   6 C     3647   6 C                                       1.5405674
  3649   6 C     3650   6 C                                       1.3888229
  3650   6 C     3651   6 C                                       1.3841453
  3651   6 C     3652   6 C                                       1.3838024
  3652   6 C     3653   6 C                                       1.3852371
  3649   6 C     3654   6 C                                       1.3908047
  3653   6 C     3654   6 C                                       1.3829564
  3648   6 C     3655   6 C                                       1.5305580
  3657   6 C     3658   6 C                                       1.3906008
  3658   6 C     3659   6 C                                       1.3828601
  3659   6 C     3660   6 C                                       1.3840169
  3660   6 C     3661   6 C                                       1.3828117
  3657   6 C     3662   6 C                                       1.3884987
  3661   6 C     3662   6 C                                       1.3836069
  3663   6 C     3664   6 C                                       1.5326712
  3665   6 C     3666   6 C                                       1.3898848
  3666   6 C     3667   6 C                                       1.3830769
  3667   6 C     3668   6 C                                       1.3837734
  3668   6 C     3669   6 C                                       1.3843657
  3665   6 C     3670   6 C                                       1.3893571
  3669   6 C     3670   6 C                                       1.3834286
  3671   6 C     3672   6 C                                       1.5381449
  3673   6 C     3674   6 C                                       1.3900058
  3674   6 C     3675   6 C                                       1.3835472
  3675   6 C     3676   6 C                                       1.3840731
  3676   6 C     3677   6 C                                       1.3848328
  3673   6 C     3678   6 C                                       1.3898466
  3677   6 C     3678   6 C                                       1.3832974
  3672   6 C     3679   6 C                                       1.5334847
  3679   6 C     3680   6 C                                       1.5362139
  3681   6 C     3682   6 C                                       1.3916355
  3682   6 C     3683   6 C                                       1.3828675
  3683   6 C     3684   6 C                                       1.3858246
  3684   6 C     3685   6 C                                       1.3836552
  3681   6 C     3686   6 C                                       1.3888494
  3685   6 C     3686   6 C                                       1.3852414
  3680   6 C     3687   6 C                                       1.5374739
  3549   6 C     3689   1 H                                       1.0968033
  3551   6 C     3690   1 H                                       1.0928322
  3551   6 C     3691   1 H                                       1.0910715
  3552   6 C     3692   1 H                                       1.0938612
  3559   6 C     3693   1 H                                       1.0927110
  3559   6 C     3694   1 H                                       1.0933673
  3560   6 C     3695   1 H                                       1.0951125
  3567   6 C     3696   1 H                                       1.0915233
  3567   6 C     3697   1 H                                       1.0926157
  3568   6 C     3698   1 H                                       1.0964243
  3575   6 C     3699   1 H                                       1.0919244
  3576   6 C     3700   1 H                                       1.0966400
  3583   6 C     3701   1 H                                       1.0903624
  3583   6 C     3702   1 H                                       1.0935687
  3584   6 C     3703   1 H                                       1.0968720
  3591   6 C     3704   1 H                                       1.0916801
  3591   6 C     3705   1 H                                       1.0924424
  3592   6 C     3706   1 H                                       1.0954564
  3599   6 C     3707   1 H                                       1.0921255
  3599   6 C     3708   1 H                                       1.0919075
  3600   6 C     3709   1 H                                       1.0936589
  3608   6 C     3710   1 H                                       1.0940929
  3615   6 C     3711   1 H                                       1.0921548
  3615   6 C     3712   1 H                                       1.0925624
  3616   6 C     3713   1 H                                       1.0929663
  3623   6 C     3714   1 H                                       1.0916499
  3623   6 C     3715   1 H                                       1.0915384
  3624   6 C     3716   1 H                                       1.0964931
  3631   6 C     3717   1 H                                       1.0920246
  3631   6 C     3718   1 H                                       1.0913321
  3632   6 C     3719   1 H                                       1.0959853
  3639   6 C     3720   1 H                                       1.0909554
  3639   6 C     3721   1 H                                       1.0919861
  3640   6 C     3722   1 H                                       1.0952125
  3647   6 C     3723   1 H                                       1.0915213
  3647   6 C     3724   1 H                                       1.0910283
  3648   6 C     3725   1 H                                       1.0945732
  3655   6 C     3726   1 H                                       1.0933065
  3655   6 C     3727   1 H                                       1.0893365
  3656   6 C     3728   1 H                                       1.0957896
  3663   6 C     3729   1 H                                       1.0905064
  3663   6 C     3730   1 H                                       1.0910828
  3664   6 C     3731   1 H                                       1.0949168
  3671   6 C     3732   1 H                                       1.0932932
  3671   6 C     3733   1 H                                       1.0928244
  3672   6 C     3734   1 H                                       1.0936851
  3679   6 C     3735   1 H                                       1.0901036
  3679   6 C     3736   1 H                                       1.0899661
  3543   6 C     3737   1 H                                       1.0801648
  3548   6 C     3738   1 H                                       1.0799689
  3547   6 C     3739   1 H                                       1.0796790
  3546   6 C     3740   1 H                                       1.0808549
  3545   6 C     3741   1 H                                       1.0822084
  3554   6 C     3742   1 H                                       1.0813897
  3555   6 C     3743   1 H                                       1.0814214
  3556   6 C     3744   1 H                                       1.0804830
  3557   6 C     3745   1 H                                       1.0810080
  3558   6 C     3746   1 H                                       1.0802403
  3562   6 C     3747   1 H                                       1.0791646
  3563   6 C     3748   1 H                                       1.0808672
  3564   6 C     3749   1 H                                       1.0811189
  3565   6 C     3750   1 H                                       1.0810767
  3566   6 C     3751   1 H                                       1.0815319
  3570   6 C     3752   1 H                                       1.0805229
  3571   6 C     3753   1 H                                       1.0813352
  3572   6 C     3754   1 H                                       1.0806764
  3573   6 C     3755   1 H                                       1.0807530
  3574   6 C     3756   1 H                                       1.0815925
  3575   6 C     3757   1 H                                       1.0898872
  3578   6 C     3758   1 H                                       1.0808258
  3579   6 C     3759   1 H                                       1.0791447
  3580   6 C     3760   1 H                                       1.0800555
  3581   6 C     3761   1 H                                       1.0801061
  3582   6 C     3762   1 H                                       1.0799254
  3586   6 C     3763   1 H                                       1.0820348
  3587   6 C     3764   1 H                                       1.0799782
  3588   6 C     3765   1 H                                       1.0804047
  3589   6 C     3766   1 H                                       1.0802517
  3590   6 C     3767   1 H                                       1.0814645
  3594   6 C     3768   1 H                                       1.0810489
  3595   6 C     3769   1 H                                       1.0816872
  3596   6 C     3770   1 H                                       1.0814219
  3597   6 C     3771   1 H                                       1.0814597
  3598   6 C     3772   1 H                                       1.0797854
  3602   6 C     3773   1 H                                       1.0806413
  3603   6 C     3774   1 H                                       1.0805269
  3604   6 C     3775   1 H                                       1.0802199
  3605   6 C     3776   1 H                                       1.0812420
  3606   6 C     3777   1 H                                       1.0800848
  3607   6 C     3778   1 H                                       1.0920629
  3607   6 C     3779   1 H                                       1.0931955
  3610   6 C     3780   1 H                                       1.0802390
  3611   6 C     3781   1 H                                       1.0804802
  3612   6 C     3782   1 H                                       1.0804059
  3613   6 C     3783   1 H                                       1.0814697
  3614   6 C     3784   1 H                                       1.0821294
  3618   6 C     3785   1 H                                       1.0811988
  3619   6 C     3786   1 H                                       1.0804805
  3620   6 C     3787   1 H                                       1.0800530
  3621   6 C     3788   1 H                                       1.0809188
  3622   6 C     3789   1 H                                       1.0804728
  3626   6 C     3790   1 H                                       1.0826161
  3627   6 C     3791   1 H                                       1.0815026
  3628   6 C     3792   1 H                                       1.0808340
  3629   6 C     3793   1 H                                       1.0816383
  3630   6 C     3794   1 H                                       1.0805748
  3634   6 C     3795   1 H                                       1.0803205
  3635   6 C     3796   1 H                                       1.0799963
  3636   6 C     3797   1 H                                       1.0819332
  3637   6 C     3798   1 H                                       1.0820823
  3638   6 C     3799   1 H                                       1.0811384
  3642   6 C     3800   1 H                                       1.0804763
  3643   6 C     3801   1 H                                       1.0803342
  3644   6 C     3802   1 H                                       1.0790806
  3645   6 C     3803   1 H                                       1.0802222
  3646   6 C     3804   1 H                                       1.0808898
  3650   6 C     3805   1 H                                       1.0821474
  3651   6 C     3806   1 H                                       1.0813035
  3652   6 C     3807   1 H                                       1.0813305
  3653   6 C     3808   1 H                                       1.0817879
  3654   6 C     3809   1 H                                       1.0805551
  3658   6 C     3810   1 H                                       1.0805293
  3659   6 C     3811   1 H                                       1.0797180
  3660   6 C     3812   1 H                                       1.0803676
  3661   6 C     3813   1 H                                       1.0813328
  3662   6 C     3814   1 H                                       1.0815325
  3666   6 C     3815   1 H                                       1.0796570
  3667   6 C     3816   1 H                                       1.0805099
  3668   6 C     3817   1 H                                       1.0804999
  3669   6 C     3818   1 H                                       1.0810346
  3670   6 C     3819   1 H                                       1.0814953
  3674   6 C     3820   1 H                                       1.0815737
  3675   6 C     3821   1 H                                       1.0810269
  3676   6 C     3822   1 H                                       1.0805158
  3677   6 C     3823   1 H                                       1.0809982
  3678   6 C     3824   1 H                                       1.0805044
  3686   6 C     3825   1 H                                       1.0819522
  3685   6 C     3826   1 H                                       1.0809527
  3684   6 C     3827   1 H                                       1.0797309
  3683   6 C     3828   1 H                                       1.0800652
  3682   6 C     3829   1 H                                       1.0804681
  3550   6 C     3830   1 H                                       1.0882949
  3550   6 C     3831   1 H                                       1.0879110
  3550   6 C     3832   1 H                                       1.0880253
  3680   6 C     3833   1 H                                       1.0942910
  3687   6 C     3834   1 H                                       1.0921642
  3687   6 C     3835   1 H                                       1.0920275
  3688   6 C     3836   6 C                                       1.5352238
  3837   6 C     3838   6 C                                       1.3889677
  3838   6 C     3839   6 C                                       1.3831615
  3839   6 C     3840   6 C                                       1.3833334
  3840   6 C     3841   6 C                                       1.3834747
  3837   6 C     3842   6 C                                       1.3903402
  3841   6 C     3842   6 C                                       1.3827468
  3838   6 C     3843   1 H                                       1.0778993
  3839   6 C     3844   1 H                                       1.0804143
  3840   6 C     3845   1 H                                       1.0806368
  3841   6 C     3846   1 H                                       1.0805891
  3842   6 C     3847   1 H                                       1.0813010
  3836   6 C     3848   6 C                                       1.5332979
  3836   6 C     3849   1 H                                       1.0933787
  3836   6 C     3850   1 H                                       1.0916658
  3851   6 C     3852   6 C                                       1.3893708
  3852   6 C     3853   6 C                                       1.3822340
  3853   6 C     3854   6 C                                       1.3846714
  3854   6 C     3855   6 C                                       1.3844496
  3851   6 C     3856   6 C                                       1.3883314
  3855   6 C     3856   6 C                                       1.3837315
  3852   6 C     3857   1 H                                       1.0801655
  3853   6 C     3858   1 H                                       1.0809055
  3854   6 C     3859   1 H                                       1.0812046
  3855   6 C     3860   1 H                                       1.0811689
  3856   6 C     3861   1 H                                       1.0815037
  3688   6 C     3862   1 H                                       1.0956943
  3848   6 C     3863   1 H                                       1.0907340
  3848   6 C     3864   1 H                                       1.0930251

 * 2 distinct bonds (by element types)

   Z      Z             #   av. dist./Å        max./Å        min./Å
   1 H    6 C        1944     1.0852715     1.0985904     1.0776390
   6 C    6 C        1859     1.4194921     1.5408253     1.3797867


optimized geometry written to: xtbopt.xyz


           -------------------------------------------------
          | TOTAL ENERGY            -5104.246831144710 Eh   |
          | GRADIENT NORM               0.000755390880 Eh/α |
          | HOMO-LUMO GAP               3.789798859404 eV   |
           -------------------------------------------------

------------------------------------------------------------------------
 * finished run on 2024/07/20 at 10:41:37.965     
------------------------------------------------------------------------
 total:
 * wall-time:     7 d, 17 h,  8 min, 39.537 sec
 *  cpu-time:    47 d,  5 h, 29 min, 52.596 sec
 * ratio c/w:     6.122 speedup
 SCF:
 * wall-time:     0 d,  0 h, 17 min, 19.641 sec
 *  cpu-time:     0 d,  1 h, 44 min, 52.888 sec
 * ratio c/w:     6.053 speedup
 ANC optimizer:
 * wall-time:     7 d, 16 h, 50 min,  8.324 sec
 *  cpu-time:    47 d,  3 h, 43 min, 27.152 sec
 * ratio c/w:     6.123 speedup

