3795
 energy: -5103.074045837606 gnorm: 0.000967376763 xtb: 6.6.1 (8d0f1dd)
C          116.84639604463999      124.78297618670143      117.32171436842691
C          116.97974912508116      126.26485160896935      117.52913178492327
C          118.08083789701531      123.98489558260567      117.75779452562379
C          119.20945722678708      123.99778790976154      116.72666192404985
H          118.43583340290832      124.36296332279140      118.71795413592744
H          117.77515585629763      122.94660771116968      117.89666330627118
C          119.94312443567458      125.33358608137181      116.58079175007632
H          119.94032146586544      123.23640398744197      117.00189129634688
H          118.79278978919952      123.71919590032888      115.75617378872101
C          120.86836372857718      125.66106803818425      117.74035114034632
H          120.58000034789075      125.28227364709400      115.69668767477883
H          119.23174954014743      126.14661877310810      116.44826480161149
N          120.30180257816535      126.32449234070410      118.74717701137945
O          116.62944833262729      126.99562078648080      116.50302083398105
O          117.40901068819601      126.73942634823275      118.57012314173073
H          116.68983395745354      127.98643154558950      116.70398762852676
H          116.60159381566140      124.57974440310487      116.27954588818913
H          115.99362336815787      124.49561547954201      117.94273859148701
C          121.02818553544110      126.89166689033259      119.86741358915349
H          119.31919413093790      126.55558817313937      118.70608752879146
C          120.03390878356416      127.54365151827193      120.81739275105750
H          121.58051207384982      126.10395748999565      120.38827547466525
H          121.74795083444752      127.62410919337445      119.48732578492807
C          120.70173320392450      128.37597021638291      121.90849992504316
H          119.36052783565033      128.18744595158768      120.24717073106376
H          119.44142931820799      126.75128540444001      121.27712813049294
C          121.18963736733437      129.73079469895819      121.39871751651306
H          119.97556431497553      128.54969342711470      122.70354634217577
H          121.52504101158731      127.80831490213934      122.34106347998954
C          121.69364558431762      130.60359900405487      122.54357038998178
H          121.99591495734529      129.59826099825858      120.67697699851551
H          120.36595744721767      130.24014195352694      120.89130635394736
C          122.08599140108541      132.00625207463415      122.09076610428272
H          120.92147150153166      130.68618528934309      123.31135864666111
H          122.56912929578746      130.12783472012089      122.98561380426850
N          123.26761808193045      131.97878435321621      121.26065545328834
H          121.28821370921763      132.47611144372058      121.50868501016433
H          122.27852476079971      132.63262386847322      122.97221004897591
C          123.37672676288669      132.67795519944173      120.12049418871028
H          123.97679158574384      131.30227364286398      121.51926404761936
O          122.05487934582311      125.34988910183212      117.72358851059307
C          124.72717902470582      132.53097787954800      119.42874786229309
C          124.54513273382649      132.00938349423217      118.00339639127185
H          125.19435503554206      133.51728946322541      119.39875387617735
H          125.36621668191114      131.85638945147062      119.99856350906087
C          123.83731989823515      130.65788419188635      118.01442352886708
H          123.95587778017196      132.73133190476022      117.43485473885951
H          125.52081767230337      131.90712975634796      117.52197905514099
C          123.83620201729649      129.99576888080975      116.63252470381038
H          124.33527961210993      130.00460750866444      118.73266711922355
H          122.80735331585133      130.79571092979234      118.35254602270510
C          123.06815891817448      128.69631629263796      116.71493804703368
H          123.34006812682475      130.65268035293531      115.91374055827831
H          124.86079011617532      129.82318120433527      116.30261006270297
N          123.69451537077774      127.63265422999012      117.21142875545009
C          125.06214557712073      127.51128340201832      117.66918368312902
H          123.12787163244040      126.79366352957814      117.35021433518217
O          122.48664557384572      133.38331416864514      119.67553760008424
C          125.40595423856470      126.02906824757238      117.76332486157312
H          125.73565077341743      128.02419067072250      116.97841486944660
H          125.17453621694759      127.96885939003504      118.66042943231142
C          126.84187465426450      125.77171944367906      118.21304957395824
H          124.71330536649620      125.56038653929559      118.46306577371601
H          125.24722149604330      125.56809727107982      116.78919219744913
C          127.85323916268429      125.91979589315491      117.07684622786685
H          127.09964438257290      126.45078560744629      119.02924135871113
H          126.90106513840630      124.75058876098268      118.59496514512958
C          129.25994810964295      125.57013571376817      117.55440406389476
H          127.57529759567406      125.23514022678860      116.27247170056540
H          127.82996017227083      126.93588012023318      116.68175814045843
C          130.25860250391386      125.36915280018678      116.40924438293695
N          130.59603674143850      126.61337403357319      115.75955847784445
H          131.18351411364350      124.94497285265328      116.81351335184189
H          129.83778994287243      124.68306437733055      115.67197174497380
C          131.56004116725907      127.42501906378671      116.21219397444385
H          130.00090823045485      126.96384552872809      115.01289700004388
O          121.88641455360380      128.62401835592840      116.36373132775309
C          131.49564967556893      128.81571018602082      115.61754621830131
C          130.24455940488917      129.51680390190253      116.15684325105981
H          132.39538353357526      129.37007521195909      115.88556948947019
H          131.41981752172265      128.73492293405621      114.53334033515519
C          130.01294344489776      130.87702487122846      115.50709780449932
H          129.37360606297418      128.89335494754545      115.95297850038067
H          130.32906840714710      129.63584760127978      117.23961510513978
C          128.61369356394442      131.41309835954246      115.84740422478228
H          130.76648750363262      131.59061008878680      115.84658714090878
H          130.11389027341517      130.76794152498113      114.42557128124639
C          127.55209379997316      130.65343953570232      115.08107622546818
H          128.42938441094304      131.27245267312639      116.91378284061054
H          128.54618786171443      132.47640688090630      115.61770561574600
N          127.26646560433323      131.09467421105478      113.84356120202736
C          127.81379599209839      132.23353305680303      113.14081659612654
H          126.55382648807731      130.57070777405707      113.35422405812324
H          129.63681819980746      126.34836419309860      118.22042179081120
H          129.20572581893867      124.63937189958546      118.12042622102247
O          132.39455987420283      127.08903618029416      117.04609884874183
O          126.96728258733513      129.68084601104343      115.53633180977315
C          127.34585452657359      132.24879846701018      111.68690897955447
H          127.48580445001490      133.16268129018619      113.62693310349843
H          128.90533914683863      132.20350977116814      113.17744519086095
C          127.78480090157262      131.02720712216265      110.87734238619853
H          126.25527740908662      132.31117038924049      111.67247360434988
H          127.73447846388672      133.15399041534511      111.21617407472453
C          129.28901375035431      130.97606251150302      110.61689635872314
H          127.47808224116758      130.11282312493134      111.38332890215099
H          127.27033102367785      131.05783310870839      109.91449555516473
C          129.69297818922456      129.76448392004812      109.77126929300840
H          129.58575654185651      131.89128983427869      110.09882921960285
H          129.83281316421557      130.93906705855554      111.56186267903531
C          129.90945341591353      128.48966330844544      110.58753286193000
H          128.93062985652324      129.57613401171446      109.01326005066426
H          130.62980164210933      129.98103672822083      109.25504986309032
N          128.70727782581787      128.02146739820674      111.23388057956315
H          130.28861622129344      127.70609869218066      109.91903186624734
H          130.64983194252682      128.66089191385274      111.37404318764952
C          128.64848796789937      127.68974804074220      112.52817428063645
H          127.89404191101363      127.84560403471390      110.64885818036879
C          127.32013715734941      127.10907815557118      112.96541524770441
C          127.47998334868798      125.59437544295987      113.13031706317318
H          127.04266665391877      127.55335959189043      113.92434902413926
H          126.55470210686646      127.32183147293573      112.22009256537547
C          127.85837466282908      124.89743214371849      111.82380612451679
H          128.24836487219031      125.40358924392788      113.88159232137779
H          126.54428335088227      125.17188347438210      113.49707097872077
C          127.95659519368725      123.37475046812405      112.00201690980255
H          127.11575330785659      125.12953640534715      111.06038726172285
H          128.82158824755132      125.27198538093567      111.47308322818131
C          128.96036120327898      123.09522456294236      113.09502619526199
H          126.98810469624304      122.96230540935449      112.28538183325890
H          128.29173860548704      122.91944262715511      111.07108203841584
N          130.23458823378647      123.23480425850653      112.71219497628130
C          131.31450364887664      123.29674447359052      113.67098190347438
H          130.44289220517666      123.37876580859506      111.72777615104536
O          129.59395407913217      127.81146946029538      113.30128359654478
C          132.60567418700600      122.65636046706062      113.17398443921117
H          131.50196279528907      124.34735762483970      113.92323316837476
H          130.96632613138874      122.77947406040816      114.56989970609429
C          133.55350696559790      122.34860805648296      114.33388423694717
H          132.36611563480972      121.73215777139961      112.64366183035601
H          133.09903477879300      123.32604665583577      112.46873457593929
C          133.95510462583505      123.58874983121748      115.13229022495997
H          133.07647189116398      121.63364009153763      115.00904937858462
H          134.45495499515232      121.87455617511164      113.93835593299394
C          134.90067433697374      123.21831770563536      116.27020357698349
H          134.43840689893452      124.31074468633307      114.47074372562419
H          133.06887940497967      124.06210058001962      115.55425031816880
C          135.27025405699990      124.40997706495423      117.15838429238991
H          134.43251256614266      122.45339225286789      116.88923158760568
H          135.82335701726259      122.80126890722379      115.86116896633280
N          134.15882127996537      124.96219886891103      117.90552443949215
H          136.02081132985973      124.07775107811742      117.88360509651142
H          135.69555424028098      125.21084899466180      116.55109554383188
O          128.63655338048653      122.82834782439718      114.25145452582113
C          133.74949069952243      124.44460516122156      119.06958584672051
H          133.69764907261327      125.79669872866907      117.55565853480483
C          132.78376308631908      125.31446967105549      119.85114352772437
C          131.57466850678458      124.52427869402307      120.34749468210630
H          133.33858962347063      125.69677410760259      120.71229963972380
H          132.46778877252240      126.15894504143641      119.24005390046365
C          130.73694805834734      125.30444533143283      121.35746378064313
H          130.95409832363461      124.26499241811362      119.48875007219782
H          131.92128409804812      123.59933680672674      120.81317609503280
C          129.39499229972671      124.60572790654905      121.60982223149504
H          131.28809260634483      125.38481169829497      122.29661150017242
H          130.55460311354901      126.31584220054830      120.98902308574168
C          128.72827193446545      125.19801039823062      122.83561878900052
H          128.74573120814904      124.74908932287757      120.74506524350187
H          129.56504253045688      123.54191533969885      121.77231717072232
N          128.93405265844993      124.50220072840442      123.95385610697892
O          134.14915678836107      123.36177332137952      119.49170919537180
C          128.53152227994278      124.93639762594005      125.27372664371303
H          129.49257209276055      123.65404227474872      123.90599601545590
C          128.32240869389460      123.73624887515081      126.19510142976142
H          129.31401185658879      125.58165925535366      125.69416098595613
H          127.62411696783394      125.53741479037735      125.17976378490103
C          126.97844910005026      123.02712423451609      126.01417659812692
H          129.13250004402556      123.02780488436635      126.00773648361053
H          128.40699672201194      124.06941345694213      127.23087942567599
C          125.80406368109314      123.84917955852966      126.55427646967811
H          126.82779753962217      122.79479811652627      124.95893397214837
H          127.02003325632710      122.08264598620119      126.56181927407444
C          124.59478270498455      123.00057807011981      126.94431191340273
H          126.13554179297908      124.38231298636349      127.44769976897524
H          125.49731590880930      124.59694198060808      125.82111189634145
C          123.87929223294998      122.36463794110500      125.75380476876953
H          124.90799567673918      122.21560105963121      127.63527361172694
H          123.87662265098820      123.62801227481410      127.47415322406198
N          122.61276442789600      121.82199185689473      126.19496743925862
H          123.71107664505823      123.12682581109921      124.97980882915191
H          124.49355681312541      121.56883649662038      125.32289679996154
C          121.83549418064560      120.94341389676256      125.56425628467149
H          122.22791706590823      122.25510019587956      127.04522972125945
O          128.07247572963618      126.23556269624225      122.79444000250240
C          122.35223477179970      120.35312780220225      124.26554238055489
C          121.24981872857794      119.65297331746685      123.47084486306194
H          122.80082787242576      121.14650423525458      123.66511413566302
H          123.14538721134886      119.63927311913794      124.50803329068476
C          121.82754360369024      118.83008514156872      122.32452283465999
H          120.67495955405526      119.00675708679658      124.12969461995550
H          120.55978745012234      120.40295860774786      123.07881107389429
C          120.74752960033736      118.35998370012138      121.34558279931404
H          122.55668234498796      119.43654377128713      121.78207528188128
H          122.36304769410609      117.96469480198047      122.71927437090734
C          119.87445696575553      117.25462034690000      121.91544653982243
H          120.12157440044135      119.20494619850332      121.05732197412459
H          121.23736279661324      117.94850349588428      120.46033006097635
N          118.65137994117251      117.63983477632677      122.28453992760143
C          117.60906517852482      116.71657882978039      122.69474352937662
H          118.37673608796132      118.61217117928547      122.16910707113429
O          120.74944482540144      120.60871015352323      126.03891131530821
C          116.25906080483547      117.13685230217826      122.11964068526686
H          117.89776164384212      115.72406136946407      122.33854417851242
H          117.53936362182141      116.68098492740243      123.78816212091316
C          116.28038628610999      117.26192112885876      120.59715866291221
H          115.50711195625036      116.41640468814943      122.43883521343871
H          115.98207218005177      118.10131746865096      122.54667041586740
C          115.00420715225954      117.89441991142114      120.04444084000787
H          117.12327776236651      117.89701715249730      120.31442590835742
H          116.43391558841422      116.28325910333417      120.13866722105286
C          113.79687695686077      116.96061488510573      120.05524842419919
H          114.77478705299394      118.78635245123347      120.62986596012558
H          115.18618807031470      118.20909890082936      119.01440148233716
C          112.62171405929502      117.59816900792376      119.32493115757241
H          114.05607927276138      116.02587123646164      119.55478869674305
H          113.50577411965250      116.72977143373663      121.08008896681935
N          111.52065675009935      116.67254512910363      119.16913802999460
H          112.25040555629680      118.47279275406162      119.86687894700223
H          112.93201107722301      117.92642185892375      118.32454456007549
C          110.25577413433922      117.06813927823174      119.19880826922797
H          111.73541923305127      115.68302063590744      119.18398969867511
O          120.27456700390279      116.09562926462367      122.00728276829342
C          109.21396367720814      115.99996493674584      118.92437224414411
C          108.75510333968460      115.32584683401342      120.22036352991466
H          108.36040561883857      116.48487723269621      118.44651694362155
H          109.62030201264147      115.25219651516201      118.24433381386942
C          107.44541323667751      114.56391774792210      120.02647520715961
H          109.53932030874888      114.64810758552727      120.55804728572592
H          108.61115608729672      116.08656277260715      120.98990691966584
C          107.10590094711026      113.70590378864144      121.24932971954277
H          106.63463367978694      115.27631356590472      119.85177121298598
H          107.50947974799729      113.92269105248619      119.14521790471717
C          105.66293344043295      113.24424276419673      121.18755178105985
H          107.76313738781687      112.83431825460805      121.26771992674237
H          107.25893100188610      114.26929439648165      122.16802777159570
N          104.93411103448555      113.54696013486276      122.26412432189593
O          109.93012218320142      118.23743254746113      119.41490212013893
C          103.50708875064068      113.34256242920237      122.33743547926295
H          105.37417485373220      114.01774907501274      123.04886235376865
C          102.79373382434255      114.62397897625910      122.77508253603078
H          103.17190241974642      113.02121015835927      121.34859757176515
H          103.28092823869228      112.54284312022365      123.05332479489167
C          103.13338649057533      115.84218011216133      121.91400513723863
H          101.71721900250097      114.44635139892554      122.75617849171718
H          103.08281251292010      114.83942814645991      123.80627191180324
C          102.63408334701111      115.73796143770375      120.47345572442433
H          102.69539691994866      116.72127788337718      122.38936580082579
H          104.21705309936718      115.97626687992606      121.90277332504276
C          103.01329905418655      116.95687512785393      119.63111517984321
H          103.07652105756205      114.85609569663814      120.00767439432055
H          101.54932288668034      115.61420569431974      120.46700231013672
C          102.22564591797314      118.21902510193293      119.99269759752356
H          104.07848871440744      117.16388294357884      119.76351421802461
H          102.84132187119098      116.73464500411251      118.57612783708903
N          102.73473745756705      119.35030158627036      119.25248534654172
H          101.17152788433118      118.10294840908180      119.73374207090461
H          102.30930250900330      118.43026758214873      121.06352980066555
C          102.01047474997172      120.06665278390533      118.38905263328293
H          103.71162874470245      119.57729551961829      119.41946762056058
O          105.19924849974734      112.65450285981923      120.21537428616631
C          102.79440288650942      121.11703991416246      117.61983156470458
C          103.43139399861937      122.17396890705244      118.52520361260044
H          103.57370184334705      120.60309135545330      117.05025572526000
H          102.10444115391188      121.58414926401616      116.91616286382141
C          104.39674530602494      123.09094278135521      117.77407301087324
H          102.64919246212774      122.77646353210896      118.99027960720912
H          103.98721612308908      121.68049722405165      119.32135913959253
C          103.70934143336605      123.90089748694658      116.68218898171976
H          104.84722815982580      123.77627516368909      118.49445558052035
H          105.19558902826853      122.49854075706598      117.32174948694407
C          104.65256282510860      124.78319215600659      115.88737967991189
H          103.26880969940548      123.21934899976530      115.94963261537853
H          102.90554001842075      124.50923469335139      117.09731313893866
N          104.03741302882258      125.81277514371587      115.29709931631447
C          104.66974406545020      126.63897031703435      114.29021330096531
H          103.06303054309730      126.00315212891816      115.54698159549416
O          100.81116765300018      119.88978579220483      118.20439960508341
C          103.83226056965783      127.87203506559912      113.97449618794182
H          105.65798874879900      126.94551764046602      114.64932739009483
H          104.82065390722089      126.03321313419832      113.38803319776059
C          104.46090701254013      128.73654256750029      112.88113972734814
H          102.83371105289255      127.56913739683313      113.65511008692320
H          103.72100834629420      128.46201055677727      114.88685651736654
C          104.47628777746458      128.05294370837143      111.51420720194291
H          103.89187221865846      129.66497934893306      112.80285253807345
H          105.48281671851420      128.99733432987881      113.16770652014087
C          105.05454977752916      128.96889084475285      110.43489363448249
H          105.08444166541615      127.14809402504945      111.56349588490363
H          103.45927142407685      127.76493494059754      111.24467281257876
C          105.38264657776926      128.21474534071538      109.15395688329498
H          104.35201424983143      129.77443441539398      110.21566895180216
H          105.97708730341428      129.42336745165719      110.80425835864303
N          104.19006038013492      127.75765073276231      108.47129299753657
H          105.94356138281425      128.85267214310144      108.46183681531699
H          106.01655056217361      127.34961566235970      109.38553849027161
C          104.25990846186438      127.20704438518662      107.24845445978282
H          103.31112755929563      127.78564832545175      108.97370741933960
O          105.84986422176698      124.54705567613767      115.74957496666057
C          102.90273854119759      126.80331179444404      106.69409124362943
C          102.99450951393575      125.96285193192161      105.42127739920916
H          102.38052715601229      126.24654275195201      107.47100027269725
H          102.32840527663868      127.71413771337295      106.51069085243570
C          101.76706879223883      125.06445544269818      105.26515790416173
H          103.08518830086331      126.62126037111508      104.55678698139923
H          103.89817086140022      125.35158004367676      105.45768977972492
C          101.86630825153490      123.82504977764000      106.16682981667087
H          100.87375045645510      125.63934337434587      105.52332497418477
H          101.66953722345323      124.74185104418852      104.22858131512349
C          100.50403274716807      123.24705553855139      106.47993758264342
H          102.47041173066816      123.06715020987481      105.66301530921099
H          102.35367956768432      124.07988054133497      107.10853991799057
N           99.78941129600264      122.89436147658837      105.41676526672398
O          105.31006875749516      127.04739365074819      106.64851393861815
C           98.40955186216728      122.47215229157716      105.48281086183086
H          100.21673960495457      122.95287584645075      104.48978605671017
C           97.59581356828500      123.12653339370571      104.36840845472182
H           98.34395314970830      121.38106820230082      105.38648322381765
H           98.02765431797071      122.74846971843013      106.46830966451208
C           97.61355436010871      124.65539378330824      104.41796846190830
H           98.01271175813376      122.81342420736686      103.40865560968254
H           96.57144982445797      122.75721248453731      104.42009972231988
C           97.02090422111603      125.26743622170932      105.68909464916331
H           98.64795987450154      124.99292541436726      104.32619031884435
H           97.07243247986924      125.03488533238470      103.55042600624675
C           95.56122230468797      124.90194200516486      105.96029757753713
H           97.62267216440559      124.96740705994401      106.54908696693744
H           97.09624916696528      126.35458095054061      105.60640274527806
C           94.60533519322900      125.34697859852895      104.84376263685697
H           95.46428735295665      123.82366694967865      106.11038907604754
H           95.25395114686658      125.38885946393104      106.89153863555725
N           93.19697150701846      125.16029620152899      105.14175207265271
H           94.75826884484131      126.41004134246744      104.63706683588286
H           94.81403136330843      124.78969729340064      103.92770208304576
H           93.00233176974173      124.18161692613948      105.32652225773883
H           92.93789843408183      125.68610934399652      105.97015175411408
O          100.09299568219384      123.12037782751393      107.63946888370647
C          101.82243327552892      113.55424096392976      116.64360176755353
C          102.27178209376878      114.62037708882390      115.66434397830794
C          102.81943277739256      112.39259937979976      116.60817161781374
C          104.17801901407520      112.81541409111273      117.16484360690711
H          102.42831821285637      111.54740866248235      117.17620850359985
H          102.93499564884524      112.07993762327816      115.56942676541713
C          105.29002969785621      111.82597887150108      116.80755843455898
H          104.44654476781935      113.78695892079188      116.74603483043890
H          104.11831081010128      112.93511510959246      118.24614483128389
C          105.01342454399524      110.40710759597432      117.27738483740890
H          105.43261072634820      111.80493226739493      115.72658564179333
H          106.21963336064678      112.15443933451942      117.27874987206872
N          104.80711792673817      110.31506231356370      118.59290658378276
O          102.36930809443095      115.81658919567192      116.20946686414752
O          102.55330420250273      114.38458485119303      114.51206739706130
H          102.74374155551671      116.48580048248138      115.56165871705981
H          100.83613236253257      113.20385403156905      116.33474421051254
H          101.75207795845658      113.99057293878897      117.63949024051978
C          104.56196953083126      109.08732270306366      119.31127726409092
H          104.86979772880025      111.15691070822372      119.15636120032822
C          105.28951028435142      109.12534890333086      120.65391719787304
H          103.48433719468829      108.96485596861093      119.47999880790293
H          104.90761754450055      108.25691478744467      118.68979479470401
C          106.80752594501087      109.08711520802726      120.48029469869354
H          105.00935902449370      110.05071211638993      121.16246552063258
H          104.95979159936661      108.28867609295150      121.27134538184434
C          107.54551467445536      109.58760856803947      121.72153126940164
H          107.12397656339306      108.06818371360770      120.24768129282621
H          107.07885563225763      109.72073616424001      119.63352688162782
C          109.06238026640476      109.42476663454846      121.57610656208540
H          107.30051554726192      110.64110084898358      121.87016430735075
H          107.18637276224167      109.04272699529213      122.59748920440231
C          109.87521664006971      110.43444850392724      122.37380341391037
H          109.35874653295853      108.41351271989711      121.86199317719419
H          109.33654303368014      109.55416902098800      120.52800956564820
N          109.63311841367648      110.33351229111155      123.80065841281663
H          110.93974567461767      110.26197419428819      122.18301947249019
H          109.64194892478595      111.45694818542792      122.05632691998041