3258
 energy: -3427.542657925403 gnorm: 0.000761446870 xtb: 6.6.1 (8d0f1dd)
C           89.65214328135978       94.21559134220705      113.39645145193202
C           89.47580775493898       95.52379637186137      112.63418397668325
C           90.44142789597943       96.59724850338561      113.13059894705867
C           90.22752211534835       97.96153294442188      112.47516510786821
C           90.59553290255639       97.99349382675081      110.99278474401979
C           90.54322604841376       99.41189296608050      110.43049286175132
C           91.00619421077064       99.48567724436782      108.97700520603726
C           91.11168600393870      100.92933536314095      108.49150683416595
C           91.69050718543103      101.04033676893096      107.08267772165894
C           91.90241588149154      102.49693876908022      106.67730227643654
C           92.61876796652186      102.64706582773103      105.33752441945555
C           92.93520932669215      104.10994993512534      105.03532974601005
C           93.77867025454577      104.28749299080133      103.77561477330239
C           94.19051889242981      105.74401224519789      103.57611905279147
C           95.11950007513934      105.93397478022013      102.38011639285345
C           95.62225134982846      107.37143560501356      102.27566856711469
C           96.61694959294994      107.56132568976365      101.13409027882224
C           97.22378092277988      108.96171353375557      101.13498604973128
C           98.25467575770428      109.14827108105919      100.02554179905783
C           98.96765142816790      110.49366790874394      100.12789441341582
C          100.01325518902497      110.67949570542795       99.03222496238887
C          100.80693409619343      111.97052075782234       99.21100629648336
C          101.86215077569265      112.15672867047931       98.12470484606034
C          102.70293551958233      113.40948213873364       98.35283503875739
C          103.76980576559315      113.59601323220893       97.27820899344978
C          104.63057549577441      114.82926244688703       97.53589386144634
C          105.70707398898442      115.01837800543120       96.47134901518257
C          106.58397012167454      116.23368707627314       96.75593743296261
C          107.65701843716903      116.44569251835760       95.69149434964950
C          108.54749955292040      117.63896223179644       96.02477523185229
C          109.62934150297899      117.88590429061155       94.97719127194493
C          110.53094300893223      119.05173527669703       95.37348425822945
C          111.63795290758726      119.32237044747146       94.35851138017971
C          112.57907849303334      120.42265075389709       94.84177279383405
C          113.72406779062980      120.69518215035542       93.86979095682645
C          114.74556685005710      121.66071006344607       94.46530483254537
C          115.93402914213019      121.90966923467907       93.54048715461879
C          117.04416336297368      122.69371662827392       94.23742583159546
C          118.25181634270756      122.91578621470919       93.33065821717538
C          119.39123721250660      123.63543112746271       94.05008982324559
C          120.62456642325999      123.77419558730419       93.15941357460225
C          121.71185150606561      124.67333754710073       93.74891125268729
C          122.30510897317707      124.15323966158772       95.05758456971176
C          123.50729415401692      124.98714198533628       95.51121964983953
C          124.81280451668421      124.61020908516662       94.80375715981555
C          125.54109790947717      123.42933204790550       95.45149612291196
C          126.24120180603678      123.81017997577008       96.75624942751028
C          127.17458348960193      122.72063730585862       97.28779744772240
C          126.43634464087752      121.48555007710721       97.79602943425431
C          127.38284487074152      120.46081976046612       98.41835133472244
C          126.63500399710239      119.21976425295148       98.89852797728402
C          127.56257757068116      118.16820552473328       99.50152108423330
C          126.82005857306179      116.92035671275247       99.98566696869750
C          126.31035993426727      116.04338629298732       98.84455782469736
C          125.66786349109522      114.73654065991848       99.31438897158648
C          124.28190776677521      114.93225221323364       99.92312615829157
C          123.59910962010392      113.61120289747211      100.27720583937659
C          122.13772791549550      113.82269958603435      100.66689139705734
C          121.44610808450047      112.55073504925697      101.15260222619516
C          119.95853902336469      112.79250601326989      101.40579550508163
C          119.27687019582396      111.63739273816081      102.13308073486392
C          117.78331975583284      111.89159916189323      102.32777287035334
C          117.11697398991839      110.82308098683171      103.18946715512425
C          115.61762750445588      111.06124864606252      103.35920564301101
C          114.97541506475349      110.01684817054733      104.26830865186842
C          113.45812527310909      110.15524242657759      104.36861578465117
C          112.85358190824583      109.14405137055685      105.34155366995704
C          111.32628184528957      109.17010576664488      105.35030575702579
C          110.74048126943295      108.27160319102677      106.43746231794889
C          109.21449334342842      108.21421204335438      106.40601987534116
C          108.64628993127320      107.44184052451243      107.59439201920689
C          107.11878038483421      107.41907744565749      107.62178424131153
C          106.59705551412755      106.70505007278179      108.86567852169391
C          105.07734375618345      106.71970800001583      109.00285347387141
C          104.63709548950344      106.08720917307814      110.32178558337716
C          103.12430874286467      106.11344053817118      110.52360258764590
C          102.72652596961606      105.59587409869795      111.90382421984560
C          101.21594153720041      105.61139776869516      112.12765364265641
C          100.85088003924575      105.19263232605175      113.54926025866477
C           99.34613698040185      105.18966149819035      113.80627986334058
C           99.03300858585118      104.84293299836641      115.26010325902115
C           97.53718218695192      104.72155098715355      115.54137231959533
C           97.27210642760029      104.44663434630753      117.02044550527515
C           95.80880687476640      104.15179298654606      117.34999092228658
C           94.87128197194089      105.33101479541087      117.09443529473567
C           93.50311731345694      105.11219517530306      117.73757693652642
C           92.51796942567475      106.25284369622159      117.47422326128645
C           91.94375652196806      106.22934103580290      116.05966230984052
C           90.94346610579812      107.36028791815660      115.83041589085751
C           90.18902039312046      107.24671064205624      114.50309542104532
C           91.07552173889616      107.21549756661507      113.25759891117039
C           91.92281854000265      108.47169796656890      113.07730580385393
C           92.76189363973000      108.40036002625132      111.80363976043208
C           93.67279271493713      109.61023370542964      111.59800803166462
C           94.77500426427187      109.70134810950161      112.65079481108856
C           95.74519679580764      110.85656389568619      112.41333163747741
C           96.70004465929172      110.63219498485049      111.24381588762374
C           97.77933184235029      111.70929969898691      111.20071518925882
C           98.74163709846449      111.53997552061068      110.02997840691103
C           99.85009534960287      112.58668029645871      110.07266898386348
C          100.90540772756364      112.38452457643419      108.99085911753102
C          102.02044923173332      113.42064579674224      109.09317024242529
C          103.15669864453290      113.16577196293225      108.10966842725070
C          104.28388239196808      114.18425194593424      108.25318884747941
C          105.42650768893898      113.90989779459795      107.28148405097117
C          106.57829066522500      114.90015391336408      107.42737670384126
C          107.69204301149199      114.61238520481059      106.42485504242063
C          108.89946060002475      115.53028495226937      106.59335806606016
C          110.00416302562705      115.19141906862691      105.59565517421682
C          111.29355776133211      115.96993219328310      105.84268852867444
C          112.36575490611720      115.61819198798406      104.81408597039757
C          113.71216193279459      116.27112424876709      105.11431352027870
C          114.75142141132180      115.95280482120599      104.04144448866639
C          116.12163348727719      116.53778028097953      104.37153496482377
C          117.12421433767355      116.36349418664022      103.23416630984234
C          118.50140644283114      116.91661343153267      103.59401750132146
C          119.44414759176908      116.94487636435977      102.39433390116703
C          120.82407286345619      117.49446148627953      102.74928651659604
C          121.67381875379191      117.74641716114328      101.50706337835008
C          123.03742570657667      118.33005524825649      101.85043547204107
H          121.80675145697765      116.80948093625464      100.96186279182803
H          121.14225368448331      118.43953255574867      100.85046242964646
H          120.71269111132925      118.43276174172955      103.29969402583596
H          121.33758080561603      116.79081932298608      103.40794027993860
H          119.54975309279861      115.93685243495491      101.98549635698518
H          119.00018625347828      117.56345426952073      101.60951804688960
H          118.38855971710629      117.93263266522760      103.98248729264317
H          118.94090164867791      116.30999353047572      104.38959783860764
H          117.21282699863285      115.30361529938031      102.98237310447817
H          116.74937832150147      116.87693754469187      102.34500231424130
H          116.01149104451186      117.60347821371936      104.58717104634603
H          116.51152762936367      116.05595610958117      105.27230249867632
H          114.83704623578477      114.86933451912731      103.92893252152945
H          114.41133057896919      116.35003154282404      103.08182542126937
H          113.58513857423752      117.35426817106786      105.18245946605833
H          114.07437993138139      115.92252860692996      106.08507047977436
H          112.49271703123260      114.53337918507027      104.78684989743979
H          112.02916381010957      115.92710357583002      103.82101796321612
H          111.08776327888171      117.04249587873623      105.80506770094476
H          111.66755637155966      115.73905514173531      106.84336377817479
H          110.22097351622928      114.12186785232143      105.65128257715070
H          109.64872433766149      115.39480318381793      104.58204512612191
H          108.59280392388622      116.57048274078670      106.46305465218660
H          109.28648551730025      115.42945855040500      107.61037270681518
H          108.01294119394488      113.57385361243328      106.53776607068619
H          107.29862117731940      114.71901940469168      105.41058431907656
H          106.20682707227107      115.91761990442998      107.28032517018643
H          106.98008259685756      114.83821246376530      108.44212956390277
H          105.80120702763378      112.89698987313484      107.44409935734585
H          105.04399499961836      113.95481850250864      106.25855514381540
H          103.89173285710736      115.18884403606668      108.07962194791340
H          104.66551886645024      114.15537506353215      109.27703453544100
H          103.55513883118981      112.16281247894412      108.27423871713273
H          102.76713519041749      113.20095720558770      107.08921144827698
H          101.60457659457516      114.41568280813179      108.91420125477144
H          102.42271664380505      113.40773326358733      110.10832092952636
H          101.33198719349186      111.38484855742179      109.09236613480542
H          100.43610612840716      112.44717177057595      108.00593766758487
H           99.41152581643131      113.58397236231087      109.97397568050948
H          100.33620398700448      112.53399855078847      111.04961342044017
H           99.18464332592998      110.54285412082851      110.07252180271017
H           98.19195464263056      111.62026975603337      109.08829166992744
H           97.30935190692995      112.69444364895638      111.13837367489785
H           98.34698897601807      111.68031926828844      112.13442923879769
H           97.17449247080131      109.65302210956222      111.34607135127057
H           96.14724240596763      110.63688887457133      110.30204583204277
H           95.17544359937141      111.77065602885325      112.24293308641910
H           96.33733022252110      111.00303718697100      113.32022115593851
H           94.31583853849720      109.83918085835388      113.63217945354731
H           95.32925667358201      108.75914824059166      112.67130123588782
H           94.12676243656293      109.53544203803538      110.60740067644628
H           93.07355131137102      110.52463195904274      111.61910168699627
H           93.38135619521634      107.50049555303941      111.83947392507349
H           92.09270438297303      108.30727761621263      110.94446882086886
H           91.27214520706291      109.34934590721768      113.03860813867630
H           92.58230475690888      108.58154616743778      113.93764454768704
H           91.73493665184608      106.34652028900432      113.30421614430074
H           90.43269678455270      107.09089494400303      112.38206953610127
H           89.58691925340733      106.33370166193809      114.52073004248307
H           89.49749079352210      108.09004573763239      114.42426086349195
H           90.20676938458448      107.34986348981670      116.63899105894990
H           91.46118137524952      108.32015556970568      115.88130728871785
H           92.75695212301594      106.30838845781162      115.33849767124288
H           91.44353585892817      105.27128248259989      115.89995353503096
H           91.69207037765800      106.17847205199048      118.18711933328956
H           93.01618133409889      107.20984032129817      117.65037076323472
H           93.06965201729902      104.17780062523855      117.37229676115824
H           93.64149544678064      105.00659620626591      118.81744456434149
H           95.31250820119315      106.23805909024064      117.51055135541050
H           94.75377809192183      105.48188441989575      116.02090696041361
H           95.47445993016167      103.28740512321380      116.77015597248406
H           95.74529738194749      103.87828889020378      118.40733960416706
H           97.87158140772090      103.58623853286291      117.33033551282838
H           97.60501913826252      105.30466274723668      117.61123002216040
H           97.04088138067756      105.64801466622220      115.24426203531023
H           97.12021563646830      103.90883257973182      114.94203187778255
H           99.52136478905118      103.89797056058214      115.51464890220963
H           99.45729846802512      105.61142495995868      115.91129995483671
H           98.93441154140325      106.17438757002000      113.57167020039610
H           98.86367590616024      104.46547205310199      113.14537309134739
H          101.24354006582185      104.19187044978470      113.73984556832278
H          101.33142366196853      105.87184174131292      114.25832616583530
H          100.83657877144481      106.61763110578828      111.93650075644003
H          100.73241151256805      104.93804921420299      111.41605861947943
H          103.10175361949970      104.57569283155856      112.02817707964830
H          103.20663772463186      106.21184524292374      112.66901720388496
H          102.76261903841532      107.13668551413271      110.40526139274357
H          102.64098157033503      105.50485518259018      109.75539329070330
H          104.98827459400358      105.05215589315526      110.36055949585474
H          105.11255138992421      106.62343786392783      111.14727985652253
H          104.71632737565903      107.74858226263071      108.95814067804297
H          104.62681381569138      106.17533488357040      108.16878249357288
H          106.93768535956362      105.66877720471967      108.85179740031117
H          107.03049074529321      107.18346266464765      109.74722723076465
H          106.74364968258105      108.44369201807817      107.60916090694629
H          106.74397380683584      106.91849290425068      106.72515674387746
H          109.02203700262069      106.41607266131530      107.57286918532768
H          109.00714946371164      107.90235989119839      108.51802256050752
H          108.81706279816106      109.23088570995620      106.41760244336189
H          108.88792116626928      107.74524169628111      105.47475221751309
H          111.14204220168598      107.26058554342288      106.32924820964600
H          111.06021950258828      108.64929410243224      107.41176112586353
H          110.98441732249421      110.19514570387156      105.51225452887839
H          110.95558578025353      108.85016893929037      104.37368891936636
H          113.19133067762604      108.13991471282212      105.07163357910210
H          113.22341723240056      109.35298802286859      106.34803908329613
H          113.20646699112991      111.16696844173374      104.69754011884983
H          113.01875983515770      110.01291510106454      103.37870249454447
H          115.21155923307154      109.02514967733106      103.87735776725543
H          115.41381034554072      110.09094335084528      105.26647084764076
H          115.45468058949882      112.05834013192792      103.77789102716535
H          115.13639289475631      111.03290810220265      102.37915702320750
H          117.27374898355879      109.84171990450189      102.73473986248483
H          117.59562350368550      110.80956957282164      104.17145188067387
H          117.64713736404404      112.86725260693231      102.80316623370992
H          117.29325221548773      111.93084910906028      101.35244703597911
H          119.41797645605975      110.71277999837768      101.56751977632548
H          119.75061891958677      111.50212508570129      103.10798217636938
H          119.84486673039056      113.69652758319303      102.01044289792175
H          119.45489118540209      112.97081490852908      100.45240127791553
H          121.56724491908707      111.75830568974943      100.41017104861444
H          121.92288349222687      112.21290136137563      102.07603386313031
H          122.08857750543909      114.57130252326469      101.46133884355432
H          121.59314682243394      114.22021032750344       99.80557617754411
H          123.65023947054949      112.93226419531562       99.42143397691693
H          124.13160721096312      113.13444742467219      101.10363525252370
H          124.35795390645150      115.54749551292636      100.82086350673801
H          123.65752136784060      115.47295867155938       99.20825277139812
H          125.57691026086958      114.06638134241437       98.45493023686718
H          126.32231599241766      114.25143282666849      100.04089843772138
H          125.58158519527846      116.59727771552599       98.25142325268365
H          127.15270708287700      115.80929113496165       98.18786771537187
H          127.49898771061886      116.32624893760155      100.60192524798613
H          125.98432128048543      117.22981811983036      100.61558835143380
H          128.31258101366438      117.88049480824534       98.75982399483490
H          128.09301391905817      118.61471812621019      100.34716850840650
H          125.89559482234989      119.51303207893913       99.64868483598995
H          126.10027278633721      118.79052112980388       98.05012326555715
H          128.13153502202329      120.16599196478721       97.67861162688190
H          127.91267958019158      120.91657797897547       99.25908339433585
H          125.69996978262186      121.79443913992914       98.54149112759842
H          125.90040473312662      121.01455630911526       96.97080050054073
H          127.87349730987874      122.42793649830512       96.49999767622269
H          127.76397712129680      123.13831249559989       98.10895935704060
H          126.83104864509123      124.71417710293500       96.58065549313348
H          125.50101874592065      124.04582565148009       97.52372968996809
H          124.83112270469249      122.62119468740804       95.63133085396791
H          126.29488867451403      123.05706548620901       94.75311613231518
H          124.59488758945938      124.36645751182881       93.76158939849040
H          125.48519848648235      125.47185677044475       94.79896649367885
H          123.28604860380128      126.04146210110683       95.32791237659561
H          123.64546106791556      124.87109039804049       96.58707932344775
H          121.53889765427179      124.18628309398289       95.83349083118753
H          122.60672418997859      123.11113745405130       94.93326424068933
H          122.50992272119906      124.77503213236325       93.00905948697370
H          121.29751559717725      125.67090345875177       93.91893937715795
H          121.04138701987405      122.78341399054180       92.96461879124270
H          120.31637517350539      124.19295248866203       92.19726357503096
H          119.05290700618689      124.62704040722785       94.36058436575466
H          119.65177864928890      123.07627814663010       94.95081461749159
H          118.60929222826196      121.94918747434039       92.96843625827125
H          117.94795516899694      123.49949531060307       92.45782199414820
H          116.65563377003946      123.65894693144479       94.57039293392137
H          117.36321457380204      122.14441252038679       95.12729206830134
H          116.33289771683063      120.94974257557305       93.20413369411538
H          115.60143663848106      122.45445015275772       92.65331684035169
H          114.25903747250234      122.61006854066039       94.70092637371701
H          115.11236738226954      121.24204715206186       95.40583892141967
H          114.22255817617214      119.75291182260553       93.62950852602617
H          113.32757706533175      121.10434314695678       92.93714950427666
H          112.01150983050223      121.34224345740965       95.00287470864369
H          112.99808380478345      120.12779450302244       95.80728507932791
H          112.21015742330621      118.40580330984706       94.19616190381309
H          111.19690121912174      119.60918631534508       93.40038012409663
H          109.92386938999219      119.95207147241034       95.49447938334666
H          110.98597211118536      118.83480007548764       96.34333024393534
H          110.23407210068142      116.98347461527329       94.86157654626740
H          109.16261454703580      118.09551988646039       94.01110167428187
H          107.92830750610948      118.53405616682041       96.12055305118967
H          109.02402664673122      117.46864937591478       96.99364422042377
H          108.27137489490788      115.54588645661649       95.61209753087523
H          107.18071529166158      116.60554153476211       94.72047171203954
H          105.95622624883643      117.12580664533749       96.81870801089828
H          107.06695934922831      116.10619420150736       97.72820578279031
H          106.33449159118506      114.12476992682974       96.43495568690531
H          105.23443348670381      115.13168501107795       95.49172886354998
H          103.99307109817761      115.71606400922322       97.56938934879949
H          105.10967186288808      114.73366509635835       98.51367656727905
H          104.40963359298786      112.71056236074942       97.25078082310070
H          103.28920455084912      113.68583218533331       96.30001115437763
H          102.05064151870951      114.28589929044756       98.37298719086117
H          103.18978391038583      113.34007948916206       99.32894023219139
H          102.51698805048773      111.28212514752822       98.10785171251851
H          101.37351143102887      112.21834781701509       97.14862969705696
H          100.12297066899822      112.82259543200189       99.20357609890654
H          101.29994073151508      111.95249841085021      100.18635951901656
H          100.70145738694416      109.83072331491726       99.04678342064268
H           99.52148076973816      110.68490942191542       98.05593139257762
H           98.23394736424538      111.30138061762003      100.07223203933762
H           99.45825732764060      110.56068220509135      101.10244858083477
H           98.99461146110033      108.34640595088719      100.08753899861867
H           97.76370116224012      109.06630243212733       99.05241056177648
H           96.43048431887956      109.70508080095874      101.02516653148051
H           97.70676035991528      109.13575357015897      102.10023667907868
H           97.41898927333990      106.82575401144867      101.23382247652090
H           96.11890196180005      107.37696092908305      100.17887571951471
H           94.77429550645486      108.04685740043099      102.13659903042218
H           96.10906302560221      107.64273168306246      103.21626940422874
H           95.97659065727413      105.26430060107002      102.48531443260497
H           94.59726238546729      105.65880760086613      101.46039932565311
H           93.29770007132016      106.36186455718270      103.44784910854347
H           94.70307239051932      106.08985664642530      104.47732189205598
H           94.67785304385224      103.67229497524649      103.85912987741145
H           93.22024739218924      103.93835618159251      102.90354557335809
H           92.00307386249888      104.67173734292592      104.93248167797307
H           93.48048316301265      104.53220924518354      105.88244916581968
H           93.55267894938616      102.08065707171239      105.36748338149526
H           92.00408433158246      102.22687463803206      104.53768804105158
H           90.93725893472082      103.00804554480447      106.63494303115792
H           92.50021703240230      102.99055760761470      107.44656948790434
H           92.65011947233135      100.51885553450769      107.05033554477779
H           91.02449495657987      100.54940466926806      106.36891169647109
H           90.12480310033766      101.39761653404987      108.52034298429220
H           91.75616504056332      101.48329699811099      109.17863666998191
H           91.98516262221580       99.00842253875801      108.89088021636020
H           90.31280493667781       98.93080005722669      108.34042765650102
H           89.52505460372602       99.80035170155683      110.50936761447043
H           91.18420887723407      100.05429484185360      111.03948671452649
H           91.60665011118490       97.59866318616341      110.86881055353656
H           89.91661673263081       97.35515849534691      110.42454315186012
H           89.18358861609232       98.26074052186857      112.59821599093947
H           90.84217292631440       98.69799914302571      112.99975485535516
H           90.31373555515259       96.70580913404326      114.21130193106293
H           91.46801645256072       96.26822566006243      112.95223388183510
H           89.64112406845656       95.34287934693565      111.57074282360242
H           88.44948721547972       95.87875889907221      112.75646797610800
H           88.96245217470300       93.45979841482897      113.02773421632057
H           90.66695300646643       93.84127378254880      113.27984345056554
H           89.46341504303648       94.36366083943906      114.45782239896523
H          123.58499462576594      117.66089358250447      102.51202932381354
H          123.62643981166828      118.48050046023123      100.94774230423448
H          122.92542551636393      119.28959125500316      102.35134724501219
C           95.84764944398621      121.11538372816595      116.79416690105877
C           96.80387918984216      121.88702212348291      115.89311227640715
C           96.06690532576340      122.88420345469220      115.00194773397483
C           96.99732503638428      123.66466586340162      114.07125743089013
C           97.53471401169507      122.82515186129298      112.91417356898172
C           98.45040507209150      123.63352556406376      111.99821812105424
C           98.95866127915323      122.80048572363397      110.82420039882180
C           99.90820603255472      123.56362853830008      109.90011012539739
C          101.22718551419982      123.93642180195471      110.57607471570668
C          102.29247313355020      124.35447643196453      109.56670753646107
C          103.61241334732310      124.77138488792747      110.21782813473392
C          104.24769161530426      123.66325163995977      111.06073625986559
C          105.74688413296687      123.87950184275984      111.25197848662589
C          106.40959507782482      122.73912336771942      112.02473122432436
C          107.92652225793819      122.74107004055367      111.84818999690377
C          108.60363055709614      121.58168058997249      112.57367856027305
C          110.10376413978801      121.52963660553407      112.29701253744520
C          110.78877591018440      120.40307547059189      113.06481174830827
C          112.27952333946671      120.31057012661601      112.75292625405341
C          112.96908304192718      119.23126025144688      113.58218292628322
C          114.45796319426729      119.11996216497154      113.26752696477914