3258
 energy: -3427.534221212371 gnorm: 0.000984018714 xtb: 6.6.1 (8d0f1dd)
C           89.65368558672726       94.21660034600100      113.39505288540248
C           89.47703742284115       95.52436951819493      112.63280984260771
C           90.44279594069903       96.59727475731086      113.12982891100323
C           90.22836793453070       97.96172975505770      112.47482611771967
C           90.59621752040384       97.99354979524477      110.99231048991322
C           90.54350741453953       99.41211225258431      110.43018784876980
C           91.00666841738845       99.48590980640115      108.97666710494511
C           91.11191632142933      100.92981578339375      108.49148973251560
C           91.69092358750426      101.04064520459661      107.08259426240525
C           91.90257318881790      102.49749863877138      106.67746184665420
C           92.61916946703116      102.64748533005363      105.33764646664892
C           92.93537351124313      104.11062551390270      105.03572183762384
C           93.77900306258022      104.28802167040313      103.77593472827778
C           94.19055925119439      105.74482134946939      103.57676462159210
C           95.11970483445445      105.93451473829961      102.38064749404053
C           95.62206061634106      107.37227543138832      102.27611279655409
C           96.61704890618505      107.56167401290705      101.13445655017050
C           97.22368622626453      108.96232783015134      101.13528974880995
C           98.25480141670542      109.14836885706322      100.02568930707911
C           98.96758415839260      110.49407086659782      100.12809954985934
C          100.01331773884124      110.67947678977941       99.03220719402232
C          100.80686706959230      111.97079112139852       99.21113230132373
C          101.86219501616223      112.15655978107530       98.12456302918747
C          102.70283962482576      113.40965029258300       98.35284695979797
C          103.76986348151806      113.59584501574672       97.27797125659048
C          104.63042111197991      114.82950856488921       97.53586939214962
C          105.70713022574772      115.01827677209424       96.47113208773308
C          106.58397605540969      116.23385010019291       96.75598467061779
C          107.65708857608644      116.44556224225330       95.69123776195227
C          108.54756680890736      117.63897810869027       96.02499321237545
C          109.62943666028900      117.88581297181106       94.97714860597202
C          110.53103075528266      119.05176179549549       95.37382688995599
C          111.63797350235645      119.32222652162491       94.35846424642466
C          112.57908765292717      120.42261457415921       94.84201482668878
C          113.72407293630647      120.69490202300220       93.86969089044580
C          114.74569152428005      121.66030820558800       94.46558776917644
C          115.93405345627119      121.90928271316641       93.54039125830624
C          117.04417202098784      122.69344665456336       94.23751424893842
C          118.25175223459024      122.91550957988196       93.33040672089767
C          119.39122181996743      123.63475686841323       94.05039605725494
C          120.62441539443223      123.77370161626537       93.15936801386709
C          121.71143403873344      124.67281567380000       93.74917118385835
C          122.30440078079818      124.15254437632744       95.05802119085526
C          123.50685143151368      124.98656520727769       95.51120605679989
C          124.81205837972405      124.60936026393570       94.80356473920067
C          125.54038485048466      123.42827503337423       95.45090271022282
C          126.24032906646680      123.80922776004962       96.75579494240061
C          127.17397625158273      122.71992551236657       97.28694619815364
C          126.43562113622885      121.48504954697763       97.79571926424597
C          127.38285170586170      120.46051142140941       98.41740742369926
C          126.63476778911036      119.21970674239201       98.89818171668971
C          127.56284874534805      118.16806530195467       99.50060264912422
C          126.82016604840634      116.92045412407920       99.98555381999834
C          126.31035566011359      116.04335848843316       98.84422032560393
C          125.66812676062850      114.73610584777610       99.31379016887779
C          124.28190749027083      114.93197468581390       99.92263300017851
C          123.59921036683694      113.61038227168794      100.27617109386122
C          122.13759118853581      113.82243808636134      100.66582240265386
C          121.44646255568371      112.55006459076110      101.15225291440321
C          119.95868012020942      112.79252656723055      101.40552987881620
C          119.27733258591169      111.63691671741873      102.13314894479606
C          117.78345827583756      111.89173893969316      102.32755751166462
C          117.11740689853072      110.82271688696436      103.18957520998104
C          115.61773684402580      111.06159501815651      103.35916080990111
C          114.97586498068527      110.01659134969815      104.26849402600656
C          113.45823201902418      110.15595003231533      104.36879132929866
C          112.85415302967540      109.14397064276109      105.34182080467751
C          111.32642614237844      109.17058118909129      105.34987033523927
C          110.74098707637661      108.27174981212558      106.43752707939581
C          109.21456992357720      108.21462616194847      106.40541544576865
C          108.64679129232849      107.44198592595089      107.59436699502369
C          107.11885942455693      107.41949732897018      107.62130779726833
C          106.59759022411937      106.70507446379143      108.86572074252885
C          105.07739392246559      106.72007667900893      109.00248650073006
C          104.63744314932060      106.08721786142772      110.32181986575068
C          103.12417787447389      106.11382460822810      110.52315948067843
C          102.72689449222018      105.59603782836460      111.90388389974621
C          101.21585534294748      105.61154694164208      112.12735728440131
C          100.85121971868639      105.19249866929249      113.54944157837862
C           99.34603495828995      105.18978468559517      113.80617837465373
C           99.03347399992353      104.84292960091990      115.26047768183392
C           97.53732491439416      104.72151404673332      115.54161547700137
C           97.27280141405205      104.44652383343912      117.02113872401620
C           95.80916411035088      104.15161953470556      117.34970539315832
C           94.87190373695321      105.33126058891250      117.09384726946497
C           93.50372937162903      105.11230723221956      117.73751741719228
C           92.51899748989382      106.25309786403874      117.47372178279385
C           91.94515166507756      106.22931124574913      116.05891015123633
C           90.94464592452485      107.36025523934369      115.83010510911178
C           90.18991264650491      107.24629069464245      114.50317835283276
C           91.07599073576814      107.21496560319903      113.25738776852134
C           91.92342425841440      108.47143343388927      113.07817518359960
C           92.76197205009294      108.40014008489418      111.80404562623583
C           93.67227432912429      109.61055350779534      111.59772009127779
C           94.77444220782932      109.70152407292682      112.65084944803425
C           95.74463078627161      110.85708349408031      112.41370926469648
C           96.69950796421892      110.63239576524401      111.24381641357238
C           97.77905543737840      111.70971250715253      111.20132826363358
C           98.74116897039390      111.54016443207138      110.03004778047922
C           99.84962597921806      112.58734979561092      110.07328061173141
C          100.90490726852882      112.38491630482199      108.99095963788238
C          102.01997150076140      113.42154868603544      109.09357052822835
C          103.15629466265109      113.16601931808218      108.10970007068914
C          104.28346175271351      114.18505113888703      108.25352422996659
C          105.42619815774513      113.90996455369891      107.28153593490170
C          106.57800268746023      114.90077948203650      107.42766216623065
C          107.69184933589879      114.61224733321548      106.42482603682318
C          108.89934141646208      115.53068658218254      106.59364679829112
C          110.00421060883109      115.19115571809316      105.59573512539454
C          111.29359465970877      115.97031053401567      105.84316633420160
C          112.36558526320810      115.61789086250560      104.81409114383476
C          113.71197445699050      116.27135051291899      105.11494051226060
C          114.75084242903048      115.95289582823767      104.04125361625806
C          116.12124801654646      116.53796356928319      104.37194060065492
C          117.12344023397056      116.36375780274766      103.23372045958170
C          118.50076052513469      116.91704120982820      103.59424413001207
C          119.44345559871255      116.94489985523140      102.39406963482935
C          120.82367567742942      117.49425117089430      102.74975718335243
C          121.67338373262476      117.74623362094066      101.50709720601719
C          123.03708179828948      118.33010228093701      101.85101523304346
H          121.80598881226376      116.80929903357459      100.96216914309504
H          121.14136763600052      118.43921717846720      100.85112294075850
H          120.71204815214672      118.43229197526705      103.29968145674863
H          121.33660923791179      116.79022032902601      103.40791005508855
H          119.54870153656508      115.93706981708766      101.98541973888899
H          118.99971613625107      117.56379429104589      101.60978472541268
H          118.38721388555203      117.93290098427521      103.98164795413885
H          118.93991213079585      116.31030780419144      104.38938243988727
H          117.21165095751586      115.30417594851561      102.98192368077622
H          116.74860748622119      116.87799634531852      102.34538808230803
H          116.01094837139942      117.60325938370923      104.58741002623026
H          116.51056611142492      116.05503037488853      105.27188080463124
H          114.83624369454067      114.86966042673100      103.92935165435037
H          114.41062092525215      116.35029974467423      103.08213167071320
H          113.58422344472682      117.35400078798843      105.18309370525245
H          114.07412299455463      115.92178296700276      106.08493883371975
H          112.49239977028266      114.53328650354933      104.78752781273511
H          112.02893465933839      115.92687473091108      103.82147057681223
H          111.08729143388065      117.04222312710635      105.80458259456402
H          111.66762277934671      115.73918925987613      106.84332151696243
H          110.22096773230243      114.12180638249210      105.65155713747178
H          109.64862204127979      115.39484464462434      104.58267931117058
H          108.59224796198505      116.57002638680815      106.46205708931852
H          109.28593834895761      115.42994968639667      107.61043061183280
H          108.01245935077010      113.57380145190666      106.53777351252037
H          107.29837103128220      114.71927654092877      105.41107906414005
H          106.20627719531070      115.91731312603322      107.27922903763557
H          106.97962394105916      114.83887477778850      108.44208275936383
H          105.80076851285808      112.89713674392539      107.44414568404780
H          105.04378455059896      113.95529701403017      106.25903827476627
H          103.89134131830691      115.18877705834606      108.07868206119268
H          104.66506129774757      114.15608055341734      109.27696878615431
H          103.55488974879181      112.16314356341022      108.27403305525586
H          102.76683885390976      113.20175128000716      107.08970556036624
H          101.60433346525298      114.41560950867921      108.91304224958148
H          102.42247426336874      113.40879619643422      110.10838223274172
H          101.33177838241721      111.38530407849913      109.09196827855482
H          100.43590850030149      112.44843254023579      108.00650480216881
H           99.41128076889250      113.58383549670550      109.97355118742658
H          100.33615012178862      112.53450379083129      111.04982313374801
H           99.18454321358591      110.54314955560383      110.07201904146331
H           98.19202841847738      111.62145747488206      109.08874590094688
H           97.30977950890372      112.69446893308043      111.13814927329548
H           98.34729681240178      111.68062385730344      112.13445730273453
H           97.17429894855860      109.65330212346041      111.34539814472933
H           96.14747616567686      110.63822726433723      110.30209758897875
H           95.17550375326708      111.77075232839266      112.24207589108262
H           96.33737596714276      111.00345132031011      113.31998749649355
H           94.31541033261351      109.84057943451953      113.63164642208483
H           95.32925217033676      108.75953884116625      112.67245929039622
H           94.12626177976435      109.53612039329538      110.60716898531335
H           93.07334391490099      110.52430117651468      111.62047508127655
H           93.38207507837703      107.50048954430645      111.83908850317448
H           92.09293314128513      108.30760373015747      110.94521960318271
H           91.27304839832257      109.34848645909187      113.03885550876909
H           92.58327203696980      108.58074010322660      113.93825991931642
H           91.73566027167415      106.34594643908558      113.30298521786916
H           90.43346577810992      107.09158171207632      112.38185248504182
H           89.58834697007492      106.33328396357507      114.52062768679151
H           89.49935588606508      108.08974182220095      114.42397757700201
H           90.20855127925383      107.34861282958657      116.63850310580825
H           91.46239413594017      108.31994032674925      115.88114368377454
H           92.75852802929307      106.30833168322221      115.33756202291892
H           91.44504016423764      105.27135862751003      115.89938865505481
H           91.69301393216536      106.17787774479132      118.18550747289179
H           93.01708566764673      107.20987728822806      117.64992201892400
H           93.07068778259215      104.17797568506282      117.37239597965517
H           93.64350982761870      105.00777224158733      118.81677121726577
H           95.31379208280757      106.23768212793318      117.51021215912250
H           94.75500554621047      105.48281545641605      116.02022864509021
H           95.47578992448419      103.28717497208952      116.76996667997270
H           95.74622724656965      103.87950949226608      118.40680563223066
H           97.87293493358958      103.58669182746277      117.33051930678776
H           97.60575540019192      105.30495247343131      117.61069712370137
H           97.04184919772483      105.64810633741389      115.24418275089286
H           97.12131948919095      103.90900527569897      114.94185229527447
H           99.52209247509967      103.89822477483195      115.51378995288022
H           99.45818501916274      105.61151388862038      115.91067989413934
H           98.93537589128549      106.17457203431719      113.57123459208745
H           98.86442804185397      104.46572894959507      113.14506524588677
H          101.24395183335427      104.19192693626916      113.73891597255691
H          101.33197432821660      105.87176953780572      114.25779584584099
H          100.83697753109701      106.61771840185058      111.93616335960468
H          100.73312083878679      104.93812520581690      111.41586121727397
H          103.10213735846422      104.57634286062004      112.02724598013708
H          103.20686036281108      106.21226514563324      112.66848333288353
H          102.76290470523624      107.13701265032783      110.40471485081996
H          102.64151511797135      105.50504834809044      109.75529319524014
H          104.98797634474869      105.05251870597782      110.35964663750525
H          105.11270403662708      106.62340331866827      111.14704646206297
H          104.71676574278963      107.74887966566894      108.95788744042716
H          104.62740517459534      106.17550347146188      108.16893912971973
H          106.93762577456617      105.66906100356908      108.85119192878005
H          107.03066517337533      107.18358160402801      109.74699836093737
H          106.74358774550348      108.44382598077684      107.60907361361659
H          106.74434311505769      106.91845689262259      106.72551844739435
H          109.02156570584947      106.41653903109435      107.57202619945782
H          109.00710369154994      107.90258156747409      108.51764743833246
H          108.81692718490036      109.23096116147845      106.41704600016570
H          108.88840377211618      107.74490941460428      105.47502678362736
H          111.14161060237362      107.26120037393883      106.32849078552820
H          111.06006795403520      108.64958487212822      107.41153328673693
H          110.98472627883709      110.19532871452556      105.51186576934501
H          110.95602573815133      108.84982770166486      104.37396635849794
H          113.19119550725166      108.14045196096352      105.07112031242632
H          113.22331994367127      109.35289104647650      106.34811545922562
H          113.20702326305074      111.16714022015168      104.69857617943077
H          113.01883297148358      110.01334201123942      103.37941317189832
H          115.21105109706834      109.02543446811258      103.87673050714830
H          115.41392531653433      110.09040876894657      105.26640324334134
H          115.45482089884784      112.05805952307114      103.77831960089590
H          115.13656796995876      111.03260931110181      102.37956695160285
H          117.27344095565230      109.84192672441289      102.73450606438455
H          117.59560810439471      110.80951894596939      104.17139744346356
H          117.64716734169529      112.86689276847270      102.80322477130647
H          117.29345601555367      111.93031201118492      101.35262797226429
H          119.41778756113774      110.71296654219070      101.56740732268388
H          119.75052671035729      111.50204602388867      103.10801910737716
H          119.84489358208360      113.69623374670120      102.01029948864718
H          119.45495773650713      112.97016760096338      100.45249221642992
H          121.56658914618058      111.75838065205727      100.40970323814378
H          121.92295402035866      112.21287459595572      102.07563097277584
H          122.08808947092024      114.57132573964221      101.45988773834381
H          121.59292522928165      114.21872187525905       99.80432258633338
H          123.64933226886311      112.93259414320815       99.42012839293037
H          124.13106300371476      113.13380056295841      101.10261146698988
H          124.35757688630046      115.54701421758041      100.82047843343126
H          123.65737874307588      115.47260121497975       99.20801510398557
H          125.57628953678999      114.06647639832369       98.45457010445180
H          126.32193616411224      114.25130756327728      100.04068151838986
H          125.58140525694908      116.59684700807055       98.25114026216814
H          127.15267485260965      115.80907290044597       98.18846138612911
H          127.49883922261728      116.32593640958440      100.60135215787155
H          125.98446672431189      117.22996377283287      100.61571342561297
H          128.31138549701924      117.87967227529838       98.75837502989943
H          128.09309214699724      118.61405707010321      100.34621683170860
H          125.89575408175260      119.51276276030116       99.64895686131305
H          126.09933306901641      118.79017986452800       98.05031041156468
H          128.13016411288854      120.16493361458627       97.67722405464997
H          127.91237783191087      120.91585705152497       99.25796764469686
H          125.69981285299926      121.79367739284972       98.54194059806770
H          125.89898159672572      121.01368152434056       96.97110788484761
H          127.87184979541875      122.42644062588813       96.49902155628588
H          127.76313227056376      123.13701579695534       98.10806727061779
H          126.83024042868520      124.71251116121444       96.57951845418025
H          125.50047267568316      124.04513453972757       97.52347215180305
H          124.83078782120006      122.61945802902741       95.63009586012276
H          126.29456013084062      123.05685657222918       94.75283892650759
H          124.59403267907177      124.36582466799310       93.76158161741692
H          125.48448312293446      125.47048198949338       94.79976891246365
H          123.28516477767722      126.04022681427635       95.32688247566735
H          123.64511698109925      124.87135318216193       96.58710537803857
H          121.53815768561356      124.18604985051179       95.83392878526485
H          122.60540234626171      123.11006184082888       94.93420771114992
H          122.50968361626758      124.77429451827514       93.00994444214730
H          121.29691986839858      125.66975132942150       93.92001282693522
H          121.04110742681556      122.78309141290974       92.96368626534536
H          120.31543309775213      124.19327823251926       92.19832766977703
H          119.05306942568527      124.62616817921058       94.36076217833072
H          119.65153421299969      123.07534078293745       94.95138173025296
H          118.60901392059917      121.94919950610227       92.96749232333686
H          117.94765031145133      123.50024337834058       92.45906128206660
H          116.65564600851050      123.65852663570996       94.56999057498494
H          117.36331255012351      122.14453608218469       95.12793059738011
H          116.33284802469379      120.94966199595069       93.20354196856860
H          115.60106283446457      122.45494270704228       92.65469926626038
H          114.25927246818719      122.60936022621692       94.70102321555707
H          115.11238235557269      121.24181496143930       95.40652963440078
H          114.22217783136146      119.75273699916215       93.62889978266114
H          113.32728884684597      121.10522102073597       92.93847476040527
H          112.01154355097620      121.34187534111543       95.00263162805446
H          112.99786881325625      120.12820464804578       95.80804037080904
H          112.20986627168938      118.40573226305472       94.19572946383751
H          111.19643056349017      119.61011051273805       93.40169573738658
H          109.92398041025790      119.95171556140097       95.49451776463322
H          110.98586286122558      118.83521857689647       96.34413926759986
H          110.23382502592861      116.98339992711659       94.86120707342013
H          109.16222117636140      118.09662350663004       94.01240391885736
H          107.92830698963940      118.53360553954792       96.12045551934270
H          109.02377276576071      117.46904982698456       96.99437961809632
H          108.27103269815116      115.54567231362616       95.61137683393991
H          107.18030531162958      116.60668687605494       94.72151757805750
H          105.95624962762146      117.12551526323652       96.81827996635823
H          107.06664850838067      116.10687125335004       97.72877444719684
H          106.33437657728919      114.12468945927444       96.43493920556141
H          105.23427096426798      115.13246794597906       95.49259709481605
H          103.99290959775662      115.71579048418235       97.56876735613014
H          105.10920626512475      114.73458746682519       98.51417727153800
H          104.40962048846848      112.71049448709907       97.25072979627899
H          103.28897337674766      113.68648145824218       96.30088857337873
H          102.05051703169575      114.28552470371578       98.37231502328780
H          103.18940823248288      113.34111725445840       99.32947867480853
H          102.51673429429384      111.28186847271344       98.10744466689296
H          101.37317639310675      112.21935035488410       97.14964762801628
H          100.12296712241572      112.82237155964123       99.20292559103255
H          101.29955870377358      111.95373360029502      100.18699737304789
H          100.70130215776872      109.83062632402128       99.04640822922033
H           99.52117453786749      110.68622356461508       98.05698872097636
H           98.23396570333091      111.30124667007216      100.07160287181163
H           99.45782283287464      110.56212232689820      101.10310060876358
H           98.99458503201961      108.34642048947819      100.08731277325845
H           97.76345599467574      109.06772608674871       99.05348318415945
H           96.43058166844531      109.70516050827428      101.02459375556255
H           97.70626142851836      109.13735082598215      102.10088961823317
H           97.41900548138499      106.82610558205384      101.23410860593449
H           96.11875211357821      107.37834718423210      100.17997266868585
H           94.77429270760520      108.04708447387900      102.13617325748434
H           96.10846859289363      107.64450388794569      103.21696547655422
H           95.97683928917075      105.26495737668355      102.48568073997765
H           94.59719225560437      105.66024574305989      101.46161207070240
H           93.29796770075723      106.36218008599215      103.44800056295230
H           94.70281564647996      106.09127306362456      104.47820300095701
H           94.67816724895368      103.67282229876295      103.85900461186782
H           93.22017874333649      103.94009093213731      102.90443695606984
H           92.00348597127862      104.67186450514649      104.93219151659244
H           93.48021931945352      104.53347120318664      105.88310887448462
H           93.55297309625540      102.08097254659397      105.36722886025601
H           92.00404437110629      102.22839277186333      104.53842125106331
H           90.93750701873478      103.00783966014636      106.63446583056754
H           92.49982327720183      102.99167861636298      107.44710907225868
H           92.65034152765065      100.51891395638785      107.04986560766639
H           91.02438969674490      100.55072868244214      106.36948725613759
H           90.12502023746322      101.39725410330126      108.51975499798202
H           91.75576489676754      101.48443111744103      109.17904283918651
H           91.98539986192851       99.00829600414332      108.89013941214688
H           90.31282961176605       98.93223940277035      108.34041148701724
H           89.52538038141216       99.79983578163240      110.50850062674002
H           91.18392811580134      100.05516086520146      111.03945756959642
H           91.60714138875760       97.59846535565990      110.86768983975792
H           89.91673857429878       97.35603980031560      110.42457564045246
H           89.18439391880548       98.25998866293973      112.59732279614529
H           90.84243787454534       98.69866925439835      112.99967369623087
H           90.31491239688658       96.70585462186955      114.21043519244505
H           91.46938018733383       96.26823378921809      112.95155081166416
H           89.64256749954782       95.34360098181705      111.56950966428725
H           88.45100304001538       95.87932769620573      112.75544372509692
H           88.96424148529670       93.46049806133853      113.02653717742352
H           90.66854675730140       93.84210798442483      113.27868292636359
H           89.46495808530400       94.36444125661022      114.45645879434419
H          123.58386235408751      117.66047847549069      102.51253679770544
H          123.62550248595537      118.48020264357737      100.94816125424249
H          122.92417137881004      119.28937108377434      102.35172911515637
C           95.84938630603428      121.11599551897885      116.79491524518164
C           96.80582709732737      121.88755165437189      115.89406295777280
C           96.06848002799606      122.88447114780058      115.00281017319449
C           96.99869433061291      123.66489965827903      114.07212328936045
C           97.53591131151350      122.82504093149554      112.91513224263385
C           98.45148148123880      123.63374257389140      111.99922213930488
C           98.95940373391517      122.80017620508869      110.82530557595663
C           99.90862143065985      123.56347641334251      109.90087704624423
C          101.22784057866537      123.93589520266072      110.57687383617090
C          102.29271675075945      124.35402189143664      109.56689824449229
C          103.61254757124331      124.77135275097852      110.21786815619433
C          104.24791985525499      123.66320240896611      111.06098091609277
C          105.74727908121437      123.87978854987641      111.25164222305170
C          106.40980019838815      122.73948523756040      112.02503345735717
C          107.92686157551096      122.74150858954688      111.84800029758031
C          108.60376887669372      121.58193270884432      112.57382551134695
C          110.10409137233412      121.53013421055047      112.29676414968500
C          110.78887165471473      120.40330860790671      113.06487606141381
C          112.27982100442649      120.31109973543600      112.75252097925869
C          112.96917446566771      119.23166990398367      113.58232061575963
C          114.45832164954940      119.12052950584935      113.26741703821469