3258
 energy: -3427.448496918325 gnorm: 0.000996583736 xtb: 6.6.1 (8d0f1dd)
C          107.30211517955549       91.96821243120135      102.06746636867625
C          108.35897884821549       91.20816637733614      102.85932423832188
C          109.74958106774683       91.37698751851489      102.25255649945406
C          110.82956362919866       90.66511705662936      103.06271561037700
C          112.19914239994540       90.72387371508182      102.38627263584230
C          113.28953814434651       90.17102276384864      103.30140086730798
C          114.64178873056068       89.95596424695030      102.62094631600588
C          115.23180814142508       91.21905738346572      101.99363098154674
C          116.71148128408387       91.03554147641927      101.65803213168904
C          117.33522914263526       92.23585189158968      100.94342981355463
C          116.89318237999774       92.37023833914424       99.48701395943520
C          117.65371766377707       93.47484957096501       98.75479450508854
C          117.21783710659685       93.58764989424010       97.29535771554750
C          117.95400711434515       94.67873068502713       96.51504107332019
C          117.60246226230930       96.08854434981181       96.98446712691471
C          118.16348668091491       97.17462431792380       96.06878359985275
C          117.81322882210523       98.56727196794239       96.58776704802874
C          118.29856508746849       99.69183520501812       95.67545464094212
C          117.88299233965478      101.05599780637763       96.22168643747355
C          118.25369063119507      102.21866916814929       95.30410792365048
C          117.72014904506818      103.54500662072645       95.84387501440722
C          118.06074955725566      104.72846871545269       94.94066997854334
C          117.47618257361003      106.04833060787318       95.45213917513416
C          115.99208365261025      106.24060136479108       95.12729938341373
C          115.76058292532866      106.65836746468258       93.67554554051691
C          114.28278223189174      106.75146954722599       93.28947298894492
C          113.52927096093026      107.85299465562449       94.03148074381239
C          112.11165118819810      108.05607318012260       93.49706969557462
C          111.33074099740800      109.03208335075071       94.37414539268326
C          109.92542443228339      109.32387153604076       93.84940033186025
C          109.06259938512360      110.08206965235456       94.86155923684790
C          109.54100832171294      111.50806831621675       95.13449725759769
C          108.83071930837089      112.13753963287786       96.33287486463391
C          109.45976686896473      113.47412148214016       96.72156054183368
C          108.76773720600502      114.17267330882117       97.89435280450036
C          108.77857026841112      113.40605189751304       99.21925364892262
C          110.16623424938165      113.15007807536068       99.80586907992010
C          110.85257248217022      114.39991585335993      100.35173042224088
C          112.24285261906286      114.08253465457376      100.89965838148214
C          112.92728560344835      115.30286418517562      101.51328907220109
C          114.40058143226690      115.04091575097387      101.82363126424174
C          115.05357189918797      116.22884291401431      102.52795133421056
C          116.57631684635395      116.12018602259133      102.62002027478817
C          117.09176321327480      115.02192195284320      103.55017982788041
C          116.79559086847546      115.29886225849133      105.02366371387681
C          117.62350051931625      114.43224132681398      105.97187112426857
C          117.31058161713804      112.94320270652298      105.86180275173629
C          118.05468387181075      112.10241583205664      106.89739009022877
C          119.57141084173233      112.09572930788185      106.70556443328240
C          120.21596182391842      111.02590015899285      107.58160443191925
C          121.73223141124943      110.90549505289047      107.44631317448818
C          122.19564591711125      110.39189106807125      106.08467807388546
C          123.65124408982059      109.93090298891819      106.12930399361859
C          124.18122222462098      109.56921776407313      104.74502493406901
C          125.65156582429204      109.15830344218544      104.77358021464023
C          126.22838985818417      108.89672983682401      103.38069181747211
C          126.38707939709408      110.17653045694524      102.56249417186513
C          127.11732332308347      109.97285967333474      101.23503457505147
C          126.42570580298006      109.01804861187024      100.25983403501127
C          124.98141601126247      109.40345714670151       99.94428258472433
C          124.44546524057563      108.63178921793447       98.73912561544996
C          122.93944268560099      108.81210039558593       98.53473711485071
C          122.11003302381185      107.93564106808159       99.47059510951570
C          120.61166084266068      108.12998034364587       99.25784375710593
C          119.75850307532633      107.25287052151603      100.17556079840026
C          119.61331694022280      105.80968294404754       99.69958721185337
C          118.79988528233818      104.97716374500649      100.69003029132864
C          118.33449737420219      103.64693345388865      100.10355945981814
C          117.43665003523903      102.88637159484918      101.07672584356870
C          116.84648227772071      101.60704594863378      100.48458876937386
C          115.78390282193332      101.87018154606541       99.41910728748562
C          115.08637270600995      100.58140670545322       98.99291339266522
C          114.12189917479070      100.78861760757314       97.82943627208707
C          113.39627017681133       99.50108020889789       97.44615765584321
C          112.43435867802479       99.72433323592563       96.28211759175535
C          111.70493333333285       98.45744545731334       95.83449324768740
C          110.83857226449915       97.84252750732540       96.93592068539006
C          109.67756441544371       97.01071843126405       96.38810349776919
C          110.09308350656077       95.81260614644469       95.53241664143508
C          110.90467203285372       94.75056828969397       96.27494865351275
C          110.10114499903860       94.02696664506385       97.35359018382276
C          110.86487992421365       92.86501512116456       97.99153167052690
C          112.12444620436156       93.27253466366307       98.75758027580066
C          111.82551435879303       94.13444480233846       99.98150976039592
C          113.08589987382575       94.51227576454103      100.76056003709596
C          113.85063919993004       95.67158361544607      100.12795674379895
C          115.15046816838958       95.96966468916156      100.87039540389446
C          115.81613818903935       97.23616781502366      100.33908489234561
C          117.25258775845981       97.42950711026040      100.82026762442001
C          117.37346474838823       97.51377844330833      102.33947036653061
C          118.76391904266126       97.97423372853676      102.77476923197445
C          119.04700608597075       97.69578795106791      104.25000247715894
C          118.08154349906476       98.39490310783775      105.19976631322230
C          118.41684102688612       98.15701875299725      106.67037829418220
C          117.39086066233796       98.81778817565875      107.58701948936211
C          117.65814885778683       98.56018345060963      109.06759366992078
C          116.62902312083030       99.27274406691657      109.94127432045467
C          116.87415333885644       99.11175402451968      111.44031032014125
C          116.60496302715755       97.69943488536330      111.95563659969342
C          116.57824283852273       97.65462101378220      113.48198037915401
C          116.22344311255139       96.27132855828501      114.02103136280537
C          116.03830001018311       96.26613307093432      115.53692296602162
C          115.56051342880822       94.90433607031832      116.03805967198772
C          115.52031905764743       94.79242564611806      117.56221499330492
C          114.48884145308726       95.70690554881804      118.22014046273299
C          114.43384317248507       95.48621571923057      119.73032392635298
C          113.61410110273805       96.54198759341961      120.47148387161306
C          112.10297853736417       96.44215584456420      120.26779485983242
C          111.38783763897209       97.48143437504481      121.12990528051351
C          109.86524872178489       97.44386227490817      120.99992269595894
C          109.16839986563861       98.24136597319288      122.10576618273036
C          109.40851295410030       99.74635022539299      122.00671268686625
C          108.93229710142393      100.50098693943630      123.24660891568737
C          109.30703990886694      101.97922054435793      123.17314109674295
C          109.03479961158867      102.73502436040084      124.47151069985226
C          109.58850386558487      104.15688070679016      124.41337308218336
C          109.42163668572579      104.91118673196054      125.72946073050275
C          109.98704932197052      106.32651998337195      125.64110125362021
C          109.72264871907487      107.14594661233333      126.90108609874521
C          110.26714577251288      108.56384384725543      126.77608762972314
H          108.64635402036123      107.18785020177961      127.08214375952551
H          110.18492022828686      106.65281270269797      127.75913447517269
H          111.06431718897549      106.27388791531945      125.46415797726712
H          109.53695482959196      106.83522745324515      124.78606819410551
H          108.36111759787762      104.96026299861028      125.98511755959443
H          109.92759117944422      104.36593217755909      126.52967077841994
H          110.65035321177128      104.11482081358140      124.15876277300617
H          109.08177289078212      104.70954305050162      123.61901716959976
H          107.96030249809334      102.76662486988866      124.66511785658120
H          109.50463513026787      102.20158183384264      125.30136268406902
H          110.37368097200010      102.05359294115334      122.94836662506059
H          108.75992427143925      102.45196863149114      122.35370786850760
H          107.85101482043569      100.39562117770203      123.35894228838579
H          109.39863652705660      100.05981378771524      124.13111779027545
H          110.47781234669735       99.93018704677552      121.89141339519956
H          108.90505470789093      100.13921435637202      121.12060488453155
H          108.09349939132960       98.04721007255785      122.06971145730463
H          109.52938932142311       97.88476441162911      123.07395748408130
H          109.56844586932618       97.82983892070470      120.02241234454709
H          109.53344323058897       96.40433809990840      121.06064857370282
H          111.65604648927004       97.30973402113598      122.17579239591194
H          111.75609975750500       98.47152784192792      120.85376791934362
H          111.85135897094970       96.60129823992372      119.21799443593221
H          111.76282481588579       95.44143756938163      120.54405077341036
H          113.81910485647016       96.44959864112998      121.54188711589970
H          113.94806487701750       97.53293979344451      120.15608862008189
H          114.02901195897091       94.49373925031934      119.94147115687723
H          115.45564790567163       95.51224419818540      120.11838779497731
H          114.74456546063098       96.74971535146393      118.02388060919630
H          113.50781757279150       95.51368490156521      117.78296935920355
H          115.29006529208402       93.75782227845174      117.82955984722584
H          116.51079844505807       95.02100324893243      117.96436784159008
H          114.56592964517213       94.70261862705740      115.63361969361915
H          116.23383174376067       94.13461244020749      115.65198816141366
H          116.98516292097459       96.52203092500373      116.01853210754905
H          115.30961107464964       97.03263953968634      115.80810437637103
H          115.29672221253435       95.93174030265271      113.55050595148080
H          117.00734549273240       95.55978134203623      113.75096042187590
H          117.54912093227125       97.96255175140737      113.87737547282725
H          115.83808042612394       98.37439322169162      113.83939743626166
H          115.63933097235089       97.35957702126692      111.57288122743822
H          117.36810910290478       97.01302437753247      111.58475585642361
H          117.90208236770917       99.39932943969748      111.67033241440943
H          116.21621215421871       99.80094980616592      111.97371018369110
H          116.65168525724009      100.33821652028826      109.69862487309933
H          115.63105253428988       98.89979435200485      109.69880373469299
H          117.62686124573804       97.48578899956746      109.25705716388627
H          118.65898824648870       98.91379720701447      109.32618240972063
H          117.39603628668371       99.89522734597294      107.40685979686528
H          116.39388411547596       98.44586895612009      107.33595965325199
H          118.44084863352644       97.08320119596645      106.87391950766883
H          119.40969214738250       98.55731411402513      106.88909108837490
H          118.09909546141782       99.46729246349561      104.99991968220556
H          117.07013211914571       98.03126631665842      105.01248610880063
H          118.98413222218750       96.62058500714450      104.41348001323207
H          120.06820797732176       98.00890222005832      104.48078281542124
H          119.51448019739451       97.44532185442525      102.18200355926250
H          118.87368799415431       99.04068375400308      102.56885403039404
H          116.62350141730612       98.21036525082860      102.71572910987901
H          117.17114728783029       96.53292118627681      102.77393207448438
H          117.87123200422198       96.60392130040960      100.45778779822638
H          117.64154343642386       98.35239943837841      100.38173927671383
H          115.81800522182560       97.20306921637138       99.24724889756125
H          115.22033006646122       98.09937978737265      100.64014113991362
H          114.93742241191343       96.08867981209536      101.93496246512625
H          115.82701957381487       95.11996369837124      100.75963683492667
H          114.08280123119582       95.43872037094086       99.08683383611552
H          113.21923503236071       96.56366015490181      100.13462014097760
H          112.80686545236287       94.79699053110639      101.77846209174336
H          113.74267522462306       93.64322582103543      100.83702590162756
H          111.31399107131682       95.04911029763707       99.67811674484933
H          111.14969511349504       93.57721945231640      100.63441913430330
H          112.63149167721635       92.36220614643312       99.08934838831409
H          112.80639250539716       93.79763361517416       98.08810844550584
H          110.19370880353922       92.34287996443892       98.67872508419728
H          111.14740597041678       92.15847201725497       97.20669882636849
H          109.79940049392945       94.72989281913753       98.12981732690974
H          109.18805348617806       93.62986494186266       96.90201854465512
H          111.25421740850767       94.01289197935780       95.54762762911081
H          111.78482550320875       95.21713227737084       96.71665375996162
H          109.18882052667993       95.34662230873541       95.13158803628346
H          110.67786266954509       96.17083602677002       94.68285197608317
H          109.06797486538255       96.66171010784386       97.22431602130779
H          109.04335627482590       97.66096929307999       95.77966296189443
H          111.45511027842318       97.22901032733989       97.59411327543184
H          110.41704255034492       98.64826770585736       97.54046629317516
H          111.06601222636890       98.71777972135179       94.98666228308309
H          112.43602091020389       97.72642161417961       95.48384754866754
H          111.69617188994984      100.47733250508132       96.56945919724261
H          112.99389567313222      100.12565091244703       95.43280043138799
H          114.12847879004862       98.73779726105019       97.17139808411693
H          112.84454326370827       99.13419798622114       98.31329356428863
H          113.38530861649797      101.54801979735716       98.10009022017900
H          114.67107799453591      101.16523546720754       96.96274418001694
H          115.83945090671367       99.84397341401227       98.70840293792298
H          114.53142430394391      100.17845392958669       99.84354083233399
H          115.04354288530328      102.56962236001253       99.81335157682388
H          116.24415633299884      102.33250757612261       98.54527885540180
H          117.64852287916322      101.00076841946199      100.05664103015546
H          116.39222791172212      101.02501399407157      101.29065280801258
H          118.01827287303500      102.63236852563915      101.96556514835449
H          116.62025837588153      103.53986427300826      101.39356719040357
H          117.78152077004727      103.84556059461077       99.18402081959356
H          119.19921123447577      103.03106505351647       99.84479290790169
H          119.39540019610997      104.79890386312644      101.58888492508655
H          117.91902534656451      105.54567626211130      100.99476992396444
H          119.11492202443524      105.80600099033062       98.72648665982490
H          120.59644423663187      105.35544663939915       99.56809683216296
H          120.18426126510272      107.25913071871190      101.18127361883555
H          118.75801698686037      107.68609801362776      100.24086793564175
H          120.37036215908776      109.17785472439469       99.44684052615591
H          120.35710931768999      107.91860700105796       98.21645860880159
H          122.37500140855890      106.89097825027262       99.30117961740352
H          122.34983405701800      108.17456034124076      100.50920911758844
H          122.67777851366350      109.86273951908734       98.68387989327201
H          122.68257986992886      108.55437698819976       97.50496373832314
H          124.97576123214439      108.96968689443872       97.84528386749740
H          124.66318843243467      107.56832426084766       98.86614259157417
H          124.35362137823230      109.20122015146059      100.81278694416930
H          124.92645721369496      110.47416378595310       99.73491569305757
H          127.00017105173302      109.01182761094536       99.32954608292219
H          126.44658526905749      108.00254751100509      100.65858495271952
H          127.22372545486516      110.94823326853449      100.75197812886965
H          128.12405012312723      109.59603362977467      101.43412087657946
H          125.40911045487888      110.61176703318070      102.36177209714123
H          126.95259993085259      110.90089576583999      103.15493993376886
H          127.20903830247462      108.42543201308432      103.48749316082315
H          125.57835680380332      108.19719268232853      102.85305028162615
H          126.23721479376555      109.94189008903690      105.26186252650361
H          125.75111242333485      108.25183898127943      105.37703356042846
H          123.58673413089653      108.75181069334650      104.33150969231849
H          124.05721859399050      110.43306840198309      104.09027865318663
H          124.26451744093008      110.73002439647755      106.55391793198302
H          123.73564077237167      109.06575239557365      106.79081117945755
H          121.56564981041261      109.55331464447734      105.77692565420243
H          122.09059522674353      111.17930641392461      105.33528109973386
H          122.19715464889353      111.87320578345336      107.64672827875282
H          122.08238090556172      110.20925030803306      108.21235512952478
H          119.97877487775554      111.24677141608237      108.62402148336251
H          119.76553277694227      110.05909949439848      107.34060269408208
H          119.79850065478369      111.90455807987929      105.65561577507131
H          119.98423634098415      113.07171715095191      106.96420833517963
H          117.82021188715521      112.46694065029685      107.90094095040513
H          117.69258440880090      111.07342027387180      106.82737169524312
H          116.23671282792600      112.79502648208228      105.99843351930673
H          117.57444886848512      112.58683085244493      104.86504552189517
H          118.68176383714214      114.59424985584575      105.76089845945040
H          117.43461209806853      114.75347455008519      107.00020052939267
H          117.01993050683006      116.34818583113132      105.23367195807165
H          115.73374414213235      115.14703722494993      105.22752271109354
H          116.66100235199606      114.06468428699552      103.25597838362148
H          118.17505183249480      114.94877610257446      103.42200490059635
H          116.97332522831636      115.94534009306302      101.61661629609806
H          116.97271976104135      117.07805721481142      102.96697340388330
H          114.81352860171162      117.13527118506815      101.96749017870960
H          114.62810099067777      116.34044461557029      103.52671309447355
H          114.48221017149807      114.14811295433850      102.44501585993481
H          114.93101998775647      114.84265258074954      100.88830367667155
H          112.85166164097865      116.14410619119614      100.81900284522723
H          112.40895945119037      115.59017248200162      102.43194007733575
H          112.16490643705342      113.29560059608164      101.65524148009128
H          112.86436427481610      113.69631369740846      100.08911506701172
H          110.94669604752205      115.14901114871454       99.56337097513627
H          110.23818840355329      114.82952850747436      101.14492535124080
H          110.06251428240211      112.42922466290203      100.62050929845476
H          110.80026004322843      112.69288424466335       99.04632661666658
H          108.19019646142199      113.97107883970411       99.94713201634245
H          108.27849262472826      112.44591278013613       99.07852409514189
H          109.24462477024095      115.14296913590633       98.04216521000495
H          107.72600059951429      114.36030195907639       97.61932576097931
H          110.51359483505979      113.31480471369068       96.95774618818199
H          109.42281943704711      114.14517248957476       95.85915540981173
H          107.77259614698426      112.28128700284078       96.10209183127064
H          108.89670479011126      111.44955805607700       97.17743709044819
H          110.61313514968698      111.49952294854897       95.33657750774719
H          109.38281910436723      112.12281207317677       94.24557211575480
H          108.03211088784279      110.11698788938872       94.49958661930891
H          109.05792884518766      109.52089546493660       95.79986144402183
H          109.99047431151503      109.89495973422498       92.92070141666191
H          109.43408113326650      108.37464962626325       93.62024185889379
H          111.25166775816116      108.61326267129238       95.37981306511045
H          111.89914288313319      109.96074353599087       94.44594039436306
H          112.15745201912495      108.43579461973968       92.47381130412961
H          111.59257073904723      107.09521288490383       93.46955233847211
H          113.46896007837294      107.60134409693933       95.09214578334574
H          114.08375049441376      108.79086116876522       93.94582568446656
H          114.21609901767420      106.94410032605673       92.21561091583017
H          113.79809098978433      105.79057198560234       93.48047310091283
H          116.23660243171057      107.62706921560262       93.50285090504947
H          116.24199856254360      105.93534397743764       93.01359497135822
H          115.44813613689449      105.31643880771315       95.32910223603132
H          115.59322625628714      107.01228562395315       95.78778478505106
H          117.61353785857207      106.09302759841047       96.53536801075761
H          118.03473442093090      106.88224630493099       95.02083211133996
H          119.14717747484814      104.82086600175781       94.88170457088560
H          117.69640180101037      104.53006124487263       93.93124107421353
H          116.63565201123012      103.47010127080492       95.95422276478871
H          118.14295433981370      103.72123265788423       96.83650453925638
H          119.34022182257290      102.27462198628933       95.20105078094979
H          117.83845933351586      102.04074959579246       94.30902146252141
H          116.80053313786198      101.05443381067772       96.36454603082774
H          118.34184736331665      101.20896965004313       97.20169963600399
H          119.38580334321756       99.64480962480971       95.57741491521118
H          117.87290227291437       99.55645698148247       94.67821816687464
H          116.72745463447561       98.64233958176605       96.68906293345763
H          118.24543169900393       98.69856100173817       97.58315297782231
H          119.24881417773173       97.06904598499098       95.99942844481441
H          117.75671245831411       97.04940009604262       95.06233503916930
H          116.51445913496130       96.18734034248835       97.02395388401384
H          117.98879547450036       96.24764415971265       97.99194169712331
H          119.03205373517933       94.52427767705566       96.60099415872661
H          117.69186166140699       94.58543386184924       95.45791265517964
H          117.39102041980865       92.62688752642794       96.80382034927960
H          116.14353204251952       93.78512895079261       97.25693089356731
H          117.47984179053749       94.42393358493771       99.26303338983618
H          118.72576242897975       93.26677007834357       98.79692478565809
H          117.06157458142802       91.41966041309360       98.97491524086699
H          115.82397137303899       92.58590475884635       99.43933831019088
H          117.08639459834114       93.14851562545608      101.49011249759059
H          118.42243412372740       92.12697500700511      100.96342275600850
H          117.25756270369894       90.85858686212005      102.58888134472930
H          116.83431274279546       90.14606113558804      101.03550954535206
H          114.67791018353678       91.45963959506975      101.08599623688704
H          115.12415069683006       92.05741589254274      102.68545322101328
H          115.33956484101624       89.57471037568250      103.37203303958086
H          114.54151090939310       89.18837698324650      101.84992631541097
H          113.41688635762061       90.85299814291993      104.14419968688850
H          112.95626670817816       89.21295021483779      103.70869022882832
H          112.16842934279553       90.14677815933472      101.45921076773732
H          112.42775158515347       91.75928088648985      102.12915672353455
H          110.89482891064748       91.12325817531605      104.05289102306172
H          110.54441498138694       89.62005825919323      103.20630134594226
H          109.74635194657428       90.98606370087749      101.23199278229406
H          109.98650018962675       92.44250368772545      102.20122365876880
H          108.36859758975272       91.56888817894111      103.89044606558383
H          108.10190803610483       90.14680847868223      102.88437219373085
H          106.32007665378497       91.84434749850341      102.51778230176038
H          107.53569385324288       93.03024021398174      102.04441572170545
H          107.25887345292452       91.60514357558536      101.04271442330733
H          111.34188599847445      108.54753394539999      126.60720000561184
H          109.79831207234299      109.07907995089506      125.94030582841476
H          110.07033688697413      109.13328715718028      127.68127976512817
C          127.07110517212709      103.11794005477590       99.91641053702969
C          125.87202746114437      103.47453305467542      100.78621084223988
C          125.56810289439180      104.96999711324419      100.74537862987145
C          124.28217995610976      105.34993568285130      101.47936898564038
C          124.38160898968518      105.20293389853772      102.99538256837546
C          123.10850702882321      105.66786465090169      103.69985053339887
C          123.25176593542528      105.59655372939234      105.21749129319370
C          122.02644992624167      106.12045729383699      105.96224379429174
C          122.25650414424558      106.12094348896055      107.47104886836954
C          121.08117441256766      106.69502475214604      108.25636120236040
C          121.37077114946207      106.71351342402384      109.75646329566689
C          120.18476911795911      107.16425583899093      110.60902658549814
C          119.76589009440083      108.59935594635913      110.31273423568638
C          118.64485694483010      109.09843578076810      111.21840193387099
C          118.20010905943319      110.49930159620308      110.80862190123752
C          117.07693985580529      111.05339835358420      111.67715545288212
C          116.63496025726978      112.43074514923420      111.19000105931133
C          115.52864189266560      113.02258930703563      112.05685887416142
C          115.10861345391938      114.43054167737652      111.63503173374048
C          114.54101653532823      114.53403776658492      110.21937021479854
C          113.26540331749838      113.71543164630017      110.04515148047720