3864
 energy: -5104.222557173265 gnorm: 0.000806772406 xtb: 6.6.1 (8d0f1dd)
C           67.71127225787635       61.64074714968748       47.75126626668077
C           68.54348707214645       60.63654962736084       47.26890885746374
C           68.59874120494777       60.42853335167857       45.89564839116500
C           67.83920475875938       61.19411465350846       45.02833379207842
C           67.01557762304957       62.19030142058465       45.52272716879160
C           66.95355493482870       62.41027904690049       46.88789474581596
C           69.40610565873629       59.82264735338600       48.19959191438297
C           70.44099726791681       60.73779800565453       48.86493728604862
C           68.60495035976204       59.07544276463189       49.27463362942334
C           67.88709976335456       57.81717405378190       48.76126644113296
C           67.63809610144735       56.85218910489705       49.89378323289662
C           68.04073021643688       55.52546021542491       49.79350489464997
C           67.76672667590347       54.62088516478342       50.80375881238019
C           67.11402769170964       55.03786700069931       51.95098478770778
C           66.73439002611266       56.36279987670572       52.07354629793673
C           66.98529139792370       57.25919950107052       51.05089525716473
C           66.55702777382517       58.14927084167500       48.06859037393895
C           65.90788474347940       56.91950750442923       47.41382227734077
C           66.84305977264790       56.31958732399180       46.39681166097001
C           67.33683255930855       57.07274466112948       45.33803712151585
C           68.28770612069873       56.54681776271521       44.48143470169867
C           68.75890418675580       55.25766832264684       44.66676249898530
C           68.23785019454529       54.48105031249899       45.68798380128733
C           67.28191650412047       55.00828439869775       46.53690276087794
C           64.55331429538994       57.29657397740036       46.80067991018101
C           63.77664475631852       56.07825905544334       46.28179551858158
C           63.62642484565421       55.01644916511319       47.34453362103270
C           64.02478419354979       53.70899270777189       47.09947347344617
C           63.84770921081881       52.72702098683850       48.05944878802508
C           63.27170867242528       53.03745087456375       49.27779119371552
C           62.86575358239710       54.33603201436564       49.53098444133663
C           63.03424286766773       55.31234261977759       48.56760401303371
C           62.36847043699881       56.46699765291862       45.79311217598880
C           62.28679495943094       56.88783463156211       44.32069785750922
C           63.03346359834907       58.16873862217113       44.05763592322869
C           62.57549546818157       59.38802691407442       44.54656004831318
C           63.25256928075539       60.56082481148381       44.27131666773673
C           64.40689035317540       60.53695808052987       43.50764355824553
C           64.88051394044911       59.32948980994913       43.02571192388774
C           64.19536340721693       58.15813251802025       43.29561845092970
C           60.81027575408853       57.01352672168397       43.91380883704526
C           60.65045214455110       57.54126151858584       42.48449244091872
C           61.32057065263868       56.64145117666987       41.47946727096600
C           61.03223800148861       55.28200267999312       41.42236247287808
C           61.66563169493750       54.45988808885144       40.50906136353368
C           62.58762166323339       54.98871268168344       39.62256467174426
C           62.86735374300032       56.34319854058265       39.65308191822357
C           62.24201378391598       57.15993744732057       40.57918465153534
C           59.16949410673857       57.76505637468114       42.12265571422880
C           59.01622165582339       59.03928061297237       41.28483014719395
C           59.43045833718075       60.25819619795811       42.07462461251414
C           58.87247877483135       60.53606081474833       43.31713131551641
C           59.23319605309482       61.66967095888810       44.02115724950753
C           60.15780996683274       62.55290382588534       43.49062211607883
C           60.72020956505104       62.29009587324299       42.25417596049851
C           60.35767415151271       61.15180991314821       41.55492287911091
C           57.58182504342147       59.26213368818379       40.78557991109859
C           57.11104622341572       58.30316582105473       39.67707642310232
C           58.09838624577833       58.32069629052607       38.53719196704834
C           59.04285102897182       57.30696571835954       38.41335532283164
C           59.99490236696747       57.33138985296480       37.41012509613237
C           60.01254872763612       58.37392823564129       36.50078559263881
C           59.08104902925107       59.39261170148448       36.61283490187247
C           58.13835022781186       59.36965120774914       37.62521408949990
C           55.69622040373410       58.72743837411371       39.25825888342691
C           55.09103876332995       57.94169257792341       38.08115108303415
C           54.15895842801713       58.84580029444164       37.31189457796739
C           53.11701316250387       59.50761007574644       37.95254339794333
C           52.27420869769470       60.34932803109370       37.24977665973991
C           52.45002554746907       60.53305162140340       35.88824699853535
C           53.47815082298396       59.87340043709820       35.23773818403268
C           54.32596846366491       59.03954574929075       35.94700850901873
C           54.33246013755076       56.67339244288540       38.52265177609947
C           55.18713204470996       55.39447629691629       38.48476349656309
C           54.59462947727766       54.33949210294713       39.38683389298441
C           55.31376908950219       53.84882741746710       40.46905349651674
C           54.77949070307527       52.88291900421654       41.30392945028591
C           53.50392894034798       52.39990985986868       41.07484151404730
C           52.76997479125212       52.89129798869200       40.00740309276592
C           53.31129378883197       53.85091624569224       39.17102460649164
C           55.32054222420448       54.87936779846262       37.04447386559632
C           56.25608638303916       53.66711580093576       36.91920861092289
C           56.03240139040277       52.95265098965675       35.60994218366623
C           55.67664182954801       51.61005113522332       35.58677101008823
C           55.49482801946604       50.94177770286677       34.38711236595055
C           55.66086976483418       51.61057353652758       33.18737009298073
C           56.00767315871985       52.95160799740884       33.19654402887764
C           56.19307022203012       53.61343361634444       34.39616177365061
C           57.72991261344787       54.07595117309209       37.04208351033504
C           58.64807682841374       52.86560190006145       37.24675808184615
C           58.36014966698046       52.19074314277349       38.56383950971991
C           58.54316503717368       52.86799770244899       39.76368348073358
C           58.26536545400877       52.25490895398806       40.97146633403234
C           57.82210958693493       50.94404184387610       41.00212300107502
C           57.66229838144572       50.24953799710923       39.81677068945649
C           57.91866733335474       50.87450922716798       38.60820438715952
C           60.12639408259027       53.28822737060395       37.17472609792404
C           60.70383803327433       53.25938111298696       35.74908771878829
C           61.99517314766938       54.03537144684377       35.71986633600580
C           62.09680148130492       55.20770817768513       34.98208614777353
C           63.27959005275115       55.92547886082480       34.94428461797082
C           64.38606705098292       55.47857056353563       35.64532514269699
C           64.29584541881115       54.31617720478645       36.39211267298322
C           63.10905242512450       53.60617673474107       36.43364930911030
C           60.91636989456494       51.80775388818066       35.29802412288308
C           61.68770883273240       51.66385519824014       33.98020500802043
C           60.93180995592164       52.30052758160670       32.84198346036293
C           61.49192647222481       53.35418145896985       32.13117095132663
C           60.81624717844558       53.93683883741330       31.07327990876270
C           59.56760548070424       53.46683189431071       30.70428713113652
C           59.00285222475311       52.41142347947266       31.40011020725173
C           59.67772119731470       51.83655255363014       32.46104166916246
C           61.97176734648749       50.18149645265922       33.66585646108341
C           63.36267696979824       49.66575359619721       34.09808660367973
C           64.41376722789514       50.33967193186500       33.24523919546979
C           65.07902820925514       51.49718185980504       33.63217831281219
C           65.99506096409436       52.10442868967029       32.78977512158524
C           66.26815466196217       51.56579943404171       31.54555576653908
C           65.61781754672509       50.40922535698294       31.14948025944647
C           64.70167310939092       49.80795709267431       31.99202537938967
C           63.66691502860902       49.79640429180258       35.59438936958971
C           62.74508352598876       48.95540787016056       36.49590174502793
C           62.78355645448246       49.50564988056505       37.90174422447535
C           61.63427428804292       50.01236771427055       38.49594270500184
C           61.66477115746972       50.54375489543471       39.77326064237652
C           62.85513613200049       50.58809635678745       40.47541316166512
C           64.00928623627040       50.09065596806484       39.89380730001482
C           63.97243247790493       49.54878438912672       38.62225901278975
C           63.09313857342870       47.45438965216050       36.45487350398748
C           61.84503619207128       46.58643558373468       36.22879006280071
C           62.22883173149744       45.17789409494561       35.85617818905676
C           62.99745066289368       44.39365626362995       36.70820284218795
C           63.34663419045977       43.10166807383996       36.36026282955018
C           62.93441866514326       42.56998720497977       35.14980364457687
C           62.17273837455370       43.34274978908478       34.29046118168775
C           61.82589817586997       44.63577882027378       34.64215594030955
C           60.93647798384896       46.60263611906009       37.46631956848325
C           59.57002773987020       45.96152719466348       37.19183693667367
C           58.90673145227925       46.57538817408300       35.98083970873115
C           58.70934542954303       47.95035800196633       35.89648656797980
C           58.07730912548404       48.51456530928105       34.80494254577879
C           57.62839468845655       47.71052603738022       33.77065030055904
C           57.81602146396087       46.34133545074180       33.84146571407668
C           58.44775674044393       45.78055872802534       34.93938251304413
C           58.58895851898873       46.11376728600472       38.37004576386510
C           59.13562177242251       45.81516243778589       39.77376168706559
H           69.95135833070248       59.08116376665498       47.60386840851177
H           69.31246337609052       58.76911390068055       50.04808933026160
H           67.88492318472315       59.75292654249451       49.73474253400886
H           68.54046575408940       57.32736014694381       48.02971303872042
H           65.86652753570566       58.55853353947160       48.80905639611154
H           66.72852719265353       58.91657586953113       47.31259090569142
H           65.72999179602184       56.17293354529851       48.19691791138089
H           63.96130019731956       57.80806954382912       47.56304070325653
H           64.70701192331073       58.00075170124153       45.98138498855000
H           64.33719539076736       55.64592405864342       45.44444587244143
H           61.97894089227917       57.27204082821235       46.41738403325886
H           62.74343344915021       56.09863076208698       43.71146533763155
H           60.33003363215507       56.03915614730258       44.01776637809260
H           60.30216409307835       57.69780003039264       44.59544288604633
H           61.15024179150724       58.51527416075847       42.44703634193475
H           58.79303464114273       56.90917861099796       41.56197550153389
H           58.57734891626686       57.84877380652949       43.03493603201981
H           59.67630353968784       58.95521290118143       40.41387180632482
H           56.90064805267136       59.18580821348743       41.63454479058534
H           57.51041928422011       60.28374505247899       40.40222031591501
H           57.07094130930250       57.28826494028452       40.08397281772311
H           55.90431435072635       57.65298059741434       37.40814729669669
H           53.94689204011203       56.81714199756159       39.53358956433677
H           53.46872814697132       56.53417012644653       37.86844769886023
H           56.18381382554853       55.63953425147532       38.85985494614820
H           54.33181005212258       54.59415473794712       36.67677651398154
H           55.68577595639442       55.68727922456530       36.40746375854446
H           56.02030961336899       52.97263552188355       37.73392556800401
H           58.03787503319298       54.61083948847168       36.14092970552364
H           57.85021176057140       54.76029600912630       37.88102987264401
H           58.44131066587777       52.14977094307397       36.44492869697618
H           60.22939025760709       54.29698036060171       37.58019557216549
H           60.72578874707920       52.62655368734728       37.80368304635024
H           59.99854884461608       53.74306735831458       35.06397287192397
H           61.45981067064996       51.28579605684715       36.08098120419651
H           59.94392489653874       51.32506452576617       35.18834006423603
H           62.64218684082817       52.18907959662215       34.07055140094941
H           61.19660349001387       49.55762004411101       34.11478927185722
H           61.90629512679958       50.03664886411266       32.58401725501780
H           63.37765635324114       48.59802008626483       33.84545324389094
H           64.70462879684270       49.49485622398380       35.75701792657121
H           63.58460709718013       50.84095929765101       35.89082501262032
H           61.72471064300920       49.07099515408048       36.12241211004363
H           63.79768947895979       47.26032830257972       35.64298926884978
H           63.57837945243018       47.15941074339984       37.38711137697133
H           61.29170897347330       47.01156269083497       35.38331592758870
H           61.43740596847402       46.06693087488076       38.27310061386477
H           60.79799754285208       47.63066268511952       37.79640866124971
H           67.64892801172547       61.82760356566731       48.81306278262891
H           66.31094306739652       63.18411109885849       47.28253439554683
H           66.42809620949792       62.79647298194582       44.84865308808682
H           67.89339371022996       61.01461664547979       43.96362909099891
H           69.24269859119281       59.65372094905494       45.50207365360731
H           68.57047411182789       55.20279603617698       48.90774200703820
H           68.05772370549636       53.58528602940957       50.69699900427138
H           66.90528455050739       54.32999849215675       52.73930642242799
H           66.24424903048704       56.70954505387252       52.96983790257082
H           66.67455022145670       58.28714365506182       51.16563565210721
H           66.98841568777168       58.08452427566627       45.18444522566109
H           68.67226570713744       57.14973948749979       43.66946227780060
H           69.52082696213969       54.85685231576918       44.01198010794155
H           68.58091789268192       53.46482988142581       45.82106050759256
H           66.87113615535823       54.40065942717644       47.33087501033273
H           64.47177328661837       53.45950656906185       46.14529950245704
H           64.16508762589561       51.71418309229621       47.86051235002591
H           63.13438749792666       52.27149200747143       50.02533603789845
H           62.40563615620614       54.58881163549304       50.47566776673828
H           62.69635644872289       56.31551979448353       48.77391685316253
H           61.70931597498934       55.60436853805035       45.92320659650508
H           61.67197351436220       59.42996974910987       45.13594031047799
H           62.87161927957673       61.50095613633921       44.64375843247240
H           64.93254917422158       61.45389929038403       43.28405534755007
H           65.78216741257530       59.30017700452085       42.42923421052974
H           64.56960872771916       57.22178649733321       42.90398223205004
H           60.30879465176459       54.86021403727775       42.10546340915550
H           61.44670640799940       53.40248348312557       40.47864093873282
H           63.08324852307990       54.34982612358345       38.90861437505480
H           63.57902797431343       56.76240952594495       38.95445993229658
H           62.47828219682664       58.21566236416596       40.61026238697790
H           58.14792096292241       59.85971482995203       43.74344204184889
H           58.79823202819048       61.86981420752966       44.99079474074126
H           60.43635400242428       63.44296952584222       44.03746685917919
H           61.44526730935907       62.97241443177059       41.83116883134616
H           60.80226859552243       60.95511563630323       40.58761116980128
H           59.05245040688349       56.49293799312811       39.12474495295602
H           60.73190436251227       56.54361773620364       37.33869815154695
H           60.75276649003131       58.39443700413201       35.71360796991758
H           59.09289093850926       60.21435270080070       35.90986212761633
H           57.42863758905719       60.18018365984205       37.70149585429825
H           55.03899260370844       58.63840336139852       40.12396885274374
H           55.71677084337301       59.78808320201166       38.99524409434922
H           52.96466668964108       59.37006657308001       39.01169524979810
H           51.47620811328157       60.86535507337053       37.76293412274097
H           51.78706350072402       61.18572884939836       35.33828579129940
H           53.62370180581728       60.01132139363276       34.17507226771276
H           55.13296967570479       58.53689300224652       35.43083298608428
H           56.30645983958436       54.22530737349960       40.66457392253207
H           55.35584218779308       52.51632395145559       42.14004148996617
H           53.08718260201321       51.64956136318842       41.73200003972017
H           51.76556976396422       52.52971479757264       39.82807568464438
H           52.72947336671660       54.23104367916653       38.34612189775411
H           55.53675153159045       51.07719273508403       36.51701858860039
H           55.21909656580115       49.89720787805675       34.39638496311218
H           55.51370708408856       51.09334669814125       32.24971305423636
H           56.13446631937352       53.48514396441970       32.26506194500464
H           56.46421612590552       54.65944514085319       34.38212630330150
H           58.91016918882495       53.88424993571827       39.75035415976870
H           58.38609174750718       52.79816181211120       41.89630465579350
H           57.60249633649694       50.46761908467012       41.94570931876556
H           57.33618263237517       49.21875074032583       39.83615392288358
H           57.76272621137554       50.33411877697262       37.68382210046286
H           61.23950878601782       55.55952431809471       34.42443051432900
H           63.34028670480002       56.83432417838654       34.36174457458799
H           65.31271649385174       56.03368277692329       35.61158530554409
H           65.15414792455812       53.96388227465535       36.94787832284372
H           63.05150487947023       52.70765748674425       37.03214338150492
H           62.47104425500994       53.72047323152271       32.40896033626181
H           61.26763379579173       54.75667926334147       30.53227225222042
H           59.04060885337521       53.91728822313231       29.87523310319265
H           58.03312553913787       52.03192310461813       31.11312500834462
H           59.22445134444933       51.01036082985471       32.98886330727063
H           64.89723779569120       51.94210890441194       34.59851277197887
H           66.49747881973722       53.00616594362444       33.11036700481353
H           66.98376360681581       52.04035263492190       30.89001494402248
H           65.82651991706635       49.97543432554248       30.18197021673522
H           64.19927260618408       48.90498539844573       31.67228190234876
H           60.69488791907565       50.00044287034022       37.95969322703258
H           60.75151813763375       50.92390960335407       40.20839447296320
H           62.89209049773299       51.00934691403546       41.46787388436212
H           64.94259283086075       50.13121264096065       40.43763206970244
H           64.87816427360605       49.15675569111219       38.18209955442006
H           63.32674299704609       44.79880191118248       37.65227214421326
H           63.94506391408412       42.50498138265235       37.03450061207000
H           63.20671264977976       41.56051412555725       34.87698895845741
H           61.84878213207795       42.93706651943195       33.34234423932918
H           61.22949367908898       45.23216037271197       33.96496837238089
H           58.58954178651079       44.70913803007053       34.98525822778102
H           57.46814233321670       45.70531203143054       33.03930124842014
H           57.13433134527873       48.15007719330305       32.91613562742243
H           57.92102338113878       49.58381045236901       34.75951402488324
H           59.05474934581225       48.58891043824833       36.69584723113650
H           70.99536187767609       61.29488479081841       48.11221498786769
H           69.95519684690186       61.44993092515138       49.52735562518545
H           71.14661172376553       60.14688798301776       49.44580324394444
H           59.72717798849532       44.89585524210312       36.99034093052714
H           58.23458476543725       47.14806390892880       38.38348953027771
H           57.72415663212110       45.47542931635428       38.17004454743375
C           59.66362147991381       44.38494833613264       39.93578555900117
C           58.04544648795263       46.11453735617633       40.77700677478266
C           56.87290859089774       45.36815015116032       40.81301986870953
C           55.87004856288785       45.66107459833101       41.71998169271055
C           56.02109156020582       46.70934570942355       42.61147219614128
C           57.17922645938388       47.46664075404180       42.57947469314886
C           58.17779656917313       47.17305467668407       41.66712660394074
H           56.73342766496417       44.55002800872558       40.11968890387678
H           54.96468352198860       45.07021300425222       41.72933970318962
H           55.23787547328288       46.93953002909413       43.31854819696654
H           57.30456279989032       48.28913699970563       43.27010686187221
H           59.07253394929093       47.77885105308574       41.63734573777320
C           60.49624783930057       44.23624085550211       41.21895863980734
H           58.83276447299332       43.67795122090865       39.96698699811337
H           60.28962989861734       44.12486939442389       39.08040120353954
C           61.74422360984060       45.06647805219256       41.13609346719405
C           62.81996360018228       44.63714930579621       40.36763203506139
C           63.93810328617005       45.43674556684955       40.20781306598840
C           63.99419720633451       46.68292341551935       40.80893281179274
C           62.93931525752774       47.11138092186847       41.59488967062317
C           61.82662895760353       46.30471111114808       41.76084666708328
H           62.77622925954066       43.66688863910186       39.89060879746785
H           64.77618023585924       45.09220395883170       39.61838213914008
H           64.86399879727591       47.30499715042153       40.66567151602237
H           62.97881141975721       48.08236386259718       42.06825097956899
H           61.00703479923350       46.63576220988299       42.38224154189875
H           59.96527770748052       46.50419270892622       39.95899823610031
H           59.89388204025622       44.54452566468378       42.07484531892901
H           60.75630571148209       43.18247757333831       41.34792970878323
C           57.86494558604124       46.62915284004959       65.85658587737778
C           56.53388942971836       46.41021664416923       66.18939323353365
C           55.62275590654141       47.43895487169335       65.97949479386973
C           56.03080841458398       48.64914305535337       65.44714758127131
C           57.35943847520335       48.85278703218297       65.11460683460449
C           58.27645170950392       47.83760726062098       65.32299065895508
C           56.11186984033847       45.09364756127310       66.79202509973403
C           55.58264242443330       45.30820159657313       68.21340599547730
C           55.05874094036806       44.38055468215681       65.93285550659039
C           55.54162981807902       44.09525459321295       64.50311262852104
C           56.85471843233793       43.35262417719022       64.50959463705713
C           57.97167608544765       43.88761585715423       63.88133495160284
C           59.18298471038059       43.21954966458138       63.89909531446201
C           59.29691734811247       41.99771601895483       64.53743102659026
C           58.18673384514473       41.44657281409599       65.15330679582223
C           56.97861411353620       42.11879318433989       65.13817198128696
C           54.51440924833185       43.27392986638575       63.70639599079753
C           53.20747114300828       44.02166554432293       63.39038799771480
C           52.18858648841396       43.00915138891420       62.92508581609626
C           52.27714046599039       42.43025829387057       61.66430663342646
C           51.34190621089159       41.50571155466013       61.23923564326295
C           50.31246639776283       41.12058253635299       62.08081561900010
C           50.22208212398566       41.67280892437859       63.34628341187452
C           51.15077980832339       42.61306730033441       63.76013778666768
C           53.41989519019342       45.14751299056948       62.36049567335680
C           52.96373521352402       46.53871984472266       62.83726074655408
C           53.48591485605044       47.54185445096332       61.83600494714342
C           54.64933493692042       48.25149413438694       62.11017631058949
C           55.19435357567430       49.12011415153957       61.18039977486098
C           54.57940872778428       49.29882514237654       59.95415752409192
C           53.42464969596032       48.59434564818151       59.66886280884718
C           52.89099724907923       47.71623316700015       60.59214702888172
C           51.44090733014334       46.55224348594524       63.00969172563467
C           50.88949613094139       47.60513517730714       63.98574713194133
C           49.43034693323302       47.25643019131902       64.16953927083708
C           49.08427995773858       46.29359279595100       65.11216621455829
C           47.78151932497629       45.84920796935655       65.23861401164233
C           46.78768479442733       46.38226246675779       64.43549886375251
C           47.11448147121553       47.36169018476836       63.51657463386793
C           48.42414901381071       47.78078255974016       63.36904281221610
C           51.13571140985353       49.03586272963882       63.50090286742807
C           50.48189637272384       50.07187573253321       64.42699333027937
C           51.14044450804222       50.09077556283994       65.78131222390672
C           52.47317747606189       50.45596062394755       65.93191895034212
C           53.06715353511918       50.47649430828420       67.18003743418900
C           52.33634096263631       50.13132863572221       68.30404681919002
C           51.00835736678042       49.76547429776208       68.16864737746221
C           50.41859074529552       49.74552813244999       66.91688385238068
C           50.47515610852328       51.47568532163186       63.80324649013925
C           49.40856874719543       52.34905765109146       64.46859227170609
C           48.02934010738096       51.75639921138247       64.30452985541241
C           47.53664732903486       51.43204374836316       63.04549258908725
C           46.25300283826471       50.94803547568367       62.88862753236167
C           45.43348701862251       50.79339640212169       63.99235170824220
C           45.90772022074619       51.11125656420844       65.25204505478544
C           47.19868334360550       51.58473283157793       65.40362612014017
C           49.33383061090063       53.77940935025644       63.91227626608092
C           50.64254108782508       54.58352339188266       63.89393442527694
C           51.47870777132897       54.39546879269795       65.13155013367638
C           50.93263431271388       54.52876991400642       66.40274082855456
C           51.71107291953036       54.34668418758548       67.53095303965752