      -----------------------------------------------------------      
     |                   =====================                   |     
     |                           x T B                           |     
     |                   =====================                   |     
     |                         S. Grimme                         |     
     |          Mulliken Center for Theoretical Chemistry        |     
     |                    University of Bonn                     |     
      -----------------------------------------------------------      

   * xtb version 6.6.1 (8d0f1dd) compiled by 'stahn@M-Bot' on 2023-08-01

   xtb is free software: you can redistribute it and/or modify it under
   the terms of the GNU Lesser General Public License as published by
   the Free Software Foundation, either version 3 of the License, or
   (at your option) any later version.
   
   xtb is distributed in the hope that it will be useful,
   but WITHOUT ANY WARRANTY; without even the implied warranty of
   MERCHANTABILITY or FITNESS FOR A PARTICULAR PURPOSE.  See the
   GNU Lesser General Public License for more details.
   
   Cite this work as:
   * C. Bannwarth, E. Caldeweyher, S. Ehlert, A. Hansen, P. Pracht,
     J. Seibert, S. Spicher, S. Grimme, WIREs Comput. Mol. Sci., 2020, 11,
     e01493. DOI: 10.1002/wcms.1493
   
   for GFN2-xTB:
   * C. Bannwarth, S. Ehlert and S. Grimme., J. Chem. Theory Comput., 2019,
     15, 1652-1671. DOI: 10.1021/acs.jctc.8b01176
   for GFN1-xTB:
   * S. Grimme, C. Bannwarth, P. Shushkov, J. Chem. Theory Comput., 2017,
     13, 1989-2009. DOI: 10.1021/acs.jctc.7b00118
   for GFN0-xTB:
   * P. Pracht, E. Caldeweyher, S. Ehlert, S. Grimme, ChemRxiv, 2019, preprint.
     DOI: 10.26434/chemrxiv.8326202.v1
   for GFN-FF:
   * S. Spicher and S. Grimme, Angew. Chem. Int. Ed., 2020, 59, 15665-15673.
     DOI: 10.1002/anie.202004239
   
   for ALPB and GBSA implicit solvation:
   * S. Ehlert, M. Stahn, S. Spicher, S. Grimme, J. Chem. Theory Comput.,
     2021, 17, 4250-4261. DOI: 10.1021/acs.jctc.1c00471
   
   for DFT-D4:
   * E. Caldeweyher, C. Bannwarth and S. Grimme, J. Chem. Phys., 2017,
     147, 034112. DOI: 10.1063/1.4993215
   * E. Caldeweyher, S. Ehlert, A. Hansen, H. Neugebauer, S. Spicher,
     C. Bannwarth and S. Grimme, J. Chem. Phys., 2019, 150, 154122.
     DOI: 10.1063/1.5090222
   * E. Caldeweyher, J.-M. Mewes, S. Ehlert and S. Grimme, Phys. Chem. Chem. Phys.
     2020, 22, 8499-8512. DOI: 10.1039/D0CP00502A
   
   for sTDA-xTB:
   * S. Grimme and C. Bannwarth, J. Chem. Phys., 2016, 145, 054103.
     DOI: 10.1063/1.4959605
   
   in the mass-spec context:
   * V. Asgeirsson, C. Bauer and S. Grimme, Chem. Sci., 2017, 8, 4879.
     DOI: 10.1039/c7sc00601b
   * J. Koopman and S. Grimme, ACS Omega 2019, 4, 12, 15120-15133.
     DOI: 10.1021/acsomega.9b02011
   
   for metadynamics refer to:
   * S. Grimme, J. Chem. Theory Comput., 2019, 155, 2847-2862
     DOI: 10.1021/acs.jctc.9b00143
   
   for SPH calculations refer to:
   * S. Spicher and S. Grimme, J. Chem. Theory Comput., 2021, 17, 1701-1714
     DOI: 10.1021/acs.jctc.0c01306
   
   with help from (in alphabetical order)
   P. Atkinson, C. Bannwarth, F. Bohle, G. Brandenburg, E. Caldeweyher
   M. Checinski, S. Dohm, S. Ehlert, S. Ehrlich, I. Gerasimov, C. Hölzer
   A. Katbashev, J. Koopman, C. Lavigne, S. Lehtola, F. März, M. Müller,
   F. Musil, H. Neugebauer, J. Pisarek, C. Plett, P. Pracht, F. Pultar,
   J. Seibert, P. Shushkov, S. Spicher, M. Stahn, M. Steiner, T. Strunk,
   J. Stückrath, T. Rose, and J. Unsleber
   
 * started run on 2024/10/04 at 19:55:28.242     

           -------------------------------------------------
          |                Calculation Setup                |
           -------------------------------------------------

          program call               : /home/abt-grimme/AK-bin/xtb input.xyz --input input.inp --opt
          hostname                   : boar067.thch.uni-bonn.de
          coordinate file            : input.xyz
          omp threads                :                     8

   ID    Z sym.   atoms
    1    6 C      1-146, 294-300, 306, 309-314, 323-468, 616-622, 628,
                  631-636, 645-790, 938-944, 950, 953-958, 967-1112,
                  1260-1266, 1272, 1275-1280, 1289-1434, 1582-1588, 1594,
                  1597-1602, 1611-1756, 1904-1910, 1916, 1919-1924,
                  1933-2078, 2226-2232, 2238, 2241-2246, 2255-2400,
                  2548-2554, 2560, 2563-2568, 2577-2722, 2870-2876, 2882,
                  2885-2890, 2899-3044, 3192-3198, 3204, 3207-3212,
                  3221-3366, 3514-3520, 3526, 3529-3534, 3543-3688,
                  3836-3842, 3848, 3851-3856
    2    1 H      147-293, 301-305, 307, 308, 315-322, 469-615, 623-627, 629,
                  630, 637-644, 791-937, 945-949, 951, 952, 959-966,
                  1113-1259, 1267-1271, 1273, 1274, 1281-1288, 1435-1581,
                  1589-1593, 1595, 1596, 1603-1610, 1757-1903, 1911-1915,
                  1917, 1918, 1925-1932, 2079-2225, 2233-2237, 2239, 2240,
                  2247-2254, 2401-2547, 2555-2559, 2561, 2562, 2569-2576,
                  2723-2869, 2877-2881, 2883, 2884, 2891-2898, 3045-3191,
                  3199-3203, 3205, 3206, 3213-3220, 3367-3513, 3521-3525,
                  3527, 3528, 3535-3542, 3689-3835, 3843-3847, 3849, 3850,
                  3857-3864

molecular fragmentation (1/2 indicates fragments):
111111111111111111111111111111111111111111111111111111111111111111111111
111111111111111111111111111111111111111111111111111111111111111111111111
111111111111111111111111111111111111111111111111111111111111111111111111
111111111111111111111111111111111111111111111111111111111111111111111111
111111111111111111111111111111111122222222222222222222222222222222222222
222222222222222222222222222222222222222222222222222222222222222222222222
222222222222222222222222222222222222222222222222222222222222222222222222
222222222222222222222222222222222222222222222222222222222222222222222222
222222222222222222222222222222222222222222222222222222222222222222222222
222222222222222222222222222222222222222222222222222222222222222222222222
222222222222222222222222222222222222222222222222222222222222222222222222
222222222222222222222222222222222222222222222222222222222222222222222222
222222222222222222222222222222222222222222222222222222222222222222222222
222222222222222222222222222222222222222222222222222222222222222222222222
222222222222222222222222222222222222222222222222222222222222222222222222
222222222222222222222222222222222222222222222222222222222222222222222222
222222222222222222222222222222222222222222222222222222222222222222222222
222222222222222222222222222222222222222222222222222222222222222222222222
222222222222222222222222222222222222222222222222222222222222222222222222
222222222222222222222222222222222222222222222222222222222222222222222222
222222222222222222222222222222222222222222222222222222222222222222222222
222222222222222222222222222222222222222222222222222222222222222222222222
222222222222222222222222222222222222222222222222222222222222222222222222
222222222222222222222222222222222222222222222222222222222222222222222222
222222222222222222222222222222222222222222222222222222222222222222222222
222222222222222222222222222222222222222222222222222222222222222222222222
222222222222222222222222222222222222222222222222222222222222222222222222
222222222222222222222222222222222222222222222222222222222222222222222222
222222222222222222222222222222222222222222222222222222222222222222222222
222222222222222222222222222222222222222222222222222222222222222222222222
222222222222222222222222222222222222222222222222222222222222222222222222
222222222222222222222222222222222222222222222222222222222222222222222222
222222222222222222222222222222222222222222222222222222222222222222222222
222222222222222222222222222222222222222222222222222222222222222222222222
222222222222222222222222222222222222222222222222222222222222222222222222
222222222222222222222222222222222222222222222222222222222222222222222222
222222222222222222222222222222222222222222222222222222222222222222222222
222222222222222222222222222222222222222222222222222222222222222222222222
222222222222222222222222222222222222222222222222222222222222222222222222
222222222222222222222222222222222222222222222222222222222222222222222222
222222222222222222222222222222222222222222222222222222222222222222222222
222222222222222222222222222222222222222222222222222222222222222222222222
222222222222222222222222222222222222222222222222222222222222222222222222
222222222222222222222222222222222222222222222222222222222222222222222222
222222222222222222222222222222222222222222222222222222222222222222222222
222222222222222222222222222222222222222222222222222222222222222222222222
222222222222222222222222222222222222222222222222222222222222222222222222
222222222222222222222222222222222222222222222222222222222222222222222222
222222222222222222222222222222222222222222222222222222222222222222222222
222222222222222222222222222222222222222222222222222222222222222222222222
222222222222222222222222222222222222222222222222222222222222222222222222
222222222222222222222222222222222222222222222222222222222222222222222222
222222222222222222222222222222222222222222222222222222222222222222222222
222222222222222222222222222222222222222222222222
# atoms in fragment 1/2:   322  3542
 fragment masses (1/2) :     2085.00    22935.05
CMA distance (Bohr)    :  34.338
constraining FC (au)   :  0.0500

           -------------------------------------------------
          |                 G F N 2 - x T B                 |
           -------------------------------------------------

        Reference                      10.1021/acs.jctc.8b01176
      * Hamiltonian:
        H0-scaling (s, p, d)           1.850000    2.230000    2.230000
        zeta-weighting                 0.500000
      * Dispersion:
        s8                             2.700000
        a1                             0.520000
        a2                             5.000000
        s9                             5.000000
      * Repulsion:
        kExp                           1.500000    1.000000
        rExp                           1.000000
      * Coulomb:
        alpha                          2.000000
        third order                    shell-resolved
        anisotropic                    true
        a3                             3.000000
        a5                             4.000000
        cn-shift                       1.200000
        cn-exp                         4.000000
        max-rad                        5.000000


          ...................................................
          :                      SETUP                      :
          :.................................................:
          :  # basis functions                9624          :
          :  # atomic orbitals                9624          :
          :  # shells                         5784          :
          :  # electrons                      9624          :
          :  max. iterations                   250          :
          :  Hamiltonian                  GFN2-xTB          :
          :  restarted?                      false          :
          :  GBSA solvation                  false          :
          :  PC potential                    false          :
          :  electronic temp.          300.0000000     K    :
          :  accuracy                    1.0000000          :
          :  -> integral cutoff          0.2500000E+02      :
          :  -> integral neglect         0.1000000E-07      :
          :  -> SCF convergence          0.1000000E-05 Eh   :
          :  -> wf. convergence          0.1000000E-03 e    :
          :  Broyden damping             0.4000000          :
          ...................................................

 iter      E             dE          RMSdq      gap      omega  full diag
   1  -5195.7207292 -0.519572E+04  0.368E+00    4.29       0.0  T
   2  -5198.2924883 -0.257176E+01  0.217E+00    4.31       1.0  T
   3  -5198.2210815  0.714068E-01  0.494E-01    4.10       1.0  T
   4  -5198.4240924 -0.203011E+00  0.242E-01    4.01       1.0  T
   5  -5198.5782869 -0.154194E+00  0.462E-02    4.08       1.0  T
   6  -5198.5803623 -0.207548E-02  0.286E-02    4.07       1.0  T
   7  -5198.5815918 -0.122950E-02  0.111E-02    4.08       1.0  T
   8  -5198.5818949 -0.303071E-03  0.288E-03    4.08       1.0  T
   9  -5198.5819116 -0.166750E-04  0.123E-03    4.08       1.3  T
  10  -5198.5819132 -0.158059E-05  0.531E-04    4.08       3.0  T
  11  -5198.5819134 -0.225442E-06  0.281E-04    4.08       5.7  T
  12  -5198.5819136 -0.174812E-06  0.100E-04    4.08      16.0  T

   *** convergence criteria satisfied after 12 iterations ***

         #    Occupation            Energy/Eh            Energy/eV
      -------------------------------------------------------------
         1        2.0000           -0.6499778             -17.6868
       ...           ...                  ...                  ...
      4806        2.0000           -0.3822510             -10.4016
      4807        2.0000           -0.3819062             -10.3922
      4808        2.0000           -0.3813274             -10.3764
      4809        2.0000           -0.3807847             -10.3617
      4810        2.0000           -0.3802788             -10.3479
      4811        2.0000           -0.3800324             -10.3412
      4812        2.0000           -0.3769778             -10.2581 (HOMO)
      4813                         -0.2270911              -6.1795 (LUMO)
      4814                         -0.2263995              -6.1606
      4815                         -0.2262772              -6.1573
      4816                         -0.2262174              -6.1557
      4817                         -0.2260105              -6.1501
       ...                                ...                  ...
      9624                          0.6844275              18.6242
      -------------------------------------------------------------
                  HL-Gap            0.1498867 Eh            4.0786 eV
             Fermi-level           -0.3020345 Eh           -8.2188 eV

 SCC (total)                   0 d,  0 h, 48 min, 10.475 sec
 SCC setup                      ...        0 min,  0.715 sec (  0.025%)
 Dispersion                     ...        0 min,  6.778 sec (  0.234%)
 classical contributions        ...        0 min,  0.163 sec (  0.006%)
 integral evaluation            ...        0 min, 12.116 sec (  0.419%)
 iterations                     ...       42 min, 16.814 sec ( 87.765%)
 molecular gradient             ...        5 min,  6.934 sec ( 10.619%)
 printout                       ...        0 min, 26.955 sec (  0.933%)

         :::::::::::::::::::::::::::::::::::::::::::::::::::::
         ::                     SUMMARY                     ::
         :::::::::::::::::::::::::::::::::::::::::::::::::::::
         :: total energy           -5104.072214887642 Eh    ::
         :: gradient norm              0.021319600658 Eh/a0 ::
         :: HOMO-LUMO gap              4.078625921512 eV    ::
         ::.................................................::
         :: SCC energy             -5198.581913570944 Eh    ::
         :: -> isotropic ES            0.265043647585 Eh    ::
         :: -> anisotropic ES          0.781276981782 Eh    ::
         :: -> anisotropic XC          3.253404936596 Eh    ::
         :: -> dispersion             -7.011984990007 Eh    ::
         :: repulsion energy          93.362999543869 Eh    ::
         :: add. restraining           0.000000000000 Eh    ::
         :: total charge              -0.000000000031 e     ::
         :::::::::::::::::::::::::::::::::::::::::::::::::::::

      ----------------------------------------------------------- 
     |              Fast Inertial Relaxation Engine              |
      ----------------------------------------------------------- 

          ...................................................
          :                      SETUP                      :
          :.................................................:
          :   energy convergence        0.5000000E-05 Eh    :
          :   grad. convergence         0.1000000E-02 Eh/a0 :
          :   optimization log               true           :
          :   writing optlog all                1     steps :
          :   Hessian reset                    20     steps :
          :   time step scaling                 5     steps :
          :   maximium step len.        1.0000000     a0    :
          :   initial time step         0.2500000     fs    :
          :   maximum time step         1.2500000     fs    :
          :   power reset thr           0.0000000     au    :
          :   alpha parameter           0.1000000           :
          :   BFGS update                   false           :
          :   preconditioning               false           :
          ...................................................

........................................................................
.............................. CYCLE    1 ..............................
........................................................................

 iter      E             dE          RMSdq      gap      omega  full diag
   1  -5198.5831018 -0.519858E+04  0.298E-04    4.08       0.0  T
   2  -5198.5831019 -0.139144E-07  0.184E-04    4.08       8.7  T
   3  -5198.5831018  0.302598E-07  0.841E-05    4.08      19.1  T
     SCC iter.                  ...       10 min, 35.256 sec
     gradient                   ...        5 min,  6.220 sec
 * total energy  : -5104.0722664 Eh     change    :  -0.5156101E-04 Eh
   gradient norm :     0.0199838 Eh/a0  converged?    E=F G=F D=F
   time step     :     0.2500000 fs     power     :   0.2648010E-08
   step length   :     0.0024986 a0     speed     :   0.2417541E-03

........................................................................
.............................. CYCLE    2 ..............................
........................................................................

 iter      E             dE          RMSdq      gap      omega  full diag
   1  -5198.5848602 -0.519858E+04  0.437E-04    4.08       0.0  T
   2  -5198.5848602 -0.266400E-07  0.268E-04    4.08       6.0  T
   3  -5198.5848602  0.433811E-07  0.102E-04    4.08      15.8  T
     SCC iter.                  ...       10 min, 36.084 sec
     gradient                   ...        5 min,  4.967 sec
 * total energy  : -5104.0723361 Eh     change    :  -0.6962772E-04 Eh
   gradient norm :     0.0180976 Eh/a0  converged?    E=F G=F D=F
   time step     :     0.2500000 fs     power     :   0.3508696E-08
   step length   :     0.0036689 a0     speed     :   0.3549853E-03

........................................................................
.............................. CYCLE    3 ..............................
........................................................................

 iter      E             dE          RMSdq      gap      omega  full diag
   1  -5198.5871699 -0.519859E+04  0.562E-04    4.08       0.0  T
   2  -5198.5871699 -0.413438E-07  0.345E-04    4.08       4.7  T
   3  -5198.5871699  0.671225E-07  0.124E-04    4.08      13.0  T
     SCC iter.                  ...       10 min, 34.688 sec
     gradient                   ...        5 min,  4.006 sec
 * total energy  : -5104.0724156 Eh     change    :  -0.7954459E-04 Eh
   gradient norm :     0.0158515 Eh/a0  converged?    E=F G=F D=F
   time step     :     0.2500000 fs     power     :   0.3917461E-08
   step length   :     0.0047250 a0     speed     :   0.4571676E-03

........................................................................
.............................. CYCLE    4 ..............................
........................................................................

 iter      E             dE          RMSdq      gap      omega  full diag
   1  -5198.5900106 -0.519859E+04  0.669E-04    4.08       0.0  T
   2  -5198.5900106 -0.549244E-07  0.412E-04    4.08       3.9  T
   3  -5198.5900105  0.102315E-06  0.148E-04    4.08      10.9  T
     SCC iter.                  ...       10 min, 35.893 sec
     gradient                   ...        5 min,  4.724 sec
 * total energy  : -5104.0724964 Eh     change    :  -0.8080606E-04 Eh
   gradient norm :     0.0134997 Eh/a0  converged?    E=F G=F D=F
   time step     :     0.2500000 fs     power     :   0.3878781E-08
   step length   :     0.0056385 a0     speed     :   0.5455523E-03

........................................................................
.............................. CYCLE    5 ..............................
........................................................................

 iter      E             dE          RMSdq      gap      omega  full diag
   1  -5198.5933576 -0.519859E+04  0.756E-04    4.08       0.0  T
   2  -5198.5933577 -0.650161E-07  0.468E-04    4.08       3.4  T
   3  -5198.5933575  0.150215E-06  0.173E-04    4.08       9.3  T
     SCC iter.                  ...       10 min, 37.202 sec
     gradient                   ...        5 min,  4.070 sec
 * total energy  : -5104.0725711 Eh     change    :  -0.7466157E-04 Eh
   gradient norm :     0.0113592 Eh/a0  converged?    E=F G=F D=F
   time step     :     0.2500000 fs     power     :   0.3479178E-08
   step length   :     0.0063867 a0     speed     :   0.6179451E-03

........................................................................
.............................. CYCLE    6 ..............................
........................................................................

 iter      E             dE          RMSdq      gap      omega  full diag
   1  -5198.5975981 -0.519860E+04  0.907E-04    4.08       0.0  T
   2  -5198.5975982 -0.870041E-07  0.566E-04    4.08       2.8  T
   3  -5198.5975979  0.278637E-06  0.227E-04    4.08       7.1  T
     SCC iter.                  ...       10 min, 36.627 sec
     gradient                   ...        5 min,  3.958 sec
 * total energy  : -5104.0726407 Eh     change    :  -0.6965480E-04 Eh
   gradient norm :     0.0096171 Eh/a0  converged?    E=F G=F D=F
   time step     :     0.2750000 fs     power     :   0.2789397E-08
   step length   :     0.0077124 a0     speed     :   0.6783785E-03

........................................................................
.............................. CYCLE    7 ..............................
........................................................................

 iter      E             dE          RMSdq      gap      omega  full diag
   1  -5198.6028101 -0.519860E+04  0.105E-03    4.08       0.0  T
   2  -5198.6028102 -0.105942E-06  0.662E-04    4.08       2.4  T
   3  -5198.6028097  0.466242E-06  0.288E-04    4.08       5.6  T
     SCC iter.                  ...       10 min, 33.612 sec
     gradient                   ...        5 min,  4.722 sec
 * total energy  : -5104.0726995 Eh     change    :  -0.5873810E-04 Eh
   gradient norm :     0.0086557 Eh/a0  converged?    E=F G=F D=F
   time step     :     0.3025000 fs     power     :   0.1967299E-08
   step length   :     0.0090021 a0     speed     :   0.7198337E-03

........................................................................
.............................. CYCLE    8 ..............................
........................................................................

 iter      E             dE          RMSdq      gap      omega  full diag
   1  -5198.6089226 -0.519861E+04  0.117E-03    4.08       0.0  T
   2  -5198.6089228 -0.122254E-06  0.743E-04    4.08       2.2  T
   3  -5198.6089221  0.668212E-06  0.345E-04    4.08       4.7  T
     SCC iter.                  ...       10 min, 35.537 sec
     gradient                   ...        5 min,  8.105 sec
 * total energy  : -5104.0727445 Eh     change    :  -0.4501700E-04 Eh
   gradient norm :     0.0083431 Eh/a0  converged?    E=F G=F D=F
   time step     :     0.3327500 fs     power     :   0.1211053E-08
   step length   :     0.0101236 a0     speed     :   0.7359214E-03

........................................................................
.............................. CYCLE    9 ..............................
........................................................................

 iter      E             dE          RMSdq      gap      omega  full diag
   1  -5198.6156473 -0.519862E+04  0.125E-03    4.08       0.0  T
   2  -5198.6156475 -0.140984E-06  0.798E-04    4.08       2.0  T
   3  -5198.6156467  0.769538E-06  0.381E-04    4.08       4.2  T
     SCC iter.                  ...       10 min, 36.897 sec
     gradient                   ...        5 min,  5.255 sec
 * total energy  : -5104.0727766 Eh     change    :  -0.3206098E-04 Eh
   gradient norm :     0.0081387 Eh/a0  converged?    E=F G=F D=F
   time step     :     0.3660250 fs     power     :   0.6184953E-09
   step length   :     0.0110015 a0     speed     :   0.7270375E-03

........................................................................
.............................. CYCLE   10 ..............................
........................................................................

 iter      E             dE          RMSdq      gap      omega  full diag
   1  -5198.6224787 -0.519862E+04  0.130E-03    4.08       0.0  T
   2  -5198.6224788 -0.159821E-06  0.821E-04    4.08       2.0  T
   3  -5198.6224781  0.725186E-06  0.387E-04    4.08       4.2  T
     SCC iter.                  ...       10 min, 35.270 sec
     gradient                   ...        5 min,  4.439 sec
 * total energy  : -5104.0727968 Eh     change    :  -0.2024913E-04 Eh
   gradient norm :     0.0078577 Eh/a0  converged?    E=F G=F D=F
   time step     :     0.4026275 fs     power     :   0.1495810E-09
   step length   :     0.0116373 a0     speed     :   0.6991377E-03

........................................................................
.............................. CYCLE   11 ..............................
........................................................................

 iter      E             dE          RMSdq      gap      omega  full diag
   1  -5198.6286969 -0.519863E+04  0.131E-03    4.08       0.0  T
   2  -5198.6286971 -0.163735E-06  0.808E-04    4.08       2.0  T
   3  -5198.6286965  0.549274E-06  0.350E-04    4.08       4.6  T
     SCC iter.                  ...       10 min, 34.964 sec
     gradient                   ...        5 min,  6.475 sec
 * total energy  : -5104.0728058 Eh     change    :  -0.8970070E-05 Eh
   gradient norm :     0.0079347 Eh/a0  converged?    E=F G=F D=F
   time step     :     0.4428903 fs     power     :  -0.2195631E-09
   step length   :     0.0120138 a0     speed     :   0.6561429E-03

........................................................................
.............................. CYCLE   12 ..............................
........................................................................
 * reset velocities

 iter      E             dE          RMSdq      gap      omega  full diag
   1  -5198.6285245 -0.519863E+04  0.582E-05    4.08       0.0  T
   2  -5198.6285246 -0.507043E-08  0.520E-05    4.08      30.9  T
   3  -5198.6285246 -0.113441E-07  0.185E-05    4.08      86.7  T
     SCC iter.                  ...       10 min, 37.455 sec
     gradient                   ...        5 min,  6.803 sec
 * total energy  : -5104.0728093 Eh     change    :  -0.3535471E-05 Eh
   gradient norm :     0.0077981 Eh/a0  converged?    E=T G=F D=T
   time step     :     0.2214451 fs     power     :   0.1704538E-09
   step length   :     0.0003648 a0     speed     :   0.3984914E-04

........................................................................
.............................. CYCLE   13 ..............................
........................................................................

 iter      E             dE          RMSdq      gap      omega  full diag
   1  -5198.6281715 -0.519863E+04  0.705E-05    4.08       0.0  T
   2  -5198.6281715 -0.128603E-08  0.493E-05    4.08      32.6  T
   3  -5198.6281715  0.210184E-08  0.215E-05    4.08      74.8  T
     SCC iter.                  ...       10 min, 36.012 sec
     gradient                   ...        5 min,  3.978 sec
 * total energy  : -5104.0728148 Eh     change    :  -0.5526030E-05 Eh
   gradient norm :     0.0074885 Eh/a0  converged?    E=F G=F D=T
   time step     :     0.2214451 fs     power     :   0.3244626E-09
   step length   :     0.0007233 a0     speed     :   0.7901075E-04

........................................................................
.............................. CYCLE   14 ..............................
........................................................................

 iter      E             dE          RMSdq      gap      omega  full diag
   1  -5198.6276420 -0.519863E+04  0.101E-04    4.08       0.0  T
   2  -5198.6276420 -0.224281E-08  0.713E-05    4.08      22.5  T
   3  -5198.6276420  0.392902E-08  0.310E-05    4.08      51.9  T
     SCC iter.                  ...       10 min, 37.381 sec
     gradient                   ...        5 min, 10.106 sec
 * total energy  : -5104.0728226 Eh     change    :  -0.7742547E-05 Eh
   gradient norm :     0.0070403 Eh/a0  converged?    E=F G=F D=F
   time step     :     0.2214451 fs     power     :   0.4497697E-09
   step length   :     0.0010675 a0     speed     :   0.1166093E-03

........................................................................
.............................. CYCLE   15 ..............................
........................................................................

 iter      E             dE          RMSdq      gap      omega  full diag
   1  -5198.6269428 -0.519863E+04  0.131E-04    4.08       0.0  T
   2  -5198.6269428 -0.376531E-08  0.925E-05    4.08      17.4  T
   3  -5198.6269428  0.693854E-08  0.399E-05    4.08      40.3  T
     SCC iter.                  ...       10 min, 36.608 sec
     gradient                   ...        5 min,  7.530 sec
 * total energy  : -5104.0728320 Eh     change    :  -0.9369329E-05 Eh
   gradient norm :     0.0064748 Eh/a0  converged?    E=F G=F D=F
   time step     :     0.2214451 fs     power     :   0.5376077E-09
   step length   :     0.0013908 a0     speed     :   0.1519239E-03

........................................................................
.............................. CYCLE   16 ..............................
........................................................................

 iter      E             dE          RMSdq      gap      omega  full diag
   1  -5198.6260826 -0.519863E+04  0.158E-04    4.08       0.0  T
   2  -5198.6260826 -0.547334E-08  0.111E-04    4.08      14.4  T
   3  -5198.6260826  0.106056E-07  0.480E-05    4.08      33.5  T
     SCC iter.                  ...       10 min, 38.379 sec
     gradient                   ...        5 min,  7.778 sec
 * total energy  : -5104.0728423 Eh     change    :  -0.1032724E-04 Eh
   gradient norm :     0.0058218 Eh/a0  converged?    E=F G=F D=F
   time step     :     0.2214451 fs     power     :   0.5831935E-09
   step length   :     0.0016873 a0     speed     :   0.1843091E-03

........................................................................
.............................. CYCLE   17 ..............................
........................................................................

 iter      E             dE          RMSdq      gap      omega  full diag
   1  -5198.6250720 -0.519863E+04  0.181E-04    4.08       0.0  T
   2  -5198.6250720 -0.703767E-08  0.128E-04    4.08      12.6  T
   3  -5198.6250720  0.145719E-07  0.551E-05    4.08      29.2  T
     SCC iter.                  ...       10 min, 35.839 sec
     gradient                   ...        5 min,  3.932 sec
 * total energy  : -5104.0728528 Eh     change    :  -0.1054109E-04 Eh
   gradient norm :     0.0051203 Eh/a0  converged?    E=F G=F D=F
   time step     :     0.2214451 fs     power     :   0.5863215E-09
   step length   :     0.0019519 a0     speed     :   0.2132048E-03

........................................................................
.............................. CYCLE   18 ..............................
........................................................................

 iter      E             dE          RMSdq      gap      omega  full diag
   1  -5198.6237948 -0.519862E+04  0.221E-04    4.08       0.0  T
   2  -5198.6237948 -0.101318E-07  0.157E-04    4.08      10.3  T
   3  -5198.6237948  0.231266E-07  0.682E-05    4.08      23.6  T
     SCC iter.                  ...       10 min, 35.436 sec
     gradient                   ...        5 min,  6.567 sec
 * total energy  : -5104.0728639 Eh     change    :  -0.1108465E-04 Eh
   gradient norm :     0.0043498 Eh/a0  converged?    E=F G=F D=F
   time step     :     0.2435896 fs     power     :   0.5457017E-09
   step length   :     0.0024236 a0     speed     :   0.2406640E-03

........................................................................
.............................. CYCLE   19 ..............................
........................................................................

 iter      E             dE          RMSdq      gap      omega  full diag
   1  -5198.6222165 -0.519862E+04  0.263E-04    4.08       0.0  T
   2  -5198.6222165 -0.134351E-07  0.187E-04    4.08       8.6  T
   3  -5198.6222164  0.349901E-07  0.817E-05    4.08      19.7  T
     SCC iter.                  ...       10 min, 36.724 sec
     gradient                   ...        5 min,  7.837 sec
 * total energy  : -5104.0728747 Eh     change    :  -0.1077719E-04 Eh
   gradient norm :     0.0036081 Eh/a0  converged?    E=F G=F D=F
   time step     :     0.2679486 fs     power     :   0.4604646E-09
   step length   :     0.0029362 a0     speed     :   0.2650589E-03

........................................................................
.............................. CYCLE   20 ..............................
........................................................................

 iter      E             dE          RMSdq      gap      omega  full diag
   1  -5198.6203195 -0.519862E+04  0.301E-04    4.08       0.0  T
   2  -5198.6203195 -0.160653E-07  0.214E-04    4.08       7.5  T
   3  -5198.6203194  0.505388E-07  0.947E-05    4.08      17.0  T
     SCC iter.                  ...       10 min, 37.860 sec
     gradient                   ...        5 min,  6.047 sec
 * total energy  : -5104.0728841 Eh     change    :  -0.9449135E-05 Eh
   gradient norm :     0.0030816 Eh/a0  converged?    E=F G=F D=F
   time step     :     0.2947435 fs     power     :   0.3424288E-09
   step length   :     0.0034614 a0     speed     :   0.2840659E-03
 * RMSD in coord.:     0.0011806 a0     energy gain  -0.6692437E-03 Eh

........................................................................
.............................. CYCLE   21 ..............................
........................................................................

 iter      E             dE          RMSdq      gap      omega  full diag
   1  -5198.6186587 -0.519862E+04  0.252E-04    4.08       0.0  T
   2  -5198.6186588 -0.938599E-08  0.177E-04    4.08       9.1  T
   3  -5198.6186587  0.383998E-07  0.791E-05    4.08      20.3  T
     SCC iter.                  ...       10 min, 35.106 sec
     gradient                   ...        5 min,  5.458 sec
 * total energy  : -5104.0728901 Eh     change    :  -0.6011041E-05 Eh
   gradient norm :     0.0029482 Eh/a0  converged?    E=F G=F D=F
   time step     :     0.2500000 fs     power     :   0.2539635E-09
   step length   :     0.0029989 a0     speed     :   0.2901626E-03

........................................................................
.............................. CYCLE   22 ..............................
........................................................................

 iter      E             dE          RMSdq      gap      omega  full diag
   1  -5198.6170233 -0.519862E+04  0.238E-04    4.08       0.0  T
   2  -5198.6170233 -0.706223E-08  0.165E-04    4.08       9.7  T
   3  -5198.6170233  0.372438E-07  0.763E-05    4.08      21.1  T
     SCC iter.                  ...       10 min, 38.517 sec
     gradient                   ...        5 min,  5.741 sec
 * total energy  : -5104.0728948 Eh     change    :  -0.4666688E-05 Eh
   gradient norm :     0.0030220 Eh/a0  converged?    E=T G=F D=F
   time step     :     0.2500000 fs     power     :   0.1954650E-09
   step length   :     0.0029814 a0     speed     :   0.2884697E-03

........................................................................
.............................. CYCLE   23 ..............................
........................................................................

 iter      E             dE          RMSdq      gap      omega  full diag
   1  -5198.6154875 -0.519862E+04  0.221E-04    4.08       0.0  T
   2  -5198.6154875 -0.481123E-08  0.150E-04    4.08      10.7  T
   3  -5198.6154874  0.304381E-07  0.689E-05    4.08      23.4  T
     SCC iter.                  ...       10 min, 34.099 sec
     gradient                   ...        5 min,  4.954 sec
 * total energy  : -5104.0728988 Eh     change    :  -0.3951394E-05 Eh
   gradient norm :     0.0031679 Eh/a0  converged?    E=T G=F D=F
   time step     :     0.2500000 fs     power     :   0.1714195E-09
   step length   :     0.0029100 a0     speed     :   0.2815613E-03

........................................................................
.............................. CYCLE   24 ..............................
........................................................................

 iter      E             dE          RMSdq      gap      omega  full diag
   1  -5198.6141078 -0.519861E+04  0.207E-04    4.08       0.0  T
   2  -5198.6141078 -0.307682E-08  0.135E-04    4.08      11.9  T
   3  -5198.6141077  0.184909E-07  0.549E-05    4.08      29.3  T
     SCC iter.                  ...       10 min, 34.912 sec
     gradient                   ...        5 min,  7.142 sec
 * total energy  : -5104.0729026 Eh     change    :  -0.3873066E-05 Eh
   gradient norm :     0.0032890 Eh/a0  converged?    E=T G=F D=F
   time step     :     0.2500000 fs     power     :   0.1757851E-09
   step length   :     0.0028216 a0     speed     :   0.2730004E-03

........................................................................
.............................. CYCLE   25 ..............................
........................................................................

 iter      E             dE          RMSdq      gap      omega  full diag
   1  -5198.6129203 -0.519861E+04  0.198E-04    4.08       0.0  T
   2  -5198.6129203 -0.195905E-08  0.123E-04    4.08      13.1  T
   3  -5198.6129202  0.589262E-08  0.339E-05    4.08      47.5  T
     SCC iter.                  ...       10 min, 37.177 sec
     gradient                   ...        5 min,  4.445 sec
 * total energy  : -5104.0729068 Eh     change    :  -0.4140943E-05 Eh
   gradient norm :     0.0033401 Eh/a0  converged?    E=T G=F D=F
   time step     :     0.2500000 fs     power     :   0.1977861E-09
   step length   :     0.0027450 a0     speed     :   0.2655892E-03

........................................................................
.............................. CYCLE   26 ..............................
........................................................................

 iter      E             dE          RMSdq      gap      omega  full diag
   1  -5198.6118511 -0.519861E+04  0.215E-04    4.08       0.0  T
   2  -5198.6118511 -0.196542E-08  0.128E-04    4.08      12.6  T
   3  -5198.6118511  0.140062E-08  0.227E-05    4.08      70.8  T
     SCC iter.                  ...       10 min, 33.689 sec
     gradient                   ...        5 min,  6.301 sec
 * total energy  : -5104.0729119 Eh     change    :  -0.5096601E-05 Eh
   gradient norm :     0.0033027 Eh/a0  converged?    E=F G=F D=F
   time step     :     0.2750000 fs     power     :   0.2265157E-09
   step length   :     0.0029775 a0     speed     :   0.2618953E-03

........................................................................
.............................. CYCLE   27 ..............................
........................................................................

 iter      E             dE          RMSdq      gap      omega  full diag
   1  -5198.6109544 -0.519861E+04  0.239E-04    4.08       0.0  T
   2  -5198.6109544 -0.228829E-08  0.141E-04    4.08      11.4  T
   3  -5198.6109543  0.342152E-08  0.300E-05    4.08      53.6  T
     SCC iter.                  ...       10 min, 33.616 sec
     gradient                   ...        5 min,  6.734 sec
 * total energy  : -5104.0729180 Eh     change    :  -0.6162137E-05 Eh
   gradient norm :     0.0031683 Eh/a0  converged?    E=F G=F D=F
   time step     :     0.3025000 fs     power     :   0.2531003E-09
   step length   :     0.0032847 a0     speed     :   0.2626540E-03

........................................................................
.............................. CYCLE   28 ..............................
........................................................................

 iter      E             dE          RMSdq      gap      omega  full diag
   1  -5198.6102878 -0.519861E+04  0.273E-04    4.08       0.0  T
   2  -5198.6102878 -0.311411E-08  0.161E-04    4.08      10.0  T
   3  -5198.6102878  0.115733E-07  0.502E-05    4.08      32.1  T
     SCC iter.                  ...       10 min, 35.567 sec
     gradient                   ...        5 min,  8.441 sec
 * total energy  : -5104.0729254 Eh     change    :  -0.7322511E-05 Eh
   gradient norm :     0.0029489 Eh/a0  converged?    E=F G=F D=F
   time step     :     0.3327500 fs     power     :   0.2696921E-09
   step length   :     0.0036819 a0     speed     :   0.2676487E-03

........................................................................
.............................. CYCLE   29 ..............................
........................................................................

 iter      E             dE          RMSdq      gap      omega  full diag
   1  -5198.6099100 -0.519861E+04  0.314E-04    4.08       0.0  T
   2  -5198.6099100 -0.447017E-08  0.188E-04    4.08       8.5  T
   3  -5198.6099100  0.295195E-07  0.773E-05    4.08      20.8  T
     SCC iter.                  ...       10 min, 36.713 sec
     gradient                   ...        5 min,  6.115 sec
 * total energy  : -5104.0729335 Eh     change    :  -0.8188504E-05 Eh
   gradient norm :     0.0026801 Eh/a0  converged?    E=F G=F D=F
   time step     :     0.3660250 fs     power     :   0.2707851E-09
   step length   :     0.0041755 a0     speed     :   0.2759395E-03

........................................................................
.............................. CYCLE   30 ..............................
........................................................................

 iter      E             dE          RMSdq      gap      omega  full diag
   1  -5198.6098732 -0.519861E+04  0.357E-04    4.08       0.0  T
   2  -5198.6098732 -0.649197E-08  0.217E-04    4.08       7.4  T
   3  -5198.6098731  0.511900E-07  0.101E-04    4.08      16.0  T
     SCC iter.                  ...       10 min, 36.317 sec
     gradient                   ...        5 min,  5.785 sec
 * total energy  : -5104.0729422 Eh     change    :  -0.8701362E-05 Eh
   gradient norm :     0.0024247 Eh/a0  converged?    E=F G=F D=F
   time step     :     0.4026275 fs     power     :   0.2553478E-09
   step length   :     0.0047603 a0     speed     :   0.2859897E-03

........................................................................
.............................. CYCLE   31 ..............................
........................................................................

 iter      E             dE          RMSdq      gap      omega  full diag
   1  -5198.6102052 -0.519861E+04  0.396E-04    4.08       0.0  T
   2  -5198.6102052 -0.785894E-08  0.242E-04    4.08       6.6  T
   3  -5198.6102052  0.675018E-07  0.115E-04    4.08      14.0  T
     SCC iter.                  ...       10 min, 34.888 sec
     gradient                   ...        5 min,  5.937 sec
 * total energy  : -5104.0729510 Eh     change    :  -0.8760625E-05 Eh
   gradient norm :     0.0022661 Eh/a0  converged?    E=F G=F D=F
   time step     :     0.4428903 fs     power     :   0.2288683E-09
   step length   :     0.0054174 a0     speed     :   0.2958744E-03

........................................................................
.............................. CYCLE   32 ..............................
........................................................................

 iter      E             dE          RMSdq      gap      omega  full diag
   1  -5198.6108859 -0.519861E+04  0.422E-04    4.08       0.0  T
   2  -5198.6108859 -0.832461E-08  0.257E-04    4.08       6.3  T
   3  -5198.6108859  0.678428E-07  0.113E-04    4.08      14.2  T
     SCC iter.                  ...       10 min, 36.901 sec
     gradient                   ...        5 min,  5.387 sec
 * total energy  : -5104.0729596 Eh     change    :  -0.8611192E-05 Eh
   gradient norm :     0.0021989 Eh/a0  converged?    E=F G=F D=F
   time step     :     0.4871793 fs     power     :   0.2013641E-09
   step length   :     0.0061181 a0     speed     :   0.3037665E-03

........................................................................
.............................. CYCLE   33 ..............................
........................................................................

 iter      E             dE          RMSdq      gap      omega  full diag
   1  -5198.6118345 -0.519861E+04  0.433E-04    4.08       0.0  T
   2  -5198.6118345 -0.833370E-08  0.260E-04    4.08       6.2  T
   3  -5198.6118345  0.422488E-07  0.895E-05    4.08      18.0  T
     SCC iter.                  ...       10 min, 37.422 sec
     gradient                   ...        5 min,  6.168 sec
 * total energy  : -5104.0729684 Eh     change    :  -0.8736496E-05 Eh
   gradient norm :     0.0022332 Eh/a0  converged?    E=F G=F D=F
   time step     :     0.5358972 fs     power     :   0.1839609E-09
   step length   :     0.0068489 a0     speed     :   0.3091378E-03

........................................................................
.............................. CYCLE   34 ..............................
........................................................................

 iter      E             dE          RMSdq      gap      omega  full diag
   1  -5198.6129221 -0.519861E+04  0.427E-04    4.08       0.0  T
   2  -5198.6129221 -0.786622E-08  0.254E-04    4.08       6.3  T
   3  -5198.6129221  0.882756E-08  0.479E-05    4.08      33.6  T
     SCC iter.                  ...       10 min, 37.876 sec
     gradient                   ...        5 min,  7.038 sec
 * total energy  : -5104.0729777 Eh     change    :  -0.9332336E-05 Eh
   gradient norm :     0.0023036 Eh/a0  converged?    E=F G=F D=F
   time step     :     0.5894869 fs     power     :   0.1829089E-09
   step length   :     0.0076317 a0     speed     :   0.3131565E-03

........................................................................
.............................. CYCLE   35 ..............................
........................................................................

 iter      E             dE          RMSdq      gap      omega  full diag
   1  -5198.6139967 -0.519861E+04  0.415E-04    4.08       0.0  T
   2  -5198.6139967 -0.665932E-08  0.251E-04    4.08       6.4  T
   3  -5198.6139967  0.133768E-07  0.535E-05    4.08      30.1  T
     SCC iter.                  ...       10 min, 36.106 sec
     gradient                   ...        5 min,  7.135 sec
 * total energy  : -5104.0729885 Eh     change    :  -0.1079713E-04 Eh
   gradient norm :     0.0023072 Eh/a0  converged?    E=F G=F D=F
   time step     :     0.6484356 fs     power     :   0.1975805E-09
   step length   :     0.0085324 a0     speed     :   0.3182891E-03

........................................................................
.............................. CYCLE   36 ..............................
........................................................................

 iter      E             dE          RMSdq      gap      omega  full diag
   1  -5198.6148949 -0.519861E+04  0.414E-04    4.08       0.0  T
   2  -5198.6148949 -0.600267E-08  0.255E-04    4.08       6.3  T
   3  -5198.6148949  0.253667E-07  0.686E-05    4.08      23.4  T
     SCC iter.                  ...       10 min, 39.657 sec
     gradient                   ...        5 min,  6.412 sec
 * total energy  : -5104.0730013 Eh     change    :  -0.1282734E-04 Eh
   gradient norm :     0.0021634 Eh/a0  converged?    E=F G=F D=F
   time step     :     0.7132792 fs     power     :   0.2139117E-09
   step length   :     0.0096438 a0     speed     :   0.3270407E-03

........................................................................
.............................. CYCLE   37 ..............................
........................................................................

 iter      E             dE          RMSdq      gap      omega  full diag
   1  -5198.6154423 -0.519862E+04  0.423E-04    4.08       0.0  T
   2  -5198.6154423 -0.946693E-08  0.267E-04    4.08       6.0  T
   3  -5198.6154422  0.559940E-07  0.974E-05    4.08      16.5  T
     SCC iter.                  ...       10 min, 36.061 sec
     gradient                   ...        5 min,  5.344 sec
 * total energy  : -5104.0730159 Eh     change    :  -0.1457839E-04 Eh
   gradient norm :     0.0020783 Eh/a0  converged?    E=F G=F D=F
   time step     :     0.7846071 fs     power     :   0.2170826E-09
   step length   :     0.0110237 a0     speed     :   0.3398523E-03

........................................................................
.............................. CYCLE   38 ..............................
........................................................................

 iter      E             dE          RMSdq      gap      omega  full diag
   1  -5198.6154811 -0.519862E+04  0.447E-04    4.08       0.0  T
   2  -5198.6154811 -0.119499E-07  0.277E-04    4.08       5.8  T
   3  -5198.6154810  0.463806E-07  0.922E-05    4.08      17.5  T
     SCC iter.                  ...       10 min, 36.188 sec
     gradient                   ...        5 min,  4.495 sec
 * total energy  : -5104.0730323 Eh     change    :  -0.1642118E-04 Eh
   gradient norm :     0.0022207 Eh/a0  converged?    E=F G=F D=F
   time step     :     0.8630678 fs     power     :   0.2286354E-09
   step length   :     0.0126410 a0     speed     :   0.3542847E-03

........................................................................
.............................. CYCLE   39 ..............................
........................................................................

 iter      E             dE          RMSdq      gap      omega  full diag
   1  -5198.6150693 -0.519862E+04  0.512E-04    4.08       0.0  T
   2  -5198.6150693 -0.113923E-07  0.307E-04    4.08       5.2  T
   3  -5198.6150693  0.180917E-07  0.646E-05    4.08      24.9  T
     SCC iter.                  ...       10 min, 36.854 sec
     gradient                   ...        5 min,  5.126 sec
 * total energy  : -5104.0730527 Eh     change    :  -0.2039703E-04 Eh
   gradient norm :     0.0021582 Eh/a0  converged?    E=F G=F D=F
   time step     :     0.9493746 fs     power     :   0.2657878E-09
   step length   :     0.0145642 a0     speed     :   0.3710778E-03

........................................................................
.............................. CYCLE   40 ..............................
........................................................................

 iter      E             dE          RMSdq      gap      omega  full diag
   1  -5198.6146946 -0.519861E+04  0.598E-04    4.08       0.0  T
   2  -5198.6146946 -0.150230E-07  0.362E-04    4.08       4.4  T
   3  -5198.6146946  0.387099E-07  0.881E-05    4.08      18.3  T
     SCC iter.                  ...       10 min, 37.642 sec
     gradient                   ...        5 min,  6.135 sec
 * total energy  : -5104.0730772 Eh     change    :  -0.2451374E-04 Eh
   gradient norm :     0.0018929 Eh/a0  converged?    E=F G=F D=F
   time step     :     1.0443120 fs     power     :   0.2826768E-09
   step length   :     0.0170484 a0     speed     :   0.3948839E-03

........................................................................
.............................. CYCLE   41 ..............................
........................................................................

 iter      E             dE          RMSdq      gap      omega  full diag
   1  -5198.6152960 -0.519862E+04  0.640E-04    4.08       0.0  T
   2  -5198.6152960 -0.170530E-07  0.391E-04    4.08       4.1  T
   3  -5198.6152959  0.547097E-07  0.104E-04    4.08      15.5  T
     SCC iter.                  ...       10 min, 33.757 sec
     gradient                   ...        5 min,  6.525 sec
 * total energy  : -5104.0731040 Eh     change    :  -0.2679239E-04 Eh
   gradient norm :     0.0020311 Eh/a0  converged?    E=F G=F D=F
   time step     :     1.1487432 fs     power     :   0.2764613E-09
   step length   :     0.0200723 a0     speed     :   0.4226576E-03

........................................................................
.............................. CYCLE   42 ..............................
........................................................................

 iter      E             dE          RMSdq      gap      omega  full diag
   1  -5198.6171087 -0.519862E+04  0.698E-04    4.08       0.0  T
   2  -5198.6171088 -0.121627E-07  0.412E-04    4.08       3.9  T
   3  -5198.6171087  0.136943E-07  0.619E-05    4.08      26.0  T
     SCC iter.                  ...       10 min, 35.851 sec
     gradient                   ...        5 min,  6.311 sec
 * total energy  : -5104.0731358 Eh     change    :  -0.3183497E-04 Eh
   gradient norm :     0.0020590 Eh/a0  converged?    E=F G=F D=F
   time step     :     1.2500000 fs     power     :   0.3188639E-09
   step length   :     0.0231536 a0     speed     :   0.4480478E-03
 * RMSD in coord.:     0.0025251 a0     energy gain  -0.2517171E-03 Eh

........................................................................
.............................. CYCLE   43 ..............................
........................................................................

 iter      E             dE          RMSdq      gap      omega  full diag
   1  -5198.6174274 -0.519862E+04  0.138E-04    4.08       0.0  T
   2  -5198.6174274 -0.518412E-09  0.813E-05    4.08      19.8  T
   3  -5198.6174274  0.132059E-08  0.182E-05    4.08      88.2  T
     SCC iter.                  ...       10 min, 36.048 sec
     gradient                   ...        5 min,  4.665 sec
 * total energy  : -5104.0731424 Eh     change    :  -0.6599544E-05 Eh
   gradient norm :     0.0019807 Eh/a0  converged?    E=F G=F D=F
   time step     :     0.2500000 fs     power     :   0.3434746E-09
   step length   :     0.0045580 a0     speed     :   0.4410149E-03

........................................................................
.............................. CYCLE   44 ..............................
........................................................................

 iter      E             dE          RMSdq      gap      omega  full diag
   1  -5198.6176867 -0.519862E+04  0.146E-04    4.08       0.0  T
   2  -5198.6176867 -0.887667E-09  0.877E-05    4.08      18.3  T
   3  -5198.6176867  0.399086E-08  0.286E-05    4.08      56.2  T
     SCC iter.                  ...       10 min, 35.020 sec
     gradient                   ...        5 min,  3.550 sec
 * total energy  : -5104.0731493 Eh     change    :  -0.6853019E-05 Eh
   gradient norm :     0.0018087 Eh/a0  converged?    E=F G=F D=F
   time step     :     0.2500000 fs     power     :   0.3556968E-09
   step length   :     0.0045297 a0     speed     :   0.4382759E-03

........................................................................
.............................. CYCLE   45 ..............................
........................................................................

 iter      E             dE          RMSdq      gap      omega  full diag
   1  -5198.6178780 -0.519862E+04  0.160E-04    4.08       0.0  T
   2  -5198.6178780 -0.128512E-08  0.968E-05    4.08      16.6  T
   3  -5198.6178780  0.490672E-08  0.315E-05    4.08      51.1  T
     SCC iter.                  ...       10 min, 35.348 sec
     gradient                   ...        5 min,  4.995 sec
 * total energy  : -5104.0731561 Eh     change    :  -0.6808335E-05 Eh
   gradient norm :     0.0016166 Eh/a0  converged?    E=F G=F D=F
   time step     :     0.2500000 fs     power     :   0.3518107E-09
   step length   :     0.0045453 a0     speed     :   0.4397864E-03

........................................................................
.............................. CYCLE   46 ..............................
........................................................................

 iter      E             dE          RMSdq      gap      omega  full diag
   1  -5198.6180049 -0.519862E+04  0.169E-04    4.08       0.0  T
   2  -5198.6180049 -0.147156E-08  0.103E-04    4.08      15.6  T
   3  -5198.6180049  0.556702E-08  0.328E-05    4.08      49.0  T
     SCC iter.                  ...       10 min, 36.389 sec
     gradient                   ...        5 min,  5.865 sec
 * total energy  : -5104.0731628 Eh     change    :  -0.6645437E-05 Eh
   gradient norm :     0.0014971 Eh/a0  converged?    E=F G=F D=F
   time step     :     0.2500000 fs     power     :   0.3366937E-09
   step length   :     0.0045924 a0     speed     :   0.4443388E-03

........................................................................
.............................. CYCLE   47 ..............................
........................................................................

 iter      E             dE          RMSdq      gap      omega  full diag
   1  -5198.6180821 -0.519862E+04  0.170E-04    4.08       0.0  T
   2  -5198.6180821 -0.136242E-08  0.103E-04    4.08      15.6  T
   3  -5198.6180821  0.477667E-08  0.302E-05    4.08      53.3  T
     SCC iter.                  ...       10 min, 40.065 sec
     gradient                   ...        5 min,  5.416 sec
 * total energy  : -5104.0731690 Eh     change    :  -0.6286769E-05 Eh
   gradient norm :     0.0014955 Eh/a0  converged?    E=F G=F D=F
   time step     :     0.2500000 fs     power     :   0.3212750E-09
   step length   :     0.0046426 a0     speed     :   0.4491971E-03

........................................................................
.............................. CYCLE   48 ..............................
........................................................................

 iter      E             dE          RMSdq      gap      omega  full diag
   1  -5198.6181351 -0.519862E+04  0.177E-04    4.08       0.0  T
   2  -5198.6181351 -0.125419E-08  0.107E-04    4.08      15.1  T
   3  -5198.6181351  0.374803E-08  0.269E-05    4.08      59.9  T
     SCC iter.                  ...       10 min, 35.992 sec
     gradient                   ...        5 min,  4.940 sec
 * total energy  : -5104.0731757 Eh     change    :  -0.6665564E-05 Eh
   gradient norm :     0.0015753 Eh/a0  converged?    E=F G=F D=F
   time step     :     0.2750000 fs     power     :   0.3139650E-09
   step length   :     0.0051427 a0     speed     :   0.4523505E-03

........................................................................
.............................. CYCLE   49 ..............................
........................................................................

 iter      E             dE          RMSdq      gap      omega  full diag
   1  -5198.6181798 -0.519862E+04  0.177E-04    4.08       0.0  T
   2  -5198.6181798 -0.889486E-09  0.105E-04    4.08      15.3  T
   3  -5198.6181798  0.172804E-08  0.195E-05    4.08      82.3  T
     SCC iter.                  ...       10 min, 35.065 sec
     gradient                   ...        5 min,  5.077 sec
 * total energy  : -5104.0731831 Eh     change    :  -0.7360583E-05 Eh
   gradient norm :     0.0016558 Eh/a0  converged?    E=F G=F D=F
   time step     :     0.3025000 fs     power     :   0.3188028E-09
   step length   :     0.0056705 a0     speed     :   0.4534274E-03

........................................................................
.............................. CYCLE   50 ..............................
........................................................................

 iter      E             dE          RMSdq      gap      omega  full diag
   1  -5198.6182223 -0.519862E+04  0.177E-04    4.08       0.0  T
   2  -5198.6182223 -0.650289E-09  0.105E-04    4.08      15.4  T
   3  -5198.6182223  0.737600E-09  0.139E-05    4.08     116.2  T
     SCC iter.                  ...       10 min, 36.190 sec
     gradient                   ...        5 min,  4.299 sec
 * total energy  : -5104.0731915 Eh     change    :  -0.8464789E-05 Eh
   gradient norm :     0.0016674 Eh/a0  converged?    E=F G=F D=F
   time step     :     0.3327500 fs     power     :   0.3315505E-09
   step length   :     0.0062521 a0     speed     :   0.4544901E-03

........................................................................
.............................. CYCLE   51 ..............................
........................................................................

 iter      E             dE          RMSdq      gap      omega  full diag
   1  -5198.6182496 -0.519862E+04  0.187E-04    4.08       0.0  T
   2  -5198.6182496 -0.590262E-09  0.111E-04    4.08      14.5  T
   3  -5198.6182496  0.144792E-08  0.176E-05    4.08      91.5  T
     SCC iter.                  ...       10 min, 36.246 sec
     gradient                   ...        5 min,  4.879 sec
 * total energy  : -5104.0732011 Eh     change    :  -0.9602698E-05 Eh
   gradient norm :     0.0015922 Eh/a0  converged?    E=F G=F D=F
   time step     :     0.3660250 fs     power     :   0.3431829E-09
   step length   :     0.0069295 a0     speed     :   0.4579355E-03

........................................................................
.............................. CYCLE   52 ..............................
........................................................................

 iter      E             dE          RMSdq      gap      omega  full diag
   1  -5198.6182232 -0.519862E+04  0.209E-04    4.08       0.0  T
   2  -5198.6182232 -0.113414E-08  0.126E-04    4.08      12.8  T
   3  -5198.6182232  0.442742E-08  0.295E-05    4.08      54.5  T
     SCC iter.                  ...       10 min, 37.775 sec
     gradient                   ...        5 min,  5.201 sec
 * total energy  : -5104.0732118 Eh     change    :  -0.1065656E-04 Eh
   gradient norm :     0.0014840 Eh/a0  converged?    E=F G=F D=F
   time step     :     0.4026275 fs     power     :   0.3462813E-09
   step length   :     0.0077422 a0     speed     :   0.4651348E-03

........................................................................
.............................. CYCLE   53 ..............................
........................................................................

 iter      E             dE          RMSdq      gap      omega  full diag
   1  -5198.6180843 -0.519862E+04  0.237E-04    4.08       0.0  T
   2  -5198.6180843 -0.182445E-08  0.144E-04    4.08      11.2  T
   3  -5198.6180843  0.820364E-08  0.390E-05    4.08      41.2  T
     SCC iter.                  ...       10 min, 34.129 sec
     gradient                   ...        5 min,  5.780 sec
 * total energy  : -5104.0732235 Eh     change    :  -0.1172561E-04 Eh
   gradient norm :     0.0014438 Eh/a0  converged?    E=F G=F D=F
   time step     :     0.4428903 fs     power     :   0.3422474E-09
   step length   :     0.0087078 a0     speed     :   0.4755849E-03

........................................................................
.............................. CYCLE   54 ..............................
........................................................................

 iter      E             dE          RMSdq      gap      omega  full diag
   1  -5198.6177916 -0.519862E+04  0.261E-04    4.08       0.0  T
   2  -5198.6177916 -0.208729E-08  0.158E-04    4.08      10.2  T
   3  -5198.6177916  0.768341E-08  0.382E-05    4.08      42.1  T
     SCC iter.                  ...       10 min, 38.642 sec
     gradient                   ...        5 min,  7.572 sec
 * total energy  : -5104.0732364 Eh     change    :  -0.1284319E-04 Eh
   gradient norm :     0.0014885 Eh/a0  converged?    E=F G=F D=F
   time step     :     0.4871793 fs     power     :   0.3412744E-09
   step length   :     0.0098014 a0     speed     :   0.4866483E-03

........................................................................
.............................. CYCLE   55 ..............................
........................................................................

 iter      E             dE          RMSdq      gap      omega  full diag
   1  -5198.6173833 -0.519862E+04  0.281E-04    4.08       0.0  T
   2  -5198.6173833 -0.166256E-08  0.166E-04    4.08       9.7  T
   3  -5198.6173833  0.333785E-08  0.282E-05    4.08      57.0  T
     SCC iter.                  ...       10 min, 36.107 sec
     gradient                   ...        5 min,  6.878 sec
 * total energy  : -5104.0732507 Eh     change    :  -0.1436987E-04 Eh
   gradient norm :     0.0015304 Eh/a0  converged?    E=F G=F D=F
   time step     :     0.5358972 fs     power     :   0.3496506E-09
   step length   :     0.0110075 a0     speed     :   0.4968457E-03

........................................................................
.............................. CYCLE   56 ..............................
........................................................................

 iter      E             dE          RMSdq      gap      omega  full diag
   1  -5198.6170033 -0.519862E+04  0.302E-04    4.08       0.0  T
   2  -5198.6170033 -0.158252E-08  0.178E-04    4.08       9.0  T
   3  -5198.6170033  0.396631E-08  0.299E-05    4.08      53.7  T
     SCC iter.                  ...       10 min, 35.466 sec
     gradient                   ...        5 min,  7.539 sec
 * total energy  : -5104.0732671 Eh     change    :  -0.1638388E-04 Eh
   gradient norm :     0.0015131 Eh/a0  converged?    E=F G=F D=F
   time step     :     0.5894869 fs     power     :   0.3634021E-09
   step length   :     0.0123768 a0     speed     :   0.5078680E-03

........................................................................
.............................. CYCLE   57 ..............................
........................................................................

 iter      E             dE          RMSdq      gap      omega  full diag
   1  -5198.6168701 -0.519862E+04  0.338E-04    4.08       0.0  T
   2  -5198.6168701 -0.210912E-08  0.202E-04    4.08       8.0  T
   3  -5198.6168701  0.121918E-07  0.469E-05    4.08      34.3  T
     SCC iter.                  ...       10 min, 34.734 sec
     gradient                   ...        5 min,  7.478 sec
 * total energy  : -5104.0732856 Eh     change    :  -0.1851287E-04 Eh
   gradient norm :     0.0014365 Eh/a0  converged?    E=F G=F D=F
   time step     :     0.6484356 fs     power     :   0.3741374E-09
   step length   :     0.0139883 a0     speed     :   0.5218096E-03

........................................................................
.............................. CYCLE   58 ..............................
........................................................................

 iter      E             dE          RMSdq      gap      omega  full diag
   1  -5198.6171642 -0.519862E+04  0.385E-04    4.08       0.0  T
   2  -5198.6171642 -0.341879E-08  0.231E-04    4.08       7.0  T
   3  -5198.6171642  0.199925E-07  0.602E-05    4.08      26.7  T
     SCC iter.                  ...       10 min, 34.776 sec
     gradient                   ...        5 min,  7.269 sec
 * total energy  : -5104.0733063 Eh     change    :  -0.2071411E-04 Eh
   gradient norm :     0.0014218 Eh/a0  converged?    E=F G=F D=F
   time step     :     0.7132792 fs     power     :   0.3783116E-09
   step length   :     0.0159085 a0     speed     :   0.5394914E-03

........................................................................
.............................. CYCLE   59 ..............................
........................................................................

 iter      E             dE          RMSdq      gap      omega  full diag
   1  -5198.6178246 -0.519862E+04  0.419E-04    4.08       0.0  T
   2  -5198.6178246 -0.270120E-08  0.248E-04    4.08       6.5  T
   3  -5198.6178246  0.690852E-08  0.390E-05    4.08      41.2  T
     SCC iter.                  ...       10 min, 36.128 sec
     gradient                   ...        5 min,  6.567 sec
 * total energy  : -5104.0733298 Eh     change    :  -0.2341832E-04 Eh
   gradient norm :     0.0014824 Eh/a0  converged?    E=F G=F D=F
   time step     :     0.7846071 fs     power     :   0.3895416E-09
   step length   :     0.0181092 a0     speed     :   0.5582920E-03

........................................................................
.............................. CYCLE   60 ..............................
........................................................................

 iter      E             dE          RMSdq      gap      omega  full diag
   1  -5198.6185426 -0.519862E+04  0.462E-04    4.08       0.0  T
   2  -5198.6185426 -0.311320E-08  0.272E-04    4.08       5.9  T
   3  -5198.6185425  0.127202E-07  0.508E-05    4.08      31.7  T
     SCC iter.                  ...       10 min, 36.080 sec
     gradient                   ...        5 min,  5.041 sec
 * total energy  : -5104.0733567 Eh     change    :  -0.2696294E-04 Eh
   gradient norm :     0.0014250 Eh/a0  converged?    E=F G=F D=F
   time step     :     0.8630678 fs     power     :   0.4077224E-09
   step length   :     0.0206079 a0     speed     :   0.5775698E-03

........................................................................
.............................. CYCLE   61 ..............................
........................................................................

 iter      E             dE          RMSdq      gap      omega  full diag
   1  -5198.6190228 -0.519862E+04  0.529E-04    4.08       0.0  T
   2  -5198.6190228 -0.476393E-08  0.313E-04    4.08       5.1  T
   3  -5198.6190228  0.197051E-07  0.607E-05    4.08      26.5  T
     SCC iter.                  ...       10 min, 35.538 sec
     gradient                   ...        5 min,  4.088 sec
 * total energy  : -5104.0733872 Eh     change    :  -0.3049159E-04 Eh
   gradient norm :     0.0013920 Eh/a0  converged?    E=F G=F D=F
   time step     :     0.9493746 fs     power     :   0.4176578E-09
   step length   :     0.0236031 a0     speed     :   0.6013774E-03

........................................................................
.............................. CYCLE   62 ..............................
........................................................................

 iter      E             dE          RMSdq      gap      omega  full diag
   1  -5198.6191768 -0.519862E+04  0.586E-04    4.08       0.0  T
   2  -5198.6191769 -0.518594E-08  0.346E-04    4.08       4.7  T
   3  -5198.6191768  0.152559E-07  0.575E-05    4.08      28.0  T
     SCC iter.                  ...       10 min, 34.129 sec
     gradient                   ...        5 min,  6.260 sec
 * total energy  : -5104.0734218 Eh     change    :  -0.3458044E-04 Eh
   gradient norm :     0.0014531 Eh/a0  converged?    E=F G=F D=F
   time step     :     1.0443120 fs     power     :   0.4326444E-09
   step length   :     0.0270970 a0     speed     :   0.6276334E-03

........................................................................
.............................. CYCLE   63 ..............................
........................................................................

 iter      E             dE          RMSdq      gap      omega  full diag
   1  -5198.6190232 -0.519862E+04  0.660E-04    4.08       0.0  T
   2  -5198.6190232 -0.709406E-08  0.390E-04    4.08       4.1  T
   3  -5198.6190232  0.336904E-07  0.809E-05    4.08      19.9  T
     SCC iter.                  ...       10 min, 35.888 sec
     gradient                   ...        5 min,  5.727 sec
 * total energy  : -5104.0734617 Eh     change    :  -0.3993463E-04 Eh
   gradient norm :     0.0013804 Eh/a0  converged?    E=F G=F D=F
   time step     :     1.1487432 fs     power     :   0.4537961E-09
   step length   :     0.0310919 a0     speed     :   0.6546956E-03

........................................................................
.............................. CYCLE   64 ..............................
........................................................................

 iter      E             dE          RMSdq      gap      omega  full diag
   1  -5198.6188647 -0.519862E+04  0.758E-04    4.08       0.0  T
   2  -5198.6188647 -0.103437E-07  0.451E-04    4.08       3.6  T
   3  -5198.6188646  0.588370E-07  0.104E-04    4.08      15.5  T
     SCC iter.                  ...       10 min, 34.811 sec
     gradient                   ...        5 min,  5.195 sec
 * total energy  : -5104.0735065 Eh     change    :  -0.4481383E-04 Eh
   gradient norm :     0.0014222 Eh/a0  converged?    E=F G=F D=F
   time step     :     1.2500000 fs     power     :   0.4642004E-09
   step length   :     0.0354946 a0     speed     :   0.6868592E-03

........................................................................
.............................. CYCLE   65 ..............................
........................................................................

 iter      E             dE          RMSdq      gap      omega  full diag
   1  -5198.6194424 -0.519862E+04  0.788E-04    4.08       0.0  T
   2  -5198.6194424 -0.788714E-08  0.464E-04    4.08       3.5  T
   3  -5198.6194424  0.384498E-07  0.899E-05    4.08      17.9  T
     SCC iter.                  ...       10 min, 38.453 sec
     gradient                   ...        5 min,  6.101 sec
 * total energy  : -5104.0735532 Eh     change    :  -0.4669790E-04 Eh
   gradient norm :     0.0014123 Eh/a0  converged?    E=F G=F D=F
   time step     :     1.2500000 fs     power     :   0.4857902E-09
   step length   :     0.0369862 a0     speed     :   0.7157229E-03

........................................................................
.............................. CYCLE   66 ..............................
........................................................................

 iter      E             dE          RMSdq      gap      omega  full diag
   1  -5198.6200310 -0.519862E+04  0.813E-04    4.08       0.0  T
   2  -5198.6200310 -0.142454E-07  0.480E-04    4.08       3.4  T
   3  -5198.6200310  0.390819E-07  0.984E-05    4.08      16.3  T
     SCC iter.                  ...       10 min, 36.488 sec
     gradient                   ...        5 min,  5.979 sec
 * total energy  : -5104.0736011 Eh     change    :  -0.4787472E-04 Eh
   gradient norm :     0.0015134 Eh/a0  converged?    E=F G=F D=F
   time step     :     1.2500000 fs     power     :   0.4913864E-09
   step length   :     0.0384966 a0     speed     :   0.7449509E-03

........................................................................
.............................. CYCLE   67 ..............................
........................................................................

 iter      E             dE          RMSdq      gap      omega  full diag
   1  -5198.6202682 -0.519862E+04  0.850E-04    4.08       0.0  T
   2  -5198.6202682 -0.255741E-07  0.500E-04    4.08       3.2  T
   3  -5198.6202681  0.420541E-07  0.121E-04    4.08      13.3  T
     SCC iter.                  ...       10 min, 35.931 sec
     gradient                   ...        5 min,  5.013 sec
 * total energy  : -5104.0736495 Eh     change    :  -0.4841027E-04 Eh
   gradient norm :     0.0018455 Eh/a0  converged?    E=F G=F D=F
   time step     :     1.2500000 fs     power     :   0.4911534E-09
   step length   :     0.0397400 a0     speed     :   0.7690109E-03
 * RMSD in coord.:     0.0063343 a0     energy gain  -0.5136775E-03 Eh

........................................................................
.............................. CYCLE   68 ..............................
........................................................................

 iter      E             dE          RMSdq      gap      omega  full diag
   1  -5198.6203135 -0.519862E+04  0.164E-04    4.08       0.0  T
   2  -5198.6203135 -0.958607E-09  0.962E-05    4.08      16.7  T
   3  -5198.6203135  0.240198E-08  0.271E-05    4.08      59.5  T
     SCC iter.                  ...       10 min, 32.289 sec
     gradient                   ...        5 min,  5.827 sec
 * total energy  : -5104.0736595 Eh     change    :  -0.9972134E-05 Eh
   gradient norm :     0.0016056 Eh/a0  converged?    E=F G=F D=F
   time step     :     0.2500000 fs     power     :   0.5225034E-09
   step length   :     0.0077545 a0     speed     :   0.7502929E-03

........................................................................
.............................. CYCLE   69 ..............................
........................................................................

 iter      E             dE          RMSdq      gap      omega  full diag
   1  -5198.6203695 -0.519862E+04  0.188E-04    4.08       0.0  T
   2  -5198.6203695 -0.474483E-08  0.112E-04    4.08      14.3  T
   3  -5198.6203695  0.434557E-08  0.479E-05    4.08      33.6  T
     SCC iter.                  ...       10 min, 34.896 sec
     gradient                   ...        5 min,  6.359 sec
 * total energy  : -5104.0736693 Eh     change    :  -0.9838089E-05 Eh
   gradient norm :     0.0012850 Eh/a0  converged?    E=F G=F D=F
   time step     :     0.2500000 fs     power     :   0.5028765E-09
   step length   :     0.0076850 a0     speed     :   0.7435675E-03

........................................................................
.............................. CYCLE   70 ..............................
........................................................................

 iter      E             dE          RMSdq      gap      omega  full diag
   1  -5198.6204398 -0.519862E+04  0.189E-04    4.08       0.0  T
   2  -5198.6204398 -0.406999E-08  0.113E-04    4.08      14.2  T
   3  -5198.6204398  0.357977E-08  0.430E-05    4.08      37.4  T
     SCC iter.                  ...       10 min, 38.944 sec
     gradient                   ...        5 min,  5.113 sec
 * total energy  : -5104.0736786 Eh     change    :  -0.9267445E-05 Eh
   gradient norm :     0.0014936 Eh/a0  converged?    E=F G=F D=F
   time step     :     0.2500000 fs     power     :   0.4730363E-09
   step length   :     0.0077297 a0     speed     :   0.7478945E-03

........................................................................
.............................. CYCLE   71 ..............................
........................................................................

 iter      E             dE          RMSdq      gap      omega  full diag
   1  -5198.6205181 -0.519862E+04  0.165E-04    4.08       0.0  T
   2  -5198.6205181 -0.753062E-09  0.981E-05    4.08      16.4  T
[...]
  3613   6 C     3614   6 C                                       1.3831710
  3615   6 C     3616   6 C                                       1.5356430
  3617   6 C     3618   6 C                                       1.3893282
  3618   6 C     3619   6 C                                       1.3840352
  3619   6 C     3620   6 C                                       1.3838457
  3620   6 C     3621   6 C                                       1.3850736
  3617   6 C     3622   6 C                                       1.3908600
  3621   6 C     3622   6 C                                       1.3827412
  3616   6 C     3623   6 C                                       1.5358958
  3623   6 C     3624   6 C                                       1.5353300
  3625   6 C     3626   6 C                                       1.3900775
  3626   6 C     3627   6 C                                       1.3841181
  3627   6 C     3628   6 C                                       1.3847551
  3628   6 C     3629   6 C                                       1.3841832
  3625   6 C     3630   6 C                                       1.3908439
  3629   6 C     3630   6 C                                       1.3844373
  3624   6 C     3631   6 C                                       1.5391869
  3631   6 C     3632   6 C                                       1.5376280
  3633   6 C     3634   6 C                                       1.3910237
  3634   6 C     3635   6 C                                       1.3832781
  3635   6 C     3636   6 C                                       1.3847543
  3636   6 C     3637   6 C                                       1.3832062
  3633   6 C     3638   6 C                                       1.3891141
  3637   6 C     3638   6 C                                       1.3842127
  3641   6 C     3642   6 C                                       1.3886549
  3642   6 C     3643   6 C                                       1.3843544
  3643   6 C     3644   6 C                                       1.3829903
  3644   6 C     3645   6 C                                       1.3845741
  3641   6 C     3646   6 C                                       1.3906338
  3645   6 C     3646   6 C                                       1.3815839
  3640   6 C     3647   6 C                                       1.5318681
  3647   6 C     3648   6 C                                       1.5330760
  3649   6 C     3650   6 C                                       1.3907686
  3650   6 C     3651   6 C                                       1.3831074
  3651   6 C     3652   6 C                                       1.3848637
  3652   6 C     3653   6 C                                       1.3839206
  3649   6 C     3654   6 C                                       1.3889231
  3653   6 C     3654   6 C                                       1.3843707
  3648   6 C     3655   6 C                                       1.5392197
  3657   6 C     3658   6 C                                       1.3886888
  3658   6 C     3659   6 C                                       1.3832283
  3659   6 C     3660   6 C                                       1.3831459
  3660   6 C     3661   6 C                                       1.3842313
  3657   6 C     3662   6 C                                       1.3898276
  3661   6 C     3662   6 C                                       1.3828474
  3656   6 C     3663   6 C                                       1.5325098
  3663   6 C     3664   6 C                                       1.5323912
  3665   6 C     3666   6 C                                       1.3894259
  3666   6 C     3667   6 C                                       1.3846475
  3667   6 C     3668   6 C                                       1.3836615
  3668   6 C     3669   6 C                                       1.3845317
  3665   6 C     3670   6 C                                       1.3908475
  3669   6 C     3670   6 C                                       1.3820794
  3664   6 C     3671   6 C                                       1.5400526
  3671   6 C     3672   6 C                                       1.5361709
  3673   6 C     3674   6 C                                       1.3910413
  3674   6 C     3675   6 C                                       1.3825593
  3675   6 C     3676   6 C                                       1.3842410
  3676   6 C     3677   6 C                                       1.3828002
  3673   6 C     3678   6 C                                       1.3889227
  3677   6 C     3678   6 C                                       1.3838077
  3672   6 C     3679   6 C                                       1.5343522
  3679   6 C     3680   6 C                                       1.5361502
  3681   6 C     3682   6 C                                       1.3892031
  3682   6 C     3683   6 C                                       1.3837914
  3683   6 C     3684   6 C                                       1.3841451
  3684   6 C     3685   6 C                                       1.3839671
  3681   6 C     3686   6 C                                       1.3902709
  3685   6 C     3686   6 C                                       1.3826932
  3680   6 C     3687   6 C                                       1.5353305
  3687   6 C     3688   6 C                                       1.5342886
  3549   6 C     3689   1 H                                       1.0957143
  3551   6 C     3690   1 H                                       1.0916033
  3551   6 C     3691   1 H                                       1.0918289
  3552   6 C     3692   1 H                                       1.0956498
  3559   6 C     3693   1 H                                       1.0905273
  3559   6 C     3694   1 H                                       1.0940657
  3560   6 C     3695   1 H                                       1.0952551
  3567   6 C     3696   1 H                                       1.0902521
  3567   6 C     3697   1 H                                       1.0918328
  3568   6 C     3698   1 H                                       1.0957370
  3575   6 C     3699   1 H                                       1.0902111
  3576   6 C     3700   1 H                                       1.0944342
  3583   6 C     3701   1 H                                       1.0921138
  3583   6 C     3702   1 H                                       1.0918806
  3584   6 C     3703   1 H                                       1.0944496
  3591   6 C     3704   1 H                                       1.0900047
  3591   6 C     3705   1 H                                       1.0903134
  3592   6 C     3706   1 H                                       1.0953986
  3599   6 C     3707   1 H                                       1.0905947
  3599   6 C     3708   1 H                                       1.0925884
  3600   6 C     3709   1 H                                       1.0939619
  3608   6 C     3710   1 H                                       1.0943455
  3615   6 C     3711   1 H                                       1.0913295
  3615   6 C     3712   1 H                                       1.0914368
  3616   6 C     3713   1 H                                       1.0964323
  3623   6 C     3714   1 H                                       1.0925409
  3623   6 C     3715   1 H                                       1.0915151
  3624   6 C     3716   1 H                                       1.0928362
  3631   6 C     3717   1 H                                       1.0925176
  3631   6 C     3718   1 H                                       1.0923403
  3632   6 C     3719   1 H                                       1.0949429
  3639   6 C     3720   1 H                                       1.0921981
  3639   6 C     3721   1 H                                       1.0908451
  3640   6 C     3722   1 H                                       1.0960512
  3647   6 C     3723   1 H                                       1.0908256
  3647   6 C     3724   1 H                                       1.0910707
  3648   6 C     3725   1 H                                       1.0959003
  3655   6 C     3726   1 H                                       1.0913048
  3655   6 C     3727   1 H                                       1.0924031
  3656   6 C     3728   1 H                                       1.0960465
  3663   6 C     3729   1 H                                       1.0912808
  3663   6 C     3730   1 H                                       1.0919258
  3664   6 C     3731   1 H                                       1.0948527
  3671   6 C     3732   1 H                                       1.0927853
  3671   6 C     3733   1 H                                       1.0918604
  3672   6 C     3734   1 H                                       1.0952628
  3679   6 C     3735   1 H                                       1.0924919
  3679   6 C     3736   1 H                                       1.0905133
  3543   6 C     3737   1 H                                       1.0793599
  3548   6 C     3738   1 H                                       1.0797038
  3547   6 C     3739   1 H                                       1.0798956
  3546   6 C     3740   1 H                                       1.0806466
  3545   6 C     3741   1 H                                       1.0812005
  3554   6 C     3742   1 H                                       1.0808236
  3555   6 C     3743   1 H                                       1.0805115
  3556   6 C     3744   1 H                                       1.0801965
  3557   6 C     3745   1 H                                       1.0814973
  3558   6 C     3746   1 H                                       1.0796121
  3562   6 C     3747   1 H                                       1.0801449
  3563   6 C     3748   1 H                                       1.0804180
  3564   6 C     3749   1 H                                       1.0805545
  3565   6 C     3750   1 H                                       1.0808614
  3566   6 C     3751   1 H                                       1.0809497
  3570   6 C     3752   1 H                                       1.0811031
  3571   6 C     3753   1 H                                       1.0809995
  3572   6 C     3754   1 H                                       1.0801045
  3573   6 C     3755   1 H                                       1.0809223
  3574   6 C     3756   1 H                                       1.0796303
  3575   6 C     3757   1 H                                       1.0902998
  3578   6 C     3758   1 H                                       1.0806026
  3579   6 C     3759   1 H                                       1.0809520
  3580   6 C     3760   1 H                                       1.0805951
  3581   6 C     3761   1 H                                       1.0804497
  3582   6 C     3762   1 H                                       1.0796248
  3586   6 C     3763   1 H                                       1.0803657
  3587   6 C     3764   1 H                                       1.0807102
  3588   6 C     3765   1 H                                       1.0805798
  3589   6 C     3766   1 H                                       1.0806448
  3590   6 C     3767   1 H                                       1.0810171
  3594   6 C     3768   1 H                                       1.0806758
  3595   6 C     3769   1 H                                       1.0803961
  3596   6 C     3770   1 H                                       1.0803635
  3597   6 C     3771   1 H                                       1.0805190
  3598   6 C     3772   1 H                                       1.0810352
  3602   6 C     3773   1 H                                       1.0809783
  3603   6 C     3774   1 H                                       1.0804140
  3604   6 C     3775   1 H                                       1.0801810
  3605   6 C     3776   1 H                                       1.0805700
  3606   6 C     3777   1 H                                       1.0806243
  3607   6 C     3778   1 H                                       1.0891231
  3607   6 C     3779   1 H                                       1.0917635
  3610   6 C     3780   1 H                                       1.0808148
  3611   6 C     3781   1 H                                       1.0812623
  3612   6 C     3782   1 H                                       1.0809189
  3613   6 C     3783   1 H                                       1.0803469
  3614   6 C     3784   1 H                                       1.0791989
  3618   6 C     3785   1 H                                       1.0812350
  3619   6 C     3786   1 H                                       1.0804702
  3620   6 C     3787   1 H                                       1.0801486
  3621   6 C     3788   1 H                                       1.0806738
  3622   6 C     3789   1 H                                       1.0799793
  3626   6 C     3790   1 H                                       1.0802149
  3627   6 C     3791   1 H                                       1.0804899
  3628   6 C     3792   1 H                                       1.0800034
  3629   6 C     3793   1 H                                       1.0801959
  3630   6 C     3794   1 H                                       1.0824841
  3634   6 C     3795   1 H                                       1.0811775
  3635   6 C     3796   1 H                                       1.0806255
  3636   6 C     3797   1 H                                       1.0794727
  3637   6 C     3798   1 H                                       1.0801833
  3638   6 C     3799   1 H                                       1.0815866
  3642   6 C     3800   1 H                                       1.0816472
  3643   6 C     3801   1 H                                       1.0805104
  3644   6 C     3802   1 H                                       1.0800665
  3645   6 C     3803   1 H                                       1.0805463
  3646   6 C     3804   1 H                                       1.0800558
  3650   6 C     3805   1 H                                       1.0804701
  3651   6 C     3806   1 H                                       1.0808905
  3652   6 C     3807   1 H                                       1.0801011
  3653   6 C     3808   1 H                                       1.0809993
  3654   6 C     3809   1 H                                       1.0814457
  3658   6 C     3810   1 H                                       1.0817461
  3659   6 C     3811   1 H                                       1.0802489
  3660   6 C     3812   1 H                                       1.0799917
  3661   6 C     3813   1 H                                       1.0797088
  3662   6 C     3814   1 H                                       1.0801206
  3666   6 C     3815   1 H                                       1.0811695
  3667   6 C     3816   1 H                                       1.0813131
  3668   6 C     3817   1 H                                       1.0798033
  3669   6 C     3818   1 H                                       1.0795174
  3670   6 C     3819   1 H                                       1.0801035
  3674   6 C     3820   1 H                                       1.0808441
  3675   6 C     3821   1 H                                       1.0798684
  3676   6 C     3822   1 H                                       1.0798230
  3677   6 C     3823   1 H                                       1.0803219
  3678   6 C     3824   1 H                                       1.0815592
  3686   6 C     3825   1 H                                       1.0799565
  3685   6 C     3826   1 H                                       1.0809161
  3684   6 C     3827   1 H                                       1.0806158
  3683   6 C     3828   1 H                                       1.0807206
  3682   6 C     3829   1 H                                       1.0812154
  3550   6 C     3830   1 H                                       1.0869910
  3550   6 C     3831   1 H                                       1.0885970
  3550   6 C     3832   1 H                                       1.0881557
  3680   6 C     3833   1 H                                       1.0943915
  3687   6 C     3834   1 H                                       1.0925882
  3687   6 C     3835   1 H                                       1.0905729
  3688   6 C     3836   6 C                                       1.5361587
  3837   6 C     3838   6 C                                       1.3904481
  3838   6 C     3839   6 C                                       1.3824214
  3839   6 C     3840   6 C                                       1.3841006
  3840   6 C     3841   6 C                                       1.3835453
  3837   6 C     3842   6 C                                       1.3887778
  3841   6 C     3842   6 C                                       1.3839494
  3838   6 C     3843   1 H                                       1.0798691
  3839   6 C     3844   1 H                                       1.0792153
  3840   6 C     3845   1 H                                       1.0801584
  3841   6 C     3846   1 H                                       1.0806747
  3842   6 C     3847   1 H                                       1.0814539
  3836   6 C     3848   6 C                                       1.5355437
  3836   6 C     3849   1 H                                       1.0932913
  3836   6 C     3850   1 H                                       1.0922873
  3851   6 C     3852   6 C                                       1.3895257
  3852   6 C     3853   6 C                                       1.3832731
  3853   6 C     3854   6 C                                       1.3842411
  3854   6 C     3855   6 C                                       1.3835084
  3851   6 C     3856   6 C                                       1.3906002
  3855   6 C     3856   6 C                                       1.3835633
  3852   6 C     3857   1 H                                       1.0811319
  3853   6 C     3858   1 H                                       1.0805281
  3854   6 C     3859   1 H                                       1.0798944
  3855   6 C     3860   1 H                                       1.0807049
  3856   6 C     3861   1 H                                       1.0799871
  3688   6 C     3862   1 H                                       1.0953712
  3848   6 C     3863   1 H                                       1.0923716
  3848   6 C     3864   1 H                                       1.0896458

 * 2 distinct bonds (by element types)

   Z      Z             #   av. dist./Å        max./Å        min./Å
   1 H    6 C        1944     1.0850889     1.0983276     1.0774679
   6 C    6 C        1858     1.4194654     1.5406954     1.3807806


optimized geometry written to: xtbopt.xyz


           -------------------------------------------------
          | TOTAL ENERGY            -5104.080924271985 Eh   |
          | GRADIENT NORM               0.000912056095 Eh/α |
          | HOMO-LUMO GAP               4.061682508051 eV   |
           -------------------------------------------------

------------------------------------------------------------------------
 * finished run on 2024/10/09 at 11:19:15.370     
------------------------------------------------------------------------
 total:
 * wall-time:     4 d, 15 h, 23 min, 47.127 sec
 *  cpu-time:    29 d,  8 h, 36 min, 53.816 sec
 * ratio c/w:     6.325 speedup
 SCF:
 * wall-time:     0 d,  0 h, 48 min, 10.662 sec
 *  cpu-time:     0 d,  5 h, 46 min, 24.780 sec
 * ratio c/w:     7.190 speedup
 ANC optimizer:
 * wall-time:     4 d, 14 h, 34 min, 25.997 sec
 *  cpu-time:    29 d,  2 h, 48 min, 57.044 sec
 * ratio c/w:     6.320 speedup

