3864
 energy: -5104.080924271985 gnorm: 0.000912056095 xtb: 6.6.1 (8d0f1dd)
C           67.65178861263207       61.59448229069691       47.79893594540583
C           68.47220622205883       60.59983034485975       47.27862550055847
C           68.48140914762169       60.40359814545064       45.90256777082717
C           67.68391514338701       61.16848630117726       45.06964947098186
C           66.86894276650953       62.15220209667260       45.60176028152913
C           66.85645666948932       62.36349557976821       46.96947412178569
C           69.36728079460426       59.77836294082326       48.17175756349967
C           70.42625464076983       60.68591526588538       48.80814187630756
C           68.60186854667107       59.02508202899158       49.26853142896639
C           67.86608198049035       57.77074198268813       48.77218799276928
C           67.60974156685359       56.82169963905555       49.91637211529197
C           67.99658987965205       55.48903367742472       49.83061808716615
C           67.71570439372664       54.59974983689104       50.85227681862542
C           67.07410919456952       55.03817146688345       51.99777850869371
C           66.70809301951297       56.36822495203723       52.10487648501985
C           66.96388997572996       57.24906517539847       51.07003468559209
C           66.53565288000758       58.10755116422233       48.08252003616072
C           65.88302494784837       56.87676682972328       47.43269325323509
C           66.81546018733020       56.27794648399788       46.41170292165050
C           67.29378972585158       57.03033295913740       45.34544397267111
C           68.24705469471861       56.51000794017535       44.48834616634357
C           68.73597802263480       55.22876307352850       44.68163064635751
C           68.22881404173164       54.45189082352464       45.70954334761561
C           67.26920291331814       54.97260080069080       46.55870317871300
C           64.52660873709405       57.25427770553831       46.82466221454040
C           63.75091975889522       56.03394985791518       46.30951112195888
C           63.60309269893463       54.97559485637081       47.37552033241136
C           64.00742838394406       53.66876792069992       47.13640243313742
C           63.83345007661250       52.69059396093594       48.10080246031911
C           63.25391350133362       53.00374325496466       49.31689289754379
C           62.84408595246905       54.30222493401617       49.56487138075062
C           63.00976369877474       55.27464732989932       48.59731949682193
C           62.34188430991155       56.42038523670493       45.82187334041172
C           62.26352373990679       56.84400562769289       44.35052658290889
C           63.01242842559257       58.12429090271544       44.08632207675416
C           62.56196721746391       59.34306789754168       44.58343155240722
C           63.23529847120741       60.51562258724961       44.29698162218119
C           64.37738294243186       60.49070531797057       43.51542367645622
C           64.84507546607801       59.28294134935768       43.02890457960718
C           64.16395297233615       58.11165910370858       43.30893081303699
C           60.78754036384507       56.97322159328387       43.94179091555889
C           60.63359434015786       57.51486615776961       42.51728827604128
C           61.31367103274915       56.63251566674706       41.50304836750488
C           61.04944041887830       55.26877557393336       41.43835665941576
C           61.69245435899888       54.46499257967872       40.51488795967604
C           62.59847438810787       55.01752991454110       39.62645566699305
C           62.85334142336305       56.37677459685604       39.66508763403255
C           62.21963655808678       57.17508401332607       40.60110827664072
C           59.15460207958528       57.73834559133536       42.14893790036881
C           59.00994220507129       59.00728538047834       41.30130649122659
C           59.43068819495780       60.22805422383893       42.08549246750224
C           58.86532365152160       60.51924698767900       43.32135091786484
C           59.23227775013198       61.65320257637880       44.02183235621666
C           60.17167944294261       62.52228148315244       43.49391610019168
C           60.74187355304176       62.24526043961470       42.26414551977844
C           60.37240781934487       61.10760004256830       41.56801966090898
C           57.57881259382764       59.23578446467412       40.79704609287595
C           57.10054931722181       58.26914443690737       39.69832529795379
C           58.08368728105344       58.27369381354713       38.55413950119347
C           59.03549155636935       57.26499379185874       38.44719853223364
C           59.98544012804405       57.27883546115584       37.44153666178106
C           59.99164430532160       58.30429992504556       36.51304164110303
C           59.05209624597217       59.31690599496196       36.60820112790051
C           58.11229154069971       59.30625180548064       37.62347185252768
C           55.68500211189689       58.69765123128919       39.28594233702054
C           55.06661221969460       57.92039783128163       38.11061720631126
C           54.12754186375932       58.83112488144128       37.35633611945131
C           53.10621511724150       59.50640387941372       38.01538363031982
C           52.25766086599818       60.35350185464781       37.32560440457904
C           52.40682651684448       60.52734120604114       35.95981397592487
C           53.41417927970136       59.85362960219866       35.29169497352233
C           54.26871197145475       59.01550496194126       35.98741995636398
C           54.30776874671410       56.65223171809049       38.55101906956491
C           55.16411313113825       55.37379066822989       38.52423221761256
C           54.57500613458880       54.32425077237945       39.43428206582357
C           55.30864018481914       53.81691017231159       40.49911412712935
C           54.77728308854186       52.85531017095114       41.34082081444213
C           53.48895376099589       52.39474880264611       41.13843195358106
C           52.74067858382207       52.90247230864222       40.08848512748693
C           53.28020891250624       53.85544004694206       39.24328516842127
C           55.29638799464254       54.84633362557673       37.08812069640216
C           56.23609817846263       53.63678651486225       36.96882234315747
C           56.02214771725340       52.92312278422334       35.65669189443937
C           55.66953542667131       51.57998293570525       35.63030165797203
C           55.49633252102738       50.91349927953059       34.42803547709674
C           55.66895156150125       51.58470382632182       33.23075088649588
C           56.01434764110686       52.92602487126261       33.24378206049707
C           56.19098329729042       53.58629149260670       34.44546774254846
C           57.70840612171557       54.04885522135065       37.09915881171084
C           58.62631383441830       52.83861247060233       37.30686571574482
C           58.34665848226640       52.17774761927453       38.63253255037964
C           58.55223679052264       52.86387928371713       39.82387935374130
C           58.27981439235180       52.26655215993084       41.04068772377291
C           57.81892197201622       50.96223681640210       41.08933947054524
C           57.63676228743808       50.25851173514110       39.91264664751169
C           57.88871654134595       50.86781446523229       38.69519951979031
C           60.10434927977300       53.25787488776985       37.21927300780935
C           60.66714773390814       53.22705677493071       35.78819450733359
C           61.96567844254293       53.99126734780971       35.74888465987315
C           62.07596308959852       55.15411121621610       34.99769987761346
C           63.26700621500869       55.85698191689185       34.94604203036988
C           64.37180086245725       55.40429622542831       35.64568525457871
C           64.27202056346002       54.25245568121124       36.40712751614995
C           63.07697493126697       53.55703227523576       36.46348759441861
C           60.86310552497031       51.77457979269343       35.33131243456074
C           61.63111070291007       51.62800073803692       34.01177337868614
C           60.87611212376782       52.26745187532955       32.87431656752174
C           61.43803259712878       53.32400489631146       32.16955287299444
C           60.76335440930185       53.91052798938527       31.11344654827437
C           59.51644330944325       53.44026390756891       30.73972498215131
C           58.95165011693364       52.38043827856617       31.42828496133547
C           59.62418602307797       51.80215927319884       32.48896106701719
C           61.91352873886257       50.14509626064477       33.69960467188346
C           63.31224561996471       49.63917601870572       34.11749531880359
C           64.34668572894667       50.33096854534388       33.25768120395112
C           65.00514347086541       51.49146122726924       33.64668795543752
C           65.89663026184368       52.12042175091700       32.79405363836665
C           66.15245640015279       51.59965104896975       31.53896906611237
C           65.51026830657713       50.43916930206593       31.14195119075225
C           64.61723411050485       49.81685693171272       31.99366414103704
C           63.62821923337974       49.76894513979335       35.61140468434687
C           62.71620739281076       48.92829119323439       36.52331158442242
C           62.77049619370230       49.48302009655053       37.92663271963941
C           61.62785777265834       49.98956959868337       38.53379559123193
C           61.67472236756002       50.53201247119345       39.80600854219026
C           62.87532422574014       50.58808811149115       40.48987618931034
C           64.02246867194154       50.08839175167520       39.89633019368819
C           63.96908259232877       49.53521326484201       38.63042378467890
C           63.06152297872776       47.42667910384404       36.48242604982884
C           61.80975713362285       46.56274376899856       36.26261255332229
C           62.18359801920322       45.15204108604137       35.88718902891269
C           62.95728570102839       44.36589804742545       36.73235025135786
C           63.29342320619988       43.07073720295796       36.38332087837411
C           62.86258751183864       42.53927447335082       35.17958502943934
C           62.09661607476367       43.31490974789007       34.32704615678404
C           61.76253606362054       44.61097038086152       34.67914409267919
C           60.90608826066261       46.58073182059960       37.50430838298060
C           59.53478174683809       45.94932822511197       37.22975999634264
C           58.87430444322486       46.57498193051929       36.02280184043843
C           58.68383133546023       47.95145235414757       35.94892036393759
C           58.05855736352152       48.52711210493602       34.85933481122659
C           57.60899068674900       47.73296944252318       33.81783361233678
C           57.78822182836826       46.36235898751963       33.87961539506067
C           58.41369242997957       45.78989954680983       34.97485922794750
C           58.55411428024451       46.10065773126749       38.40821541655001
C           59.09971156434317       45.80204104350011       39.81264589381755
H           69.88910655750952       59.03939980361199       47.55296496148294
H           69.33334298237754       58.71091578723917       50.01627847798952
H           67.89806123399224       59.69951336096457       49.75766721515677
H           68.51018545174038       57.26498569094189       48.04420914110433
H           65.84847618145992       58.52143373944018       48.82361785051162
H           66.70788187125454       58.87055829879463       47.32346077353517
H           65.70787491754741       56.13105581070621       48.21730803721323
H           63.93554435318399       57.76491953492307       47.58837662930594
H           64.67612001537516       57.95626722776012       46.00362373909566
H           64.30980020164361       55.59898975604932       45.47347079188795
H           61.95005445703266       57.22319998858040       46.44789071819584
H           62.71678895785791       56.05324136156398       43.74148776089190
H           60.30446827436625       55.99859927415471       44.03807302489439
H           60.27689609921628       57.65169063355748       44.62812747524740
H           61.12743363165732       58.49177150560821       42.49627641527528
H           58.77631735430595       56.87748913559183       41.59580851560349
H           58.55839535894750       57.82957412546516       43.05898847524762
H           59.67015069607223       58.91115520046944       40.43254471151685
H           56.89444550421965       59.17498372055764       41.64580963329293
H           57.51635871281660       60.25329394240249       40.40223259933725
H           57.05754953296747       57.25768278309868       40.11577721215456
H           55.87241041622114       57.63127707203614       37.42905446638831
H           53.91227043375230       56.79961032894320       39.55838485147385
H           53.44894719038196       56.50938011243741       37.89077365845524
H           56.16034405634571       55.62284970164426       38.89790885477919
H           54.30694332336010       54.55360435663214       36.72819477596521
H           55.65606806782838       55.65144337273204       36.44496041054695
H           55.99658832417613       52.94182137128564       37.78239685034458
H           58.01914976354350       54.58378823781132       36.19956217639999
H           57.82519573261471       54.73253372604250       37.93935698501038
H           58.41117037046590       52.11525644227871       36.51461188841523
H           60.21268727908171       54.26601502224501       37.62454500207452
H           60.70694465906853       52.59439008730117       37.84353068196276
H           59.95895795320275       53.71738165110912       35.11152275551790
H           61.40239535911571       51.24461260546351       36.11238356742138
H           59.88560431463279       51.30147133662764       35.22245179319326
H           62.58644944750922       52.15079936197647       34.10246561805091
H           61.14494274203986       49.52002191413114       34.15900675718846
H           61.83673033796527       49.99700312500684       32.61928784078227
H           63.33579220801322       48.57225466401415       33.86171063868625
H           64.66768968195943       49.46957550586332       35.76604402474820
H           63.54502291289745       50.81299956067444       35.90960861071233
H           61.69140143280416       49.04427340449615       36.16182859470531
H           63.76072868203904       47.23096155261471       35.66656285511703
H           63.55094556675381       47.13227459283954       37.41269491271353
H           61.25358777184364       46.99194715267428       35.42119280990344
H           61.40619019743207       46.03936119033754       38.30795195849209
H           60.77484716414824       47.60827997329381       37.83998413979239
H           67.62784818871738       61.77372189053018       48.86390288254693
H           66.22332056621009       63.12921483387202       47.39382701356880
H           66.25034246545346       62.75708579398074       44.95575003329808
H           67.70218501971421       60.99758818377362       44.00293878802027
H           69.11870601421623       59.63825901448567       45.48157228785476
H           68.52054273276467       55.15013631120683       48.94812289229439
H           67.99294857958209       53.55920098028648       50.75799595288547
H           66.86345087984675       54.34298623464640       52.79703195095154
H           66.22542214977352       56.73126470687944       52.99880386455701
H           66.66256234265860       58.28088743871172       51.17395021737929
H           66.93070268497343       58.03573928576821       45.18884358758557
H           68.61924677987830       57.11159343365240       43.67084935161793
H           69.50147661377106       54.83288377069714       44.02923919734025
H           68.58467820959322       53.44110440617250       45.84939185338649
H           66.86705615258943       54.36597478950846       47.35810025185236
H           64.45566440299504       53.41654551051587       46.18421786275184
H           64.15606503692456       51.67800036797652       47.90800767390158
H           63.11749249913233       52.24019718315137       50.06716628832414
H           62.38379294257047       54.55789669385895       50.50842948253960
H           62.66836029082359       56.27714402478517       48.80002424295746
H           61.68295745656298       55.55674749268125       45.95087051549373
H           61.66710193390202       59.38388390735486       45.18665198076829
H           62.85831384313770       61.45489373641832       44.67421683977575
H           64.89651436555734       61.40778923172264       43.28150358585231
H           65.73693579916183       59.25163930514630       42.41967732346002
H           64.52976677106602       57.17452986023650       42.91321246939356
H           60.33734192556853       54.82859343008373       42.12276309318682
H           61.49157088125121       53.40387184737845       40.48009217608361
H           63.09967642547466       54.39136125570861       38.90568747063242
H           63.55171912329249       56.81309521047630       38.96557942000968
H           62.43542828027935       58.23366258394562       40.64122259797639
H           58.12926460654578       59.85292135312975       43.74574464797060
H           58.78795915605593       61.86185279138116       44.98555496644224
H           60.45392200684956       63.41152561297475       44.03897732611679
H           61.47778020210212       62.91595033514177       41.84432019170745
H           60.82019954613416       60.89843557393073       40.60604324868686
H           59.05110338377214       56.46453985946587       39.17433244661774
H           60.72815929000453       56.49596423620569       37.38534733950615
H           60.73002676720950       58.31545906300629       35.72509894779695
H           59.05429558249205       60.12525545984945       35.89104383731417
H           57.39580859772774       60.11130988930388       37.68838723794407
H           55.03202035479202       58.60962270167117       40.15591371738470
H           55.70838293918774       59.75875411502968       39.02599927621742
H           52.97406484589459       59.37460619611892       39.07865109816393
H           51.47703447882346       60.87919797565135       37.85447627690890
H           51.73828799509784       61.18270257828058       35.42174051152547
H           53.53939448665356       59.98335983553723       34.22636193126232
H           55.06016039246222       58.50074433462068       35.46008096125013
H           56.31099943508505       54.17665815451377       40.67574759360689
H           55.36635654870468       52.47510497383251       42.16139944881991
H           53.07420496604534       51.64938229925092       41.80212384298212
H           51.72625224568765       52.55952552352739       39.92999115540517
H           52.68769337201146       54.24799515203178       38.43177140025440
H           55.52462981247655       51.04712680077157       36.55979017918705
H           55.22159287522884       49.86912673647343       34.43580342872111
H           55.52699643385733       51.06861060278120       32.29249531279100
H           56.14677951070410       53.46187333029124       32.31542385823688
H           56.46056072159188       54.63242098635736       34.43684672555536
H           58.93175802960127       53.87529336650486       39.79774536240977
H           58.41644188192241       52.81803479856783       41.95863010035725
H           57.60309371068703       50.49959947641446       42.04074711051722
H           57.29577256658044       49.23354077034835       39.94674410330007
H           57.71620837493714       50.31999113063271       37.77871168177952
H           61.21919850919030       55.50767906190602       34.44121527224354
H           63.33498767566364       56.75781597732148       34.35311587095808
H           65.30501146353338       55.94640577472513       35.60044098758676
H           65.12810376033522       53.89519961137827       36.96283797086949
H           63.01092615621928       52.66665193820432       37.07379298339327
H           62.41698140738139       53.68712564040023       32.45046542489364
H           61.21507240313289       54.73260177193998       30.57695129078537
H           58.99073931520677       53.89298370218773       29.91143167282231
H           57.98511336653462       51.99787825401562       31.13537707943491
H           59.17227891672718       50.97194983992290       33.01204761708880
H           64.83742661250719       51.92232244379767       34.62196557679599
H           66.39196936977041       53.02508111572850       33.11680617136993
H           66.84876992096669       52.09120232723762       30.87565673490218
H           65.70585641829024       50.01866118863748       30.16616054150118
H           64.11910977362683       48.91169631386403       31.67367238496164
H           60.68023835499051       49.97042595319512       38.01215045998274
H           60.76632476676730       50.91383744198413       40.25039701110365
H           62.92494028281655       51.01985838430375       41.47732195800841
H           64.96250177058781       50.13789947725969       40.42700860441880
H           64.86924912709664       49.14277663255227       38.18055814277403
H           63.30076105361011       44.77260299471530       37.67069159003618
H           63.89613110396011       42.47276962445419       37.05228268579246
H           63.12461644256091       41.52754069178321       34.90659980828497
H           61.75913940800497       42.90990202709151       33.38381593993986
H           61.16337668792735       45.21139466810314       34.00833018959175
H           58.54995015019320       44.71806664637933       35.01499464648531
H           57.43911760926630       45.73438740710538       33.07245772067682
H           57.12157470279205       48.18258409462719       32.96531684422122
H           57.90900817789816       49.59747017679766       34.82293605124066
H           59.02970737657438       48.58272214490518       36.75441018457339
H           70.95582905000451       61.24604821116607       48.04041350061618
H           69.96462536261028       61.39533457421099       49.49091561660881
H           71.14902641018809       60.08996967188856       49.36235021175045
H           59.68604054832135       44.88432852365740       37.02293073812054
H           58.19991722945398       47.13513744635821       38.42277285545646
H           57.68907069095642       45.46322636367638       38.20837147953678
C           59.62855329527182       44.37224770168983       39.97761988806379
C           58.00674660111517       46.10119712449972       40.81298226185132
C           56.83551210504395       45.35228157858267       40.84687938371135
C           55.82934349754743       45.64401183356597       41.75040600617959
C           55.97557801580983       46.69458236980407       42.64006998150332
C           57.13147495389247       47.45563752097817       42.60913268615677
C           58.13403690747240       47.16245532421422       41.70072075130438
H           56.70078294671038       44.53343398492932       40.15471190842432
H           54.92506821451437       45.05196351002702       41.75944985751588
H           55.19179402343363       46.92417470770354       43.34621723606857
H           57.25196010283859       48.28099043035773       43.29740633046899
H           59.02714376556569       47.77107516255415       41.67299606245189
C           60.46817120198283       44.22944200430137       41.25719156282261
H           58.79770996403202       43.66623807229239       40.01744603668141
H           60.25012767782343       44.10989478085794       39.12015188192400
C           61.71714824449944       45.05704046293444       41.16103963791718
C           62.78842301498488       44.62000168773058       40.39061229612072
C           63.90605157904956       45.41734920658611       40.21719163973464
C           63.96581825104792       46.66962496819572       40.80541147129313
C           62.91537078762561       47.10618545837323       41.59293854561231
C           61.80342694580032       46.30128804658706       41.77349063134736
H           62.74042041234784       43.64590299130769       39.92322707988919
H           64.74081746221133       45.06720408747954       39.62772706450951
H           64.83396551977043       47.29122350433878       40.65266981395235
H           62.95697238719267       48.08178360330434       42.05718408340707
H           60.98788216329190       46.63911847345773       42.39715550032079
H           59.92783917095569       46.49282345272596       39.99921686135185
H           59.87213625754282       44.54473647817813       42.11517950895527
H           60.72706197603268       43.17630975437747       41.39130377770654
C           57.80172142880291       46.63621841946242       65.79192099535032
C           56.48078207473938       46.38447402972267       66.14106347486366
C           55.54217966456368       47.39120892302430       65.94633710533240
C           55.91310099478657       48.61128307592339       65.40928984121372
C           57.23173859794939       48.84698159475659       65.05847868247696
C           58.17615752831875       47.85492686326014       65.25466224933642
C           56.09764908138514       45.05486188195801       66.74120473609953
C           55.57911800086625       45.24799768430681       68.16902179555973
C           55.05262892027989       44.32338366335349       65.88751971783915
C           55.53062023591537       44.06108392175931       64.45159382704095
C           56.85054964267871       43.33011559431836       64.44547890010443
C           57.96638598358799       43.89380236512608       63.84085763679522
C           59.18493084954834       43.23877481323517       63.85419689753346
C           59.30615089146361       42.00209657013012       64.46165902091579
C           58.19654295041183       41.42260073548418       65.05163919434891
C           56.98136503607534       42.08186083895855       65.04295290483554
C           54.50621152525935       43.24306305009990       63.64847751859812
C           53.20009809769336       43.99376799219701       63.33555403503998
C           52.18203487724039       42.98426761965988       62.86186351027521
C           52.26572754055702       42.42323853892326       61.59278446933131
C           51.33283428388783       41.49915319610160       61.16143758990019
C           50.31316906885749       41.09329888238354       62.00508662407489
C           50.22783516988967       41.62817394560340       63.27834413905526
C           51.15195710070141       42.57028610740595       63.69793016186527
C           53.41634292537099       45.12641044904727       62.31358449911651
C           52.96440252823173       46.51658818161393       62.79837398086126
C           53.48542525760667       47.52249356203329       61.79858968961171
C           54.66420390402697       48.21104943616474       62.06208170332859
C           55.20838882460564       49.08169203373650       61.13391679088166
C           54.57572054172581       49.28627969574342       59.92061440357306
C           53.40655123764143       48.60191547325613       59.64522794970168
C           52.87508494797303       47.71904328567467       60.56554630221094
C           51.44237402402880       46.52922544074600       62.97695036247726
C           50.89107493337956       47.58587417023620       63.94888986931370
C           49.43247484433269       47.23473103558258       64.13561946171154
C           49.09119859046929       46.26664136075575       65.07457407038991
C           47.78917407660032       45.82186162091277       65.20478755833830
C           46.79128555796702       46.35990699775322       64.41007286104114
C           47.11340866181329       47.34470359206686       63.49529776079636
C           48.42275170698700       47.76363858019024       63.34266773990158
C           51.13424822558215       49.01460191010955       63.45651259668429
C           50.47281888280815       50.05273316291628       64.37463720849686
C           51.13534345083774       50.09401330245636       65.72699325281921
C           52.46204404787336       50.48228611825851       65.86946609529929
C           53.05822125478361       50.52465773517192       67.11614625514251
C           52.33460662798648       50.18032767532826       68.24469771057083
C           51.01260573969262       49.79169769580202       68.11649745266003
C           50.42045994722665       49.74820855285471       66.86663457722074
C           50.44781501065498       51.44917843399119       63.73575249079392
C           49.39067175667970       52.32052449230348       64.41817608395515
C           48.00883014309142       51.73152202318457       64.26380684653761
C           47.50369758330728       51.41540605147503       63.00763232673420
C           46.21732905756400       50.93513613523837       62.86060997813741
C           45.40857077663802       50.77728508386674       63.97179619500427
C           45.89532882686851       51.08740758164459       65.22868537632425
C           47.18881087081828       51.55632639999191       65.37030773824681
C           49.31222783787428       53.75690229138035       63.87861641225708
C           50.62476302338347       54.55407717016367       63.84196081480553
C           51.49494753752498       54.34415677299541       65.05291021525484
C           50.98156705857998       54.43595830087003       66.34091984215686
C           51.79466125250128       54.23839302809344       67.44173404972513