3258
 energy: -3427.506466052412 gnorm: 0.000827217610 xtb: 6.6.1 (8d0f1dd)
C          118.17813197112271      102.02616310484126       97.94316158144423
C          116.94729126866332      101.13660654079165       98.05899282165507
C          116.41350502951235      101.08154454702503       99.48769012655433
C          115.19668595191970      100.16865400912525       99.61170487019922
C          114.65742978632623      100.11449178146036      101.03834415508857
C          113.47500751335050       99.15842641130442      101.17432623329053
C          112.92453801447242       99.12683402178999      102.59752809421104
C          111.78828189271827       98.12064276428634      102.76455451896632
C          111.20849543394215       98.14753519185591      104.17657048855280
C          110.13715471839593       97.08178713879431      104.39658797050494
C          109.49720751453029       97.19461977728466      105.77914573689351
C          108.54187598164627       96.03954489870648      106.07282766161333
C          107.76942479497704       96.20043967399023      107.38430269915595
C          108.65274992473910       96.13641519600141      108.62855812894377
C          107.84826508717207       96.25556596467064      109.92204275597979
C          108.74702037913455       96.19164948191083      111.15484904658206
C          108.00067064803426       96.39868906493967      112.47456217506578
C          107.65520029829995       97.85958683829814      112.75785744087082
C          106.86445393844822       98.04452010574673      114.05522719974276
C          107.72387111974216       97.88615902117110      115.30698807216510
C          106.91057177050597       97.82226352435204      116.60021376474266
C          106.12812155305873       99.08896882261428      116.95239411897505
C          107.01734197104804      100.32356685551289      117.08660552969749
C          106.33451715266267      101.46784485834830      117.83300420026052
C          107.19248098788567      102.73610714827986      117.86255197186730
C          107.10243295864971      103.52573243056483      116.55857594884823
C          108.13199019378766      104.64979036639230      116.44215857387383
C          109.52891587314120      104.16558825638585      116.05604594408376
C          110.47927310085213      105.34693394325693      115.87593475690326
C          111.93945612827170      104.96838579697946      115.62996739810986
C          112.22223782961358      104.33042035541553      114.27145678690901
C          113.72046488761671      104.09981468285174      114.07935842947752
C          114.07413344762053      103.51964264112009      112.71180904705791
C          115.58514997232989      103.47680805638704      112.49074137640065
C          115.96667555771712      102.93770562048586      111.11422343010460
C          117.46199872110877      103.07825895323016      110.83244067416318
C          117.82481235631877      102.57453750113933      109.43589517378641
C          119.31792508011472      102.70362947498083      109.09527437179153
C          120.08784184194997      101.38193966737546      109.15192940185608
C          120.25795815322678      100.82871644905873      110.56221016664492
C          120.95111700962612       99.46853220854825      110.58637365619609
C          121.21289365857223       99.00537139340801      112.01806637417781
C          121.91839103230006       97.65327039377257      112.08079651662598
C          122.06669254190021       97.11947908064501      113.50689086558468
C          123.08888708580254       97.87691992802677      114.35344741290497
C          123.18862959096478       97.28012296286178      115.75531948721488
C          124.19031993157107       97.98315574735295      116.67241458202740
C          125.63957168106859       97.85282580405708      116.19904341123808
C          126.66576972643240       98.01379679376005      117.32323123501703
C          126.62789132684516       99.37150325451529      118.02326857617564
C          127.76212404454112       99.50293528544513      119.03834709242997
C          127.64970564446647      100.72922216348118      119.94547135584224
C          127.78393279746182      102.06720735713931      119.21814533636255
C          127.90637404877714      103.21885342652203      120.21624709520920
C          128.13709195179575      104.58903058476416      119.57456453099475
C          126.90363889714138      105.14749069399588      118.86937384511884
C          127.12321569028992      106.57367355340224      118.36736061874058
C          125.86025566585620      107.20157473165349      117.77367637566347
C          125.42794711550800      106.60967062545652      116.43122967822205
C          126.30110611619598      107.05391522881295      115.26110514999637
C          125.81502193739044      106.45830398173536      113.94195732786342
C          126.64917352825310      106.92242970362489      112.75134678537609
C          126.14789765058606      106.33766746773155      111.43341099982135
C          127.00894438702593      106.77243644286395      110.25086676610707
C          126.46338474275916      106.27862116827403      108.91294760642093
C          127.34906110865231      106.71455155293273      107.74867725197720
C          126.72414183628776      106.42716043594920      106.38578959842850
C          127.57650116369936      106.97121696615670      105.23970358106821
C          126.83549336294840      106.93044970498458      103.90486089739913
C          127.72013383029581      107.28109538316482      102.70686687952113
C          128.25326116612780      108.71609931801414      102.69376798835121
C          127.16815704596159      109.76269548326783      102.45412954026183
C          127.72214690370622      111.18574292708557      102.47268957164852
C          126.62650722431330      112.22716681195243      102.24829208535888
C          127.10629194706658      113.64364575972397      102.55979500187776
C          126.12829821001267      114.73424477886481      102.11409378923376
C          124.70310970369461      114.58209623492252      102.64677350326920
C          124.58037132152539      114.67875348692532      104.16597175823100
C          123.15598624332863      114.35462304787146      104.60737347226708
C          122.94850565245042      114.43804416611511      106.11660323129964
C          121.58209729922713      113.89045650604518      106.52513020007422
C          121.41998907332025      113.78649836847288      108.03793018552516
C          120.03945529790120      113.28225274958348      108.44850740317379
C          119.86936351109470      113.29229843558579      109.96493049415760
C          118.51426879868703      112.74751083872115      110.40624200541716
C          118.41211428089723      112.63426097367967      111.92673966403491
C          117.21182757071482      111.80054343158821      112.38642594331773
C          115.96566887997676      112.60647089452611      112.73796779675386
C          114.77553062167193      111.66918304483224      112.92634752839126
C          113.53630752913136      112.33811960772604      113.51364522520407
C          112.31233892442236      111.43722718580807      113.37602975995829
C          111.01235346711319      112.09419164424946      113.83383860561378
C          109.81014380707136      111.22867925982962      113.46486461333350
C          108.47216177506671      111.82452323627368      113.89218566227038
C          107.30949620960091      110.96007461883323      113.41395754161414
C          105.95135152500349      111.45760858801721      113.89555535308006
C          104.81778761609505      110.61189064462803      113.31824596896938
C          103.45791013206657      110.88937160713530      113.95756543764607
C          102.96322272490707      112.32965464576651      113.81580278981572
C          102.57044680290848      112.73416759972730      112.39366151255180
C          101.24103289064895      112.12305416384611      111.95333024520161
C          100.66158901892985      112.76663053586911      110.69310926552733
C          101.44542507305836      112.43937493062701      109.42468924168105
C          100.81906095196089      113.09450172253993      108.19738166691846
C          101.46167773754186      112.67433139097852      106.87443189052246
C          102.93860251505492      113.03954151172090      106.72420014321627
C          103.19739107138633      114.54248824369105      106.69139991065590
C          104.68132822589516      114.86664739156407      106.53866499893145
C          104.92354224994858      116.36951096956128      106.43319975507134
C          106.40686639503829      116.72691325756844      106.42019844374155
C          106.62277042535460      118.22976118579443      106.27934142214713
C          108.09042220738463      118.63422920072513      106.38974608872202
C          108.25485856834212      120.13940665659337      106.21188617157436
C          109.69215807370374      120.62516157208091      106.35840691252778
C          109.77032580747354      122.13577291101308      106.15725740393212
C          111.19302091255243      122.67816106670446      106.24803242966306
C          111.24176972855926      124.20391089307016      106.16928416134827
C          110.97446559435410      124.75365227685677      104.77066631042779
C          110.92460141609436      126.27915754545039      104.76817517471029
C          110.76221837432774      126.85105563263927      103.36549726540905
H          110.09124314508124      126.61164820140783      105.39306764536161
H          111.84359633047811      126.66772058819321      105.21131142450243
H          111.76495396676246      124.41506187234718      104.09677010192085
H          110.02683707183409      124.36813583481148      104.39002712281457
H          110.50910623529954      124.62230468052513      106.86498585968413
H          112.22818606393895      124.54644638904691      106.49156802557958
H          111.62847220232591      122.36077239040793      107.19813312065203
H          111.80084011303943      122.25192973258872      105.44629534931086
H          109.34417836929227      122.38230292476854      105.18173687611234
H          109.15516623739299      122.62666127777001      106.91660964967581
H          110.06969187801674      120.36518558304110      107.34999442355830
H          110.32427020030460      120.12411390773738      105.62337342419443
H          107.88693616604219      120.42425561597722      105.22320264927073
H          107.63409250504914      120.65422619113531      106.95061084214770
H          108.48028550724409      118.33830027071166      107.36646047839947
H          108.67216376703215      118.10825169034477      105.63148023027826
H          106.23146300826414      118.55888713407488      105.31287009412718
H          106.05077035528664      118.74652093194007      107.05597898499622
H          106.86622329205971      116.38559346385695      107.35105067119397
H          106.90246853630953      116.20817721975931      105.59755353470824
H          104.45203431479095      116.74707986767400      105.52148088530221
H          104.44551219555957      116.86976196962431      107.28018355264625
H          105.22380078337321      114.47249075258402      107.40270924586038
H          105.07411931075738      114.37412999416546      105.64638116723178
H          102.64228622103002      114.98611767877738      105.86003076421321
H          102.83474722916417      114.99963768051248      107.61436145261743
H          103.51055940895263      112.59181369405647      107.53944023058783
H          103.30218923961796      112.60676830719635      105.78854683249043
H          101.35827946007738      111.59062699518934      106.76786508591120
H          100.90285506991246      113.13704780929001      106.05587808572986
H           99.76195332830352      112.81659191142775      108.16178427335565
H          100.86576107693396      114.18004217397127      108.30615969308703
H          102.47425139448575      112.78099653210495      109.53834978025262
H          101.45842614076216      111.35713160995165      109.28213655190820
H           99.63066166333439      112.42238536411872      110.56638696967231
H          100.62653579886090      113.85158236821748      110.82998355441345
H          101.36085917273785      111.05054331535911      111.78409026669206
H          100.51899231142831      112.25122855613820      112.76575045857582
H          102.47782800395042      113.82371010392256      112.35601041929921
H          103.36143094561744      112.45195938595576      111.69833424292072
H          102.09253059487287      112.46185761823649      114.46421097948702
H          103.73619454193556      113.00932391057269      114.17941963874640
H          102.71911470129487      110.21005342789974      113.52605045686342
H          103.52817170886343      110.65584422036569      115.02307306196938
H          104.76340848331961      110.77077881535946      112.24032883712064
H          105.05496664947887      109.55623788161668      113.47696434008500
H          105.91289024910034      111.42027062701584      114.98748867740348
H          105.83102233259662      112.50069592197603      113.59467109736377
H          107.30707412928737      110.94238136449549      112.32308297006082
H          107.45919898733042      109.93445424348288      113.75763479452904
H          108.44090707860805      111.90924311130019      114.98050092448078
H          108.36966808333142      112.83424968634823      113.48499631410050
H          109.80261832627320      111.08054424332298      112.38130383058324
H          109.92405393022960      110.24481186817547      113.92698558190649
H          111.03866453815588      112.25481973899367      114.91531405621564
H          110.91306977120504      113.07354048181055      113.35811646903680
H          112.20560924329020      111.15572379650287      112.32475970910411
H          112.47256023289212      110.51788674318017      113.94609778956621
H          113.70746691008344      112.57787226698461      114.56530542555649
H          113.34652970420765      113.27404743717550      112.98683688135338
H          114.51863719964976      111.25066637240850      111.95049343989648
H          115.07370752477279      110.84126166208291      113.57558623730348
H          116.14295942035550      113.17512334957941      113.65333976237503
H          115.74638472883449      113.31838020181378      111.93950187560615
H          116.95586447092316      111.08438611079190      111.60178055714734
H          117.48845623644112      111.22517782261716      113.26962398520324
H          119.32911330739476      112.16551712367230      112.29392392654809
H          118.36507568901261      113.63094721708049      112.36992560551604
H          117.71768278485590      113.38684175504972      110.02196359166369
H          118.38114944533064      111.75582708067914      109.96517153233948
H          120.66006873961172      112.68279740816496      110.41308162873504
H          119.99586371984199      114.31196501287174      110.33879356116009
H          119.27039190413342      113.90963057426360      107.99219613721283
H          119.89883447013236      112.26565207305084      108.07443190453395
H          122.17996922334558      113.10689629073703      108.43162031146231
H          121.59060231846119      114.76528373811509      108.49086686678314
H          120.80066589494264      114.53858242923430      106.11769285366545
H          121.45044670078312      112.89827775869637      106.08668131916188
H          123.73034642528580      113.86644216652635      106.62183044972060
H          123.04762936153351      115.47596813335852      106.44371606100005
H          122.46114164998771      115.03634233713288      104.10903692056358
H          122.91864072542901      113.34070790345042      104.27498825531922
H          125.26533723434038      113.97324121285908      104.63957664795078
H          124.85495746635968      115.68398278497402      104.49528046523113
H          124.08333051857508      115.36490736465718      102.20033851783106
H          124.29550368159008      113.62444922609701      102.31653564984026
H          126.52461341872153      115.70503108223022      102.42392039382771
H          126.08690838807905      114.73383506440868      101.02145546144338
H          127.29453983974683      113.72912745041393      103.63219431383393
H          128.05940742707034      113.81591434401166      102.05163040834844
H          126.28503818898021      112.17477140162090      101.21199507618806
H          125.77889535869060      111.98557295343299      102.89206000677899
H          128.20323079543658      111.37007115593650      103.43742917994285
H          128.49243721362328      111.29128964463007      101.70414941853724
H          126.69230006267158      109.57477890378004      101.48871766932187
H          126.40023025796883      109.67437908922975      103.22423361519425
H          128.76003334379814      108.92858711926259      103.63691608102518
H          129.00149003467297      108.79923242883960      101.90025878926154
H          128.57094928707482      106.59417102890662      102.69244830928912
H          127.14918089010918      107.11226072760341      101.78983255019294
H          126.44406934172879      105.92231242151423      103.75355342310500
H          125.98085822299133      107.60806222956914      103.94441609914951
H          127.85915709209515      108.00111190727881      105.46662286557732
H          128.49890510540411      106.38890076777299      105.16396253362771
H          126.58949753577721      105.35043669099348      106.26157948846681
H          125.73359346255218      106.88691768486025      106.34508652305239
H          127.52604237614186      107.78936820449415      107.83464721373990
H          128.32067935483693      106.21768021773686      107.81897084285512
H          126.38285635794077      105.18900184861748      108.92767243652423
H          125.45869609226776      106.68123902308884      108.76710064980580
H          127.06078317034128      107.86416771619906      110.23140148981119
H          128.02811000776623      106.39931741330597      110.38786330353132
H          126.14560677442084      105.24652869079711      111.49934394871758
H          125.11794803506380      106.66063153496614      111.26765616676612
H          126.61982054524168      108.01380623212691      112.69115714835398
H          127.69238832495301      106.63090153721099      112.90413355365180
H          125.85495422069992      105.36889830917924      114.00608322836305
H          124.77159654369100      106.73901732346049      113.78141790597381
H          126.28427716869284      108.14569204998837      115.19627750901560
H          127.33767594596449      106.75355289003222      115.42991936474755
H          125.42986454895623      105.52190340161265      116.49091463904787
H          124.40110404247979      106.91949934696062      116.22390164314972
H          125.04858719957340      107.08053845930148      118.49620364872730
H          126.02503530548996      108.27521308473646      117.64716414837177
H          127.45230583525984      107.19125761509150      119.20808876592534
H          127.92619916330175      106.58060400800261      117.62753288081730
H          126.64684886780130      104.50043351532359      118.03083183610295
H          126.06307070281498      105.14478586533585      119.56831224230599
H          128.43657136699599      105.29077346319178      120.35862389789662
H          128.96557839502418      104.52275887075218      118.86437411214604
H          127.00358353947396      103.25832047088285      120.82947737424672
H          128.74632251525622      103.00638016246195      120.88406423857961
H          128.67317270617167      102.04584978851202      118.58244030316334
H          126.91550713272770      102.22303507468452      118.57817582844282
H          126.69261345461469      100.70038383001631      120.47036879511353
H          128.43792881531311      100.66422676112377      120.70120725914035
H          127.76734225142165       98.61080995307691      119.67124219523015
H          128.71824704921164       99.53146248597800      118.50884307276428
H          126.71174690865456      100.16537641863546      117.27954064070767
H          125.67258800260433       99.48788636678979      118.53898460306945
H          126.50432866394603       97.22794962928988      118.06672497381147
H          127.66506080992029       97.86335133420243      116.90438869347422
H          125.77956222300286       96.86160984716761      115.75878141947683
H          125.84229725572465       98.58797961047027      115.41767650914299
H          123.92141189446113       99.03721111142869      116.75741109434641
H          124.10426440822748       97.53772741381285      117.66702867514086
H          122.20226535136835       97.32947115829100      116.22040011264032
H          123.46233136749198       96.22385808833285      115.67472329549378
H          124.06272820773887       97.82965361641973      113.86194300894181
H          122.79838965946475       98.92576471030448      114.43404018807854
H          121.09396378673128       97.15473907936418      114.00244893535606
H          122.37009614397772       96.06961173111814      113.45795735715748
H          121.34101616651243       96.92994354587415      111.49763539319804
H          122.90563575131704       97.73296730141421      111.61805811651823
H          121.81994606390747       99.75598073516161      112.52719496795270
H          120.25894716388092       98.93292508089415      112.54651786188573
H          120.32850382743084       98.73240788489386      110.07157037431772
H          121.89819481791530       99.53065806510494      110.04322362799319
H          120.84983305155401      101.53500144566610      111.14881177063077
H          119.28283613636138      100.73164628486506      111.04065593187909
H          119.56927454598727      100.64348608314708      108.53566445706304
H          121.07975630347291      101.52866969479804      108.71279529817676
H          119.41987031283564      103.10324919428224      108.08316517529744
H          119.78426371863682      103.42173063887282      109.77232427162220
H          117.51648456938032      101.53050409061473      109.33802278807235
H          117.24039961253334      103.14707079956197      108.71117147016368
H          117.74091109828267      104.13226576580944      110.91195822072081
H          118.03009164325745      102.53384370604176      111.58966290317510
H          115.67869212761900      101.88549811750768      111.04047739993835
H          115.41088851523861      103.48582855507198      110.34966395505998
H          115.98074449166468      104.49037528405550      112.59184020018856
H          116.05062218187823      102.86038059069433      113.26464696722694
H          113.65691255950357      102.51407789699007      112.62186434096851
H          113.61804300742870      104.13061908733033      111.92989789662585
H          114.24254972809075      105.05285012529515      114.20371653108255
H          114.08423048137517      103.42989706168345      114.86276501815050
H          111.69332363435016      103.38012493283850      114.18076256084430
H          111.85228066500201      104.98817465860962      113.48046646263184
H          112.54194428704470      105.87831277839420      115.70877946323327
H          112.27285247987463      104.29561903131716      116.42215066421089
H          110.12287923929138      105.97119619402098      115.05211337935457
H          110.43902541453527      105.95002638641682      116.78588403290792
H          109.91698155789592      103.50666089091044      116.83503223586493
H          109.46620380166954      103.58919338333483      115.13015867142710
H          107.79373081653236      105.35926082691404      115.68266596821255
H          108.18642678177463      105.19130986939588      117.38980947317506
H          107.22915634143540      102.84518761151253      115.71670390166123
H          106.09883733285770      103.95421065454073      116.48797991756354
H          106.86714279417141      103.37528021520266      118.68838665710430
H          108.23012375371376      102.45644356087571      118.05468354110103
H          105.37195130158123      101.69338283615326      117.36681322986924
H          106.13642134262103      101.14225535473327      118.85694566167261
H          107.91796161917813      100.04695890171638      117.63575622714373
H          107.32271731206343      100.66480098100507      116.09637707382221
H          105.35305841290062       99.26410081053240      116.20329416541347
H          105.62279736471152       98.91619353161060      117.90700685582502
H          106.21163217846784       96.98362350358390      116.53179965735509
H          107.59459863548351       97.60112817536553      117.42467211238639
H          108.29723650457890       96.95952956393799      115.23254467756897
H          108.44069119947977       98.70809093694783      115.36162921425014
H          106.41156040746823       99.03784722787647      114.05318770118248
H          106.05248453127264       97.31308276074908      114.08614855381938
H          108.57400433777120       98.44904071734400      112.81008861785391
H          107.06250528602773       98.24767076361910      111.92750864301667
H          107.07774011032652       95.81243034227552      112.46280604551102
H          108.62315674007708       96.01516360381569      113.28653675905358
H          109.23917606033591       95.21652170116811      111.17608047530376
H          109.53028940246065       96.94825163186358      111.06794622058869
H          107.30307769112427       97.19931080139409      109.91472615588189
H          107.11315534512092       95.44837861411749      109.96954579006845
H          109.20527774481889       95.19332088629386      108.62981981451868
H          109.38350550386370       96.94636303376301      108.59554093042865
H          107.23981107451434       97.15639080861645      107.36912898535489
H          107.01595952348330       95.40962612638343      107.44445114442878
H          107.82169982871058       95.96360493615286      105.25297975132436
H          109.10676548453296       95.10399358996732      106.09952090830741
H          110.28712043579571       97.21671153994683      106.53093273445630
H          108.95221216502374       98.13955071187038      105.84548502215480
H          109.36421738742983       97.17646712574522      103.62916449734580
H          110.58777321626896       96.09171689521979      104.28657568055210
H          112.01506220099238       97.99663185090445      104.89751144087992
H          110.77905448143683       99.13479164632381      104.36623106481439
H          110.99728184797262       98.34123333260887      102.04330246811027
H          112.16049691992511       97.11629636941105      102.54371173276840
H          113.73079983053742       98.87498059326583      103.29001180669336
H          112.56404859520856      100.12428996308874      102.86238412633477
H          112.68234393156044       99.46133726371211      100.48578116914113
H          113.79071944255935       98.15187467441943      100.88505846967502
H          115.45515216793481       99.79864268878664      101.71448425896828
H          114.34707544102608      101.11778753735686      101.34183016345980
H          114.40972354532002      100.52194127838199       98.94096326411828
H          115.46963889051908       99.15941620089859       99.28950749038627
H          117.20227526253817      100.72642291769546      100.15504439331306
H          116.14152077724115      102.09121884361798       99.80647228413642
H          116.16370281335246      101.51177019716172       97.39723239799692
H          117.19818471337121      100.12540096010137       97.72641271807596
H          118.98121945664559      101.64823577416121       98.57242480408189
H          118.53392671853875      102.05962665961296       96.91552324762705
H          117.94385561076263      103.04189722129961       98.25537088657572
H          109.86451395032886      126.45885833529825      102.89196463374981
H          110.68672485815613      127.93609179301484      103.39796687252621
H          111.61758979952434      126.58936136122669      102.74503127921457
C          118.86039992058265      116.73216160854543      117.52180263782304
C          118.73930530829168      115.84611831276534      118.75371639633840
C          117.34395937034103      115.24557521839317      118.90030816522817
C          117.27658176749379      114.24290304868173      120.04757963573987
C          115.88274726930196      113.65014213502258      120.23579686898323
C          115.89634988879037      112.49665085896316      121.23463032771015
C          114.50274587117332      111.95225645337786      121.53487233045561
C          114.56996042186837      110.73700592642697      122.45590195022613
C          113.19825212123017      110.14522351503798      122.76489939970460
C          113.30795691641426      108.93201686690796      123.68481890141258
C          111.95472366165460      108.28963466637533      123.96926558608405
C          112.06878749141715      107.09330912515769      124.91062365637757
C          110.71308313800270      106.45806170567243      125.21110203995514
C          110.84273808144258      105.27198259291065      126.16365935337417
C          109.49660734458254      104.71374189492366      126.62776173479432
C          108.62854754909746      104.11349015965413      125.52123783991773
C          109.25766734733476      102.89894316627047      124.84254584067378
C          108.27983352519753      102.21250897942488      123.89147814487008
C          108.92154973577085      101.04460427030361      123.14594006234088
C          107.95067775974631      100.40566898551381      122.15563279093449
C          108.58739650306718       99.32068883143978      121.28588015247237