3258
 energy: -3427.498544639703 gnorm: 0.000915092184 xtb: 6.6.1 (8d0f1dd)
C          118.17796198897214      102.02573902308821       97.94364597057260
C          116.94690062402299      101.13620851066180       98.05921030648885
C          116.41313178915708      101.08111950064230       99.48815455194976
C          115.19606238333884      100.16805571191483       99.61154478952874
C          114.65702297958873      100.11396594012912      101.03853950136316
C          113.47429877033370       99.15780447870270      101.17405818096317
C          112.92405919674444       99.12637633355510      102.59764259061657
C          111.78746612064019       98.12007142010616      102.76422568880925
C          111.20787480307715       98.14720189367060      104.17661459406482
C          110.13625698548317       97.08125890426037      104.39635660386790
C          109.49638451844795       97.19467910878738      105.77918800790957
C          108.54099387399761       96.03931496012298      106.07301265900333
C          107.76884345823279       96.20023210378501      107.38477505786166
C          108.65282806451073       96.13617214091066      108.62890888523015
C          107.84803047357651       96.25548835933402      109.92254326025936
C          108.74738620260479       96.19172295889570      111.15534699267529
C          108.00084499407311       96.39865277732186      112.47519870224633
C          107.65532534879948       97.85985495707246      112.75832431637919
C          106.86407370976384       98.04387883389747      114.05595043728077
C          107.72419763028324       97.88599650842642      115.30765168400927
C          106.91055061195125       97.82191272440896      116.60093698168828
C          106.12755125135307       99.08868836584783      116.95239040608450
C          107.01732935196374      100.32338363350127      117.08646716374103
C          106.33409537273697      101.46768325235325      117.83324528647415
C          107.19294213278150      102.73558885335963      117.86348025857130
C          107.10259263431888      103.52514470686276      116.55909643104118
C          108.13229177407582      104.64957861328762      116.44257622713832
C          109.52928702142064      104.16461518082912      116.05609892002479
C          110.47938454522644      105.34663061282595      115.87579390942857
C          111.94003919147123      104.96826236178592      115.63031727782850
C          112.22232162211600      104.32995036128416      114.27148507540250
C          113.72103177372811      104.09978053783698      114.07980881509646
C          114.07412008666601      103.51933464089598      112.71179072982252
C          115.58558835139991      103.47663328493604      112.49103320421543
C          115.96675527218461      102.93726278797314      111.11410464079233
C          117.46238953764507      103.07851179222983      110.83238436409539
C          117.82495595423953      102.57409277966339      109.43564584320397
C          119.31853174511608      102.70332536091310      109.09530569279885
C          120.08811547388170      101.38110995043610      109.15185362033334
C          120.25832131002640      100.82783412558823      110.56246886202234
C          120.95192610154906       99.46753544282375      110.58599636713440
C          121.21348526470548       99.00485350260719      112.01813977610337
C          121.91888282336014       97.65247099455779      112.08075130213166
C          122.06698142151362       97.11928576748235      113.50709807941466
C          123.08967631199511       97.87686746934915      114.35330575536187
C          123.18922824439383       97.27964444962811      115.75523908991362
C          124.19082110408094       97.98297358112204      116.67248494552226
C          125.64011397565616       97.85305885535699      116.19880853459553
C          126.66556024661291       98.01398673333935      117.32356458410457
C          126.62766166781007       99.37202576300265      118.02310414632376
C          127.76178669344121       99.50290462656204      119.03852038558101
C          127.64913020305538      100.72886006072666      119.94585877361023
C          127.78346768396842      102.06680176058228      119.21835181180758
C          127.90545211892540      103.21824959906931      120.21686100549546
C          128.13684389025764      104.58825464967148      119.57525289581022
C          126.90342195546856      105.14657197659325      118.86952732603693
C          127.12396228163487      106.57277332062090      118.36761808467436
C          125.86150531138783      107.20212730272424      117.77432673461274
C          125.42892758568607      106.60984985498608      116.43167105582380
C          126.30257872447969      107.05410760595043      115.26159838016245
C          125.81598285741148      106.45834733506955      113.94239148346460
C          126.65019016774306      106.92290286447563      112.75164813147764
C          126.14839541695954      106.33778310588875      111.43377976589161
C          127.00937506571566      106.77341132979066      110.25118378930000
C          126.46342780206346      106.27902405312847      108.91336302994716
C          127.34958035873308      106.71494255786513      107.74912307700421
C          126.72407200053786      106.42747711089851      106.38626919133796
C          127.57659021080921      106.97149467558459      105.24002548195018
C          126.83482567563303      106.93050461810603      103.90540599508354
C          127.71971170755484      107.28154931793831      102.70750633952468
C          128.25282358283917      108.71643565656819      102.69490985221626
C          127.16754665024810      109.76287636744927      102.45475527968840
C          127.72191756142723      111.18590182672682      102.47359283054114
C          126.62584988927108      112.22698571399556      102.24867046816038
C          127.10573280927377      113.64340376801802      102.56082619899766
C          126.12833529245178      114.73413014340511      102.11438439563848
C          124.70263948841107      114.58209887677917      102.64617705917928
C          124.58084343294716      114.67901948873579      104.16571807015400
C          123.15629023517941      114.35429799553513      104.60699706749898
C          122.94913230139309      114.43827736622481      106.11658619503038
C          121.58227036148824      113.89069535672397      106.52490999488676
C          121.42045976974069      113.78715395715797      108.03818264467075
C          120.03966219767439      113.28244322841979      108.44871109050933
C          119.87015543109392      113.29268575056783      109.96559640083166
C          118.51449997243152      112.74767247747278      110.40619876087815
C          118.41254737028775      112.63463042041322      111.92707611997925
C          117.21225037592920      111.80012181806208      112.38650098838538
C          115.96577937717234      112.60647310914548      112.73782657387176
C          114.77576692824084      111.66833563989140      112.92615713674499
C          113.53643125184003      112.33792670366296      113.51357313057242
C          112.31254394456171      111.43623050086383      113.37591410328453
C          111.01268384812464      112.09430680194815      113.83380789836156
C          109.81027013354024      111.22850299554418      113.46445355251250
C          108.47232873875001      111.82519068949856      113.89223960978889
C          107.30951557294479      110.96026908737923      113.41388199236428
C          105.95139636128022      111.45871555882663      113.89583753568391
C          104.81804536464443      110.61226228885003      113.31821202592207
C          103.45785687902436      110.88964563795521      113.95772987453327
C          102.96378769707327      112.33040379959533      113.81558768618589
C          102.57088616213424      112.73453878172666      112.39313111628687
C          101.24098562915022      112.12293004639629      111.95388343621703
C          100.66106959779140      112.76687370396543      110.69399566687714
C          101.44548612891249      112.43966629589360      109.42561844911822
C          100.81820210055324      113.09532180895675      108.19873582262643
C          101.46015792742287      112.67484971108384      106.87545328086463
C          102.93757891040643      113.03971817691631      106.72497317815714
C          103.19583298705561      114.54310676153644      106.69235804216609
C          104.68010490139000      114.86701360287996      106.53920389059294
C          104.92160934336965      116.37034407149997      106.43371587266658
C          106.40541215248874      116.72734408960197      106.42036207981995
C          106.62099593740537      118.23060539760087      106.27930028731370
C          108.08922624481418      118.63458728305750      106.38931039260069
C          108.25346130830239      120.14017417788759      106.21140064855692
C          109.69131569700177      120.62536668928414      106.35788677793539
C          109.76928018279055      122.13634230032291      106.15703695759849
C          111.19243727169346      122.67823193467410      106.24783414025271
C          111.24054488260870      124.20427843683257      106.16919533893923
C          110.97348708261701      124.75359159083835      104.77019294164401
C          110.92478445592963      126.27930931692185      104.76809490051851
C          110.76301568576369      126.85018928139338      103.36503844570571
H          110.09135095139800      126.61103560553605      105.39256589360861
H          111.84387101023449      126.66650484204578      105.21164983770288
H          111.76383932527642      124.41354514054689      104.09702679672949
H          110.02562505044457      124.36836346259773      104.39057376841447
H          110.50765041445034      124.62153222070036      106.86470050836559
H          112.22703082852034      124.54560139520086      106.49178022737334
H          111.62826672453090      122.35999454459410      107.19756072390808
H          111.79971218006048      122.25175216112780      105.44595403207627
H          109.34395741816714      122.38211410082315      105.18161902268484
H          109.15481376905170      122.62622587614932      106.91678412364445
H          110.06870135015416      120.36458978155277      107.34927404451371
H          110.32321185742207      120.12398819087663      105.62294278527585
H          107.88589315863454      120.42447409294539      105.22295422043143
H          107.63372922565469      120.65401395002513      106.95071077510781
H          108.47941513308506      118.33852305736539      107.36575130505787
H          108.67077416310860      118.10827346863651      105.63113045893714
H          106.23030439759012      118.55911183189852      105.31294660232246
H          106.05011402621182      118.74637372409836      107.05640051868613
H          106.86485208935891      116.38627430715135      107.35111329876413
H          106.90115868941409      116.20826719698678      105.59798833337589
H          104.45063546237783      116.74727706247657      105.52213288162655
H          104.44486774037429      116.86950192505107      107.28114192203572
H          105.22270755072104      114.47299385166245      107.40306043553269
H          105.07299203838755      114.37437150930204      105.64700048110670
H          102.64121577005885      114.98611225882840      105.86113850428352
H          102.83461201779733      114.99899493573490      107.61579762652045
H          103.50992084735181      112.59236539863205      107.54006793974169
H          103.30129653300584      112.60700523526945      105.78937589086459
H          101.35714322572052      111.59128313905715      106.76857915983291
H          100.90256852215944      113.13832827861020      106.05720181191150
H           99.76206559754048      112.81612127002258      108.16323936894608
H          100.86568911152888      114.18027954712456      108.30727310366477
H          102.47440990457496      112.78112509410172      109.53888795767682
H          101.45839019341651      111.35754036426172      109.28234798842057
H           99.63135426729474      112.42123200671429      110.56672837853787
H          100.62692614626037      113.85116928729747      110.83090004424507
H          101.36103601835522      111.05050425776091      111.78514032865891
H          100.52028231633766      112.25248826748984      112.76642804032699
H          102.47805375016208      113.82351123875637      112.35601898071876
H          103.36214158924531      112.45269724409576      111.69807905183846
H          102.09343354910283      112.46228633846121      114.46354876906349
H          103.73741570241242      113.00916097610900      114.17847771294095
H          102.72060158468409      110.20969581124334      113.52541519336023
H          103.52889303693659      110.65597476957301      115.02276653286199
H          104.76396240650638      110.77153551162510      112.24059179921193
H          105.05575750459394      109.55703703838961      113.47711083862153
H          105.91342667882789      111.42086228598811      114.98723722595354
H          105.83181960771702      112.50102592158235      113.59395221396089
H          107.30720707985898      110.94266407804298      112.32321247267880
H          107.45947834127094      109.93503605224166      113.75776051623087
H          108.44144469238211      111.90898130543275      114.98017328607244
H          108.37003914069538      112.83426827596399      113.48480395436147
H          109.80292196343352      111.08075488769916      112.38113509108319
H          109.92433134491920      110.24522095226470      113.92689917402792
H          111.03925472130558      112.25422363002578      114.91480868849533
H          110.91399437005316      113.07315733983016      113.35774453666615
H          112.20587976353373      111.15491498893350      112.32487642698624
H          112.47312634703736      110.51790273253789      113.94661876520850
H          113.70761131173830      112.57723783109093      114.56480864411931
H          113.34679051964913      113.27336253634174      112.98627515057596
H          114.51892569630925      111.25013122583061      111.95042272842277
H          115.07416314788310      110.84132990069170      113.57567982532463
H          116.14274199130737      113.17449690085472      113.65304716856363
H          115.74680438615125      113.31767641449183      111.93903909998042
H          116.95630346764494      111.08436204065893      111.60185368363744
H          117.48870636476671      111.22547645700556      113.26984518109298
H          119.32903625127824      112.16577191611283      112.29380766798016
H          118.36453555885099      113.63094637988802      112.36976375023769
H          117.71811217525213      113.38692774850115      110.02205351116494
H          118.38161680261753      111.75611523501055      109.96544637065462
H          120.66002931266013      112.68277737358186      110.41334965610473
H          119.99602477094638      114.31190966253101      110.33944863565962
H          119.27028432531861      113.90945627503622      107.99283732245819
H          119.89926633425584      112.26584468675902      108.07526067898610
H          122.17968738496072      113.10739918772593      108.43193818322877
H          121.59005256143251      114.76578355780207      108.49103543950969
H          120.80075040746728      114.53862320981638      106.11795251947657
H          121.45034540782400      112.89830386290400      106.08743871006388
H          123.72996405220346      113.86651432381809      106.62242839405249
H          123.04712274698186      115.47591828187534      106.44339205830615
H          122.46094105054974      115.03578697973170      104.10964930308023
H          122.91868223547507      113.34022925368700      104.27541931510416
H          125.26532370310713      113.97349184208881      104.63916034265311
H          124.85388553287619      115.68415864878270      104.49487160274823
H          124.08243661369555      115.36473260770440      102.20059643681552
H          124.29424095930413      113.62448378566964      102.31682543278649
H          126.52338667659278      115.70467829076230      102.42515386832591
H          126.08677143700518      114.73353014177485      101.02214069969574
H          127.29369076064165      113.72897449957358      103.63305029179406
H          128.05794032380317      113.81507315611778      102.05219561215192
H          126.28543476724913      112.17518235740880      101.21220382090755
H          125.77726545783293      111.98496157458175      102.89137104155728
H          128.20262723008923      111.37047534536936      103.43810965684473
H          128.49079210045119      111.29110217135630      101.70459284679994
H          126.69261734604640      109.57517133043370      101.48901910595258
H          126.39850072465070      109.67440553776096      103.22400755947760
H          128.75912806715544      108.92889497603545      103.63799971221258
H          128.99993470947325      108.79953426942059      101.90122330670839
H          128.56995515167569      106.59471848428255      102.69402911988404
H          127.14832736614190      107.11260195423384      101.79090721992242
H          126.44334790256460      105.92241009868172      103.75426420153082
H          125.97956990745841      107.60759401876560      103.94535861942349
H          127.85905100644517      108.00124663225934      105.46648098653681
H          128.49757242283110      106.38830023913073      105.16405706165948
H          126.58963874952022      105.35096966414065      106.26224804219363
H          125.73301804438907      106.88674193308512      106.34556695132049
H          127.52650964110589      107.78948405793383      107.83532650704306
H          128.31962374254437      106.21677509037525      107.81918895918557
H          126.38305563742280      105.18968222109697      108.92849057750027
H          125.45837915793908      106.68152041328987      108.76758557467586
H          127.05968481748813      107.86500430559127      110.23188984856067
H          128.02753701101412      106.40005588426909      110.38793455904472
H          126.14661670960332      105.24694668025370      111.49979200196110
H          125.11797149006431      106.66030778730793      111.26826350159439
H          126.62016391036202      108.01398577490342      112.69139161996149
H          127.69220069798207      106.63036751748892      112.90433483010159
H          125.85635185127845      105.36918583281994      114.00651993446556
H          124.77197732401414      106.73813638848397      113.78213365314484
H          126.28587765628272      108.14555247587396      115.19705656834734
H          127.33775165080930      106.75197092067411      115.43051140531071
H          125.43137047308919      105.52218718617532      116.49148307988959
H          124.40156631728104      106.91848386234729      116.22392126724425
H          125.04901087531077      107.08202123263531      118.49614158636146
H          126.02689948539101      108.27535252506758      117.64710913999957
H          127.45234247976741      107.19009999966342      119.20816069570805
H          127.92581339170485      106.57916950728701      117.62734553541679
H          126.64687323964189      104.49964577745234      118.03080536936548
H          126.06215434821301      105.14418529169259      119.56775387295053
H          128.43540390416203      105.29013211208934      120.35897405866798
H          128.96444614550504      104.52156209314575      118.86481307742338
H          127.00264014179176      103.25773725341537      120.83006323749073
H          128.74522594503489      103.00555803415654      120.88402363294163
H          128.67306306966253      102.04547901507253      118.58386550621915
H          126.91557448081372      102.22268146257353      118.57746820638872
H          126.69227113968627      100.69983099049296      120.47119072876181
H          128.43757976011975      100.66430392808978      120.70078865864566
H          127.76608187339052       98.61089842455335      119.67104314784366
H          128.71733904856956       99.53191530097678      118.50896595221781
H          126.71203402573893      100.16567473285988      117.27918704891464
H          125.67205345154073       99.48907148426930      118.53843193109131
H          126.50302621060696       97.22884269164702      118.06707414702808
H          127.66447262832347       97.86381784749038      116.90502385009850
H          125.77907447777766       96.86181171459965      115.75939731082865
H          125.84242439899961       98.58799039223852      115.41731295074901
H          123.92062352619408       99.03680696022495      116.75861494706108
H          124.10482738451707       97.53674439169855      117.66647229531694
H          122.20274011326178       97.32855862788703      116.22016800485927
H          123.46388313200286       96.22435166221283      115.67373819212091
H          124.06302697011223       97.82863268956976      113.86190093750180
H          122.79977233315198       98.92608471139033      114.43374500781806
H          121.09428402827372       97.15463110811275      114.00267666004886
H          122.37097597606375       96.07035215250647      113.45790602363540
H          121.34062425307123       96.93022617584181      111.49796381856238
H          122.90562495075484       97.73341845772697      111.61856415099888
H          121.82015019741333       99.75609661555748      112.52676941771578
H          120.25932693024498       98.93351547305703      112.54651689697168
H          120.32903424670229       98.73231724401631      110.07140350702751
H          121.89853253996347       99.53151799343580      110.04360552816362
H          120.84994094511869      101.53458141021058      111.14868722561511
H          119.28315779335621      100.73144867416727      111.04114346049958
H          119.56857021664204      100.64358650082239      108.53611198159918
H          121.07954991756833      101.52821484943392      108.71337883213917
H          119.41957723515426      103.10350385056906      108.08355790534110
H          119.78363870459661      103.42163753609125      109.77281093004035
H          117.51677848060916      101.53032799983116      109.33897411987516
H          117.24040877281672      103.14674147841431      108.71147374496589
H          117.74043856530068      104.13256815044210      110.91113850844488
H          118.03024684233306      102.53449875121534      111.58965945696372
H          115.67946991920820      101.88531696984177      111.04122463007079
H          115.41096776848649      103.48531057129495      110.34984155000571
H          115.98096102456701      104.49003730706008      112.59193966473417
H          116.05041438140884      102.85983663215056      113.26441758384759
H          113.65743594763414      102.51400459197296      112.62242694302216
H          113.61828952166118      104.13027664566664      111.93003201479314
H          114.24267075356478      105.05270117333795      114.20366945918973
H          114.08446365668867      103.42962163910187      114.86247740929687
H          111.69415510795523      103.37971852946770      114.18103655126868
H          111.85268083864847      104.98784391988188      113.48097292794890
H          112.54184816786102      105.87827829554161      115.70779241341667
H          112.27345360235670      104.29572294049910      116.42220565502458
H          110.12360348077318      105.97035377238639      115.05174988700202
H          110.43934907928600      105.94925785046787      116.78557564020211
H          109.91749065282326      103.50681280065001      116.83527842299637
H          109.46650129727217      103.58851863536331      115.13045352848204
H          107.79449851647523      105.35889476519276      115.68307877588845
H          108.18759773828802      105.19036471820311      117.39004436713134
H          107.22974525968642      102.84496764222119      115.71718089346014
H          106.09972897638050      103.95422711221033      116.48865796527373
H          106.86782320599899      103.37500285430556      118.68851495609896
H          108.23051183963513      102.45589314537145      118.05416129292836
H          105.37215646940611      101.69443383661566      117.36716143492438
H          106.13708496367099      101.14214753021390      118.85675891657422
H          107.91744825900578      100.04709003367903      117.63617682833542
H          107.32349627191603      100.66492817245859      116.09657051514364
H          105.35328697217699       99.26429742259344      116.20301871095992
H          105.62315562126473       98.91714683627416      117.90701024432889
H          106.21197171648355       96.98390550513967      116.53187391260963
H          107.59459963064894       97.60201299281032      117.42497356499180
H          108.29698909623356       96.95965976066809      115.23265632925875
H          108.44057631945854       98.70830997780980      115.36128357196635
H          106.41068399977934       99.03687869714688      114.05350344809762
H          106.05361378844701       97.31161463337878      114.08656362432382
H          108.57354536100273       98.45019844738796      112.81060140279313
H          107.06266850987200       98.24815755171647      111.92809940141255
H          107.07784497550013       95.81365744203140      112.46278909122034
H          108.62339758838826       96.01620681578534      113.28691340296331
H          109.23865818092710       95.21677017880391      111.17640858031542
H          109.53047256266981       96.94846702987832      111.06809816264911
H          107.30291401674128       97.19930124068603      109.91537071697243
H          107.11390432215383       95.44820428192861      109.97024732139265
H          109.20423691142460       95.19313977088072      108.63027087453686
H          109.38365896809779       96.94611548985239      108.59592117742791
H          107.23887869413512       97.15609056333359      107.37010535252038
H          107.01654945599553       95.40912312359738      107.44532980465623
H          107.82036632754273       95.96412002180051      105.25404559550792
H          109.10653828207482       95.10503675387643      106.10036630962317
H          110.28639864668926       97.21701743953128      106.53082606211484
H          108.95198882415602       98.14011432964912      105.84600773514809
H          109.36368699210064       97.17650710988308      103.62936010790393
H          110.58754232924933       96.09226403763914      104.28789645024990
H          112.01444271733608       97.99632429655260      104.89744045947556
H          110.77911392997568       99.13487868782995      104.36706386592606
H          110.99674114771099       98.34135259207409      102.04356793017101
H          112.16028289842249       97.11661996107102      102.54478180388274
H          113.73019072246231       98.87443557459113      103.29006570161266
H          112.56421579098939      100.12412355709071      102.86337078916117
H          112.68182165906335       99.46127490960676      100.48620485856055
H          113.79056796623861       98.15198717863566      100.88622001677211
H          115.45450189250136       99.79798005077261      101.71469475738687
H          114.34718221898198      101.11742522045711      101.34291608930651
H          114.40918934826463      100.52178783333248       98.94157770817556
H          115.46951059086646       99.15942893757862       99.29071517096266
H          117.20148584628451      100.72580340696624      100.15568944643150
H          116.14136999228522      102.09080262314470       99.80785840243394
H          116.16334568392503      101.51160580063930       97.39814153737163
H          117.19816143674603      100.12544046231035       97.72802590364647
H          118.98117407548946      101.64747381818958       98.57243484840502
H          118.53292416926139      102.05929957783762       96.91604306986558
H          117.94434124043559      103.04170180579851       98.25622736325121
H          109.86540882168805      126.45762394654381      102.89186563353539
H          110.68721833197107      127.93489353867369      103.39809298424554
H          111.61868812085410      126.58867965884239      102.74510127952597
C          118.86023936807766      116.73186893486684      117.52173968499952
C          118.73942526714845      115.84559675749632      118.75395498782557
C          117.34384084310553      115.24479408867812      118.90033848667056
C          117.27729791934793      114.24200284606559      120.04802826875681
C          115.88302397710208      113.64943052496015      120.23608571239407
C          115.89706962158363      112.49590171483474      121.23538971688947
C          114.50299505236582      111.95160488936348      121.53533558016213
C          114.57056322649181      110.73585877180423      122.45623639325900
C          113.19845062484607      110.14391798843630      122.76473839590028
C          113.30872797167416      108.93077022451867      123.68512728183619
C          111.95497399345322      108.28864446530277      123.96909664075932
C          112.06942943570932      107.09236135204056      124.91079333824173
C          110.71333443261793      106.45733252944770      125.21087177845027
C          110.84328443580446      105.27090634670462      126.16320794826999
C          109.49689354029204      104.71324204567476      126.62706382090769
C          108.62871205768356      104.11309418838108      125.52054531630704
C          109.25865845442392      102.89877595653185      124.84183582338963
C          108.28040444716447      102.21251648210590      123.89085031472533
C          108.92238923822573      101.04452969626487      123.14537536437911
C          107.95092697166912      100.40586290693118      122.15514247584741
C          108.58771525688137       99.32024708571574      121.28607876042375