3536
 energy: -3716.263752202445 gnorm: 0.000662292960 xtb: 6.6.1 (8d0f1dd)
C           72.27353527802954       60.08702721984704       55.72869111326603
C           72.57192384761332       58.61390156221277       55.45443136162729
C           73.21705309354988       57.97694097987654       56.68296421752205
C           73.47269710219156       58.48958704007066       54.21964993123789
C           73.53541141736228       57.08888936236103       53.59154446215121
C           74.78005073104791       56.98785200025060       52.70974783288831
C           72.26415927321963       56.81500652895050       52.77930162399350
C           72.05083280726836       55.35900734372856       52.33249842526354
C           71.02718891859919       55.34877105693979       51.19998106027885
C           71.60542803564802       54.50478627276693       53.52687929065353
C           71.67141281334553       52.96917492104722       53.40179202791884
C           73.00415541890786       52.49964146777785       52.82027867454944
C           70.48830793688241       52.35744874373459       52.63799231511489
C           70.18986515626058       50.89663795273206       53.01701147608775
C           69.33061022574294       50.24946600916102       51.93302645109643
C           69.49654366985234       50.81982798628965       54.38114482663264
C           69.24474849250645       49.41148186776055       54.94352345321676
C           68.55755227280257       49.55808348180845       56.30011500369339
C           70.55837107514238       48.62532748427044       55.04052041239206
C           70.51366749104228       47.26324522136969       55.74983073275214
C           71.92366979413244       46.67007833869754       55.72944768345339
C           69.50413737029133       46.31859854279790       55.08736557241548
C           69.32876448672016       44.95010075025296       55.76168447203682
C           68.51608534188904       44.03927981499841       54.84016747419378
C           68.63682931432851       45.06759392924051       57.12665442566093
C           68.95618931190572       43.91973125599334       58.09879316873793
C           67.87600862276612       43.84756806124398       59.17366956011188
C           70.34341013061237       44.13028280458667       58.71801995789595
C           70.85983275983989       43.06072902612414       59.69333764521201
C           72.22109866098667       43.52348787863814       60.21640606114024
C           70.96843082833027       41.68449961270044       59.02515588498991
C           71.38132530762742       40.53609860050829       59.96799819056846
C           72.57243804476083       39.77284802385471       59.38600314255365
C           70.23391306059396       39.55083732100272       60.23024878765792
C           69.04901882513819       40.11527646242995       61.02307862207213
C           69.46868468935264       40.53064768083411       62.43185872045708
C           67.92505277146715       39.06985265129310       61.10157859929171
C           66.52558727745074       39.66843883332418       61.32031452472778
C           65.60089262272317       38.61904387470736       61.93456809294188
C           65.97506541802134       40.18472043104710       59.98597524116050
C           64.60818427627169       40.88542360594870       60.01893838096738
C           64.26156976892837       41.31089054633534       58.59159204831633
C           64.62040157325077       42.07583059573844       60.98719744259125
C           63.40434556978611       43.01265815576608       60.93600762269939
C           63.64026932844695       44.17451771066943       61.90002159156218
C           62.10412002623426       42.27545239497903       61.27066590450411
C           60.80846205054101       43.05457355216138       60.99529258353461
C           59.64928910399936       42.32030427542772       61.66727989915550
C           60.55301057685706       43.19721378741816       59.48921409070012
C           59.48779047231668       44.23616464388094       59.10190922166822
C           58.98475666974567       43.93959357845497       57.68986271658138
C           60.05798343582372       45.65626020231819       59.18282183838978
C           59.04214472077873       46.79947013102033       59.03882620566790
C           59.80820237628834       48.11760057960398       58.90867261602667
C           58.06937307635845       46.88255822012196       60.22875619400344
C           56.68791467146571       46.24698034657516       60.01879150457727
C           55.85145566241970       47.07030730285554       59.04144682424099
C           55.93131309183118       46.15178157155606       61.35337664426638
C           56.43976553250022       45.06894714999735       62.31112467142644
C           56.00281039219826       43.68403606382850       61.83069218749974
C           55.91697040213297       45.26373483608524       63.74193798673575
C           56.23016671625873       46.59793596851934       64.43148794409917
C           57.70519575429808       46.97809420429119       64.30529157445847
C           55.86464108600320       46.53250283888157       65.92281539066087
C           54.42058060414183       46.14515209407129       66.25533931005702
C           53.42029481641776       47.08614370061832       65.58478766351557
C           54.17955791804167       46.18260957569116       67.77103014809715
C           55.05602270770470       45.27250420241024       68.64153042978018
C           55.05773842902158       43.83444916173622       68.12468105538720
C           54.54357291349358       45.26941829555794       70.09060280543396
C           54.59521029560644       46.62014565641306       70.81684776870308
C           56.02559325520167       46.95805491296444       71.23002896479912
C           53.65405873417325       46.60505788134018       72.02910036077503
C           53.28106361115979       47.98939314046152       72.57909190063479
C           52.37422191928868       47.81298525244070       73.79757716464640
C           52.59127354933887       48.85642515053178       71.50960260869998
C           53.50105771842364       49.94010456609644       70.90864318637766
C           53.52934592958714       51.15328210894467       71.83604200628511
C           53.04020173194341       50.32304588476376       69.49625383983026
C           54.06323479016712       51.13302717887913       68.68623927411946
C           53.36919667684915       51.78543252483696       67.49244439561244
C           55.22446992366334       50.25170320487647       68.20859431401847
C           56.48278852634436       51.04482279073645       67.83714939172158
C           57.44837473694044       50.15117004374743       67.06290594621153
C           57.16434198250995       51.64631834467360       69.08168910441530
C           57.34623241659186       53.16537034744015       69.00012124773912
C           58.33706040319442       53.53817865337540       67.90028178629620
C           57.82465425992557       53.75773486609295       70.33211674297506
C           56.76872621729272       53.75348824234487       71.43548619586757
C           57.23593256477547       54.52434500147527       72.66435576771808
H           71.75301234534297       60.53768255574202       54.88627833520015
H           71.65187612463754       60.19523676284437       56.61471185619494
H           73.19857035645842       60.63645237372606       55.89378448952220
H           56.47420695552475       54.50799418177421       73.44117127867176
H           58.14639453433682       54.08580068363579       73.06815405362080
H           57.44208558892050       55.56169269319923       72.40818027341567
H           58.70858195678457       53.21226464890266       70.67280899261625
H           58.12989027561486       54.79351523826984       70.15842470399045
H           56.57291970681266       51.40845809290850       69.96658247484147
H           58.14444762344151       51.18518659585425       69.22487816520017
H           56.18243737185864       51.86078686639618       67.17294404336825
H           57.71498544634536       49.27599529649801       67.65354776531123
H           56.99473663994636       49.81769538977249       66.13150698133120
H           58.36052484798165       50.69245409789810       66.82349808279157
H           55.49281026870737       49.52649177022100       68.98017905153411
H           54.88980455006492       49.68663233840704       67.33442907440086
H           52.80827511921404       49.41326315224743       68.93500961148197
H           52.11371057789294       50.89733899372367       69.57909205305124
H           56.37359282467021       53.61102242193412       68.75634588374842
H           58.41727247075890       54.61889394356827       67.81329987907944
H           59.32042129080401       53.13618779954886       68.13441864416286
H           58.02183225515876       53.14635479214719       66.93764440758653
H           54.46134998668763       51.92902915745392       69.32202785089937
H           52.59848970179087       52.47202944711385       67.83059230683368
H           54.07870349234756       52.34329749546061       66.88628943519129
H           52.90312822838310       51.02985129799080       66.86307968227707
H           54.51797684685666       49.54232171064895       70.84354403075118
H           54.21945053124966       51.91168502450034       71.47474306725631
H           52.53889447072437       51.59846235826619       71.91108212493235
H           53.84609711475564       50.86164029348731       72.83552974963986
H           52.22047202654550       48.20382798359336       70.71761670457235
H           51.71827044320585       49.34694419099701       71.94439487960268
H           54.19318018144855       48.49294130891099       72.91563158017911
H           52.13069555123491       48.77734525623564       74.23848927317975
H           51.44663691655554       47.32119719183073       73.51079004331812
H           52.86158410733737       47.20456527077020       74.55711872512865
H           52.72364617147453       46.10307487033933       71.74859418968202
H           54.11140290718588       46.01415202844066       72.82749456849049
H           54.24252287999312       47.39026226828284       70.13068878388364
H           56.06699784892042       47.91190610673519       71.75086269649765
H           56.42216871253189       46.19282339023358       71.89541684291972
H           56.67228532430761       47.02360345499264       70.35830025634773
H           53.50799369220566       44.91770272569600       70.07335315961728
H           55.11789703230116       44.54035040366868       70.66943752208503
H           56.08461330916278       45.64456580291422       68.63338880371811
H           55.60400787017584       43.18553560254664       68.80733150064698
H           54.03983714065486       43.45956633667254       68.03940641405254
H           55.52988525184430       43.76848278046643       67.14955226419987
H           54.30966594182491       47.21564054712409       68.09935025009554
H           53.13639022268839       45.90854467684689       67.95260137727880
H           54.22552848162377       45.13154924016707       65.89940987869407
H           53.63736366209819       48.12158565833641       65.83972611470226
H           53.45060212069674       46.98617837985238       64.50360648702463
H           52.40726371055423       46.86031026466524       65.91197500237270
H           56.53340877620646       45.81230649214349       66.39879475506009
H           56.06503126580721       47.51010579070916       66.36956515525513
H           55.63705813633866       47.39167244075560       63.96702319051788
H           57.92477498939628       47.84700200420794       64.92305233539849
H           58.34290380602492       46.16172859000930       64.63739524360268
H           57.96242983689160       47.22111344965724       63.27871988552207
H           54.83386627636358       45.12761940531868       63.72223700582632
H           56.33422822093422       44.46032929817686       64.35644599744695
H           57.53325481032005       45.08968811539454       62.33514912418743
H           56.38815710625941       42.90871660558468       62.49047806650545
H           54.91647051209765       43.61413371061759       61.82062607843250
H           56.36272488938742       43.48111412479700       60.82486107178106
H           55.99190471836108       47.12866446014887       61.83541283730204
H           54.87503388538688       45.95686960011341       61.14921518462323
H           56.80926846160012       45.24498156586966       59.59841062789567
H           56.36229558125280       47.19467879718741       58.09059242233274
H           54.89838264296707       46.58203928709158       58.84995292670128
H           55.65203719073231       48.05663618109880       59.45476088561990
H           58.55189910702029       46.42245302141196       61.09232072267526
H           57.90726845014832       47.93457537605379       60.47834433338104
H           58.47495186924599       46.65110979282561       58.11574032099778
H           59.12271875301246       48.94693943723821       58.74763553852702
H           60.37533167042550       48.31696441572500       59.81484908224798
H           60.50470667820085       48.08341445164148       58.07334909873732
H           60.57518782523035       45.78124327068149       60.13705301593069
H           60.80947146192596       45.76031393514727       58.39353555192825
H           58.65005324961031       44.14993801914824       59.79724519850583
H           58.61865928042350       42.91766361846014       57.61893434561318
H           58.17264011755644       44.60534481490600       57.41007847139078
H           59.79168102417805       44.06058090430858       56.96980129200507
H           61.48175333180101       43.46313758386771       58.98071462520767
H           60.24789845281508       42.21850775740497       59.10730405293282
H           60.88708448281606       44.04848683248262       61.44413287198567
H           58.70522773481155       42.82523824211074       61.48829594642196
H           59.57306518628232       41.30431082233648       61.28176586972426
H           59.80528257664051       42.26470994738199       62.74204916413429
H           62.05704071902492       41.34604230563789       60.69961494403900
H           62.13022148233280       42.00179022872376       62.32953850966738
H           63.33469229669570       43.42482376208099       59.92871298651528
H           63.71554963541927       43.81364252619459       62.92404276072276
H           64.56480967691738       44.69115693959658       61.64945921191071
H           62.83001676833437       44.89582980859502       61.85224685668595
H           64.71218941493670       41.69545624380319       62.00749018552890
H           65.51172682920961       42.67251031401446       60.77726702553369
H           63.85708825411810       40.16005518138018       60.34704778412043
H           64.92758939364595       42.10484053166936       58.26145773684045
H           64.37247234276190       40.46850660442090       57.91101129121891
H           63.23703547107530       41.66383599959048       58.52155194937316
H           66.69824491588584       40.88144756478426       59.55656847383766
H           65.90131238965333       39.33345536054176       59.30223547723295
H           66.61105122160291       40.50476329594096       62.02004323822874
H           66.01422577179282       38.24785936538061       62.87040621723594
H           64.61965428634946       39.03707452396924       62.14310258892358
H           65.47957601141117       37.77653553036677       61.25635658325544
H           67.90646598022184       38.48074703583990       60.18127821884384
H           68.15616274828338       38.38055323926370       61.91717338488319
H           68.67062707993031       40.99581070378910       60.49661895119874
H           68.59808837081447       40.80109009251952       63.02508611463965
H           69.97795853921130       39.70938887363781       62.93321002901322
H           70.13923557745647       41.38611736500467       62.40902045969285
H           69.87054486985990       39.18211098704537       59.26672090816636
H           70.63092601162754       38.69066498329445       60.77688542586611
H           71.69644443190130       40.94884086178728       60.92888492826586
H           72.89076386772436       38.98058919653757       60.06096198138551
H           72.30600227581866       39.32085548116183       58.43230739237931
H           73.41492059579613       40.44243404772276       59.22708616766946
H           70.01024913486033       41.43317486939466       58.56938947770122
H           71.69602370954010       41.76389290564958       58.21361523188895
H           70.17519492151780       42.99055862279531       60.54365539918683
H           72.92760678078872       43.62696120067066       59.39431201048627
H           72.13175505392827       44.48690546499271       60.71348300080564
H           72.63777079035768       42.81962100943090       60.93150950698054
H           71.07433542719636       44.22272711536005       57.91084665338569
H           70.32859607216363       45.08587032776597       59.25055229305143
H           68.95033047531804       42.98085878786735       57.53585116205343
H           67.85732935945025       44.76681650635835       59.75487520904925
H           66.89844845950456       43.70710158791810       58.71881032365106
H           68.05303141522970       43.01994428927594       59.85430246716786
H           68.91580434648030       46.00649706544976       57.60741605474700
H           67.55754096311956       45.10187225444240       56.95905867497381
H           70.31280114679305       44.49323540802727       55.89400281181608
H           67.55533978696563       44.49615227730096       54.60847303739421
H           69.04593658825803       43.86458703773924       53.90594629938784
H           68.33210411086542       43.07581916002000       55.31042156158606
H           68.52610666651597       46.80154298828435       55.05466345367689
H           69.82167231654269       46.15423579671393       54.05377342487636
H           70.23362894193936       47.42468941627057       56.79329349250281
H           72.19921531011970       46.37224323656005       54.71914678232323
H           72.64957800286562       47.40215810605331       56.07707163191337
H           71.99662766137585       45.80029568749875       56.37634344421714
H           70.93645892886812       48.45425540931181       54.02999381489973
H           71.28968306341433       49.25098602952096       55.56163308493858
H           68.56113954010740       48.88445880905087       54.27175626314622
H           68.27442073656493       48.59302831860838       56.71030064017238
H           69.21666846365316       50.05276764423363       57.01020772315556
H           67.65665826192453       50.15878553081581       56.19737971648198
H           70.09333641399898       51.36900168493300       55.11340353279315
H           68.53336391400377       51.33070152321044       54.29931341372389
H           71.14209869885235       50.36134749883054       53.06601018778553
H           68.37677437195460       50.76490808079583       51.84619953971912
H           69.83569066525530       50.29543279664816       50.97043096415258
H           69.13877270544081       49.20372909705286       52.15860996178057
H           69.59085396168751       52.95359258225863       52.81750711023089
H           70.69789842260573       52.39185907116374       51.56726121088604
H           71.62073084855263       52.59483048384190       54.43134611328293
H           73.07497143618788       52.73561135498420       51.76086311203574
H           73.83519525566928       52.97382256159808       53.33880597407216
H           73.11015770830303       51.42272903694290       52.93015856612903
H           72.24154359191269       54.77475195855841       54.37349427101559
H           70.58410528756045       54.78731417218667       53.79351052096072
H           72.99616453479666       54.97157456470079       51.94620842496155
H           70.87597932237099       54.34714338830005       50.81152166435489
H           70.07293139275350       55.73304033323953       51.55204921112477
H           71.36513435649292       55.97765996884274       50.37831356765862
H           71.39132038081625       57.11941066374825       53.35907605488573
H           72.29740329340305       57.45093604694189       51.89091267568329
H           73.62687427981810       56.34725276867325       54.39065188371112
H           74.85598552299757       56.00761460571020       52.24619482744801
H           74.74710019374466       57.73765703214990       51.92144831483636
H           75.68037345784747       57.15047460124493       53.29905746160561
H           73.12489786011534       59.18865896232725       53.45475273629140
H           74.48180586768719       58.79827780652082       54.50494768790572
H           71.62342020051790       58.10190822178402       55.25965808965433
H           72.56455892238252       58.07405873206939       57.54807462589030
H           73.41173374061448       56.91919689631695       56.52204741682189
H           74.16115728512598       58.46690297255662       56.91386115857769
H           55.84983684328395       54.20952185048692       71.05844424413432
H           56.53784988631979       52.72775507258957       71.73046975695762
C           68.51272207185121       67.11865019498973       54.02399168404533
C           69.23951719474213       67.66484198150710       52.79746329522310
C           70.23839637648074       68.73806509713205       53.22729311981390
C           68.24783487390233       68.24085413497173       51.77790259873348
C           67.51835821993792       67.17964925365098       50.93880695494472
C           68.40934504996159       66.70071330734388       49.79524532833677
C           66.19987152473810       67.76375345859313       50.41639606831252
C           65.29526349040177       66.82015592050588       49.60672257302462
C           63.99253782027475       67.55606422846257       49.29626859277669
C           65.04492728896139       65.51440905366869       50.37172982648129
C           63.93715792209895       64.58269543140925       49.85268896211734
C           63.90669582072223       63.36570523203681       50.78021964228884
C           64.14559630993878       64.16082106131901       48.38725467823820
C           62.86246040376214       64.10393996495419       47.54117257199529
C           61.94646177160555       62.97407485597227       47.99640235311332
C           63.25670621188179       63.96775838861113       46.06139753958969
C           62.12826482691015       63.65763568689139       45.06568730245091
C           62.72941123860627       63.54966963313617       43.66403990993542
C           61.02148184633374       64.71755937683325       45.11213284872930
C           59.74938245106367       64.39039947983014       44.31267482630487
C           58.87918165673128       65.64490055062123       44.23105008826708
C           58.98284896388203       63.22935102628578       44.95910449231252
C           57.76585001710038       62.69804349208155       44.18544490513791
C           57.01739089456477       61.70512094531377       45.07389033316633
C           58.19810959563839       62.04385390239447       42.86760756746428
C           57.07476798856972       61.50201851428425       41.96888505652259
C           57.70916124370423       60.78904440882895       40.77398686598725
C           56.14515290805218       62.63600574634089       41.51924227586721
C           55.03088940180844       62.25851091002461       40.53106959558411
C           54.26785146844278       63.52583590883813       40.14316151243965
C           54.09855110408805       61.20675526793703       41.14259753852739
C           52.85835942501181       60.83355162575464       40.31727637205348
C           52.04906240476324       59.79229310953430       41.08903913185114
C           53.25507602075573       60.31041084461469       38.93208383755176
C           52.10155591864095       59.83796016148077       38.03506579351629
C           52.69004061374956       59.17672008717084       36.78829259878681
C           51.17702371469620       61.00085706648636       37.66062604583899
C           49.86834034495168       60.60366744065874       36.96412064682757
C           49.14707173136947       61.87157116578226       36.50248379081579
C           48.94718774752160       59.77230606697050       37.87739813153009
C           48.89164656772169       58.27608087572212       37.54607012655488
C           48.16476814823319       58.04850447603686       36.21929526186069
C           48.15693103764790       57.48730493672681       38.63971799248353
C           48.85115377595072       57.35932490881947       40.00406521690548
C           50.16110670809298       56.58666782037772       39.89527109694635
C           47.88051052044915       56.64687492231236       40.95555724761223
C           48.27706252497123       56.53737432892370       42.43792351645239
C           47.20032372953099       55.68886877659861       43.11731909330931
C           48.41445482592381       57.93935793395177       43.05437932081707
C           48.46304251846249       58.05096897213471       44.59181307580722
C           47.55628853061353       59.20260088903360       45.03650239445948
C           49.86917389167267       58.30083822266762       45.15696568601487
C           50.91952972211468       57.20424420235437       44.94014513844110
C           50.40207201316906       55.82897530196466       45.36191909934617
C           52.18535099736307       57.49091425641440       45.76522607910813
C           52.98094852584889       58.75860263960268       45.43047445741480
C           53.76386232484938       58.57102705348621       44.13293478427774
C           53.96108704289963       59.08607847226286       46.56856281477810
C           53.30184784479770       59.67465885032048       47.82408912949880
C           53.12708696177214       61.18398003821631       47.68469787575221
C           54.11027549048246       59.34155940223026       49.08488679766606
C           53.27812042950814       59.40207460922084       50.37180817795438
C           54.19714111336595       59.31442263100865       51.58809757886993
C           52.22979077110384       58.27451999825185       50.38641182866036
C           50.77746011463914       58.75673276115990       50.50385999843246
C           50.48959247807116       59.15678075449171       51.94597352352523
C           49.84274058611194       57.64569729908855       50.01290398669019
C           48.34178241129746       57.95332087584990       50.04170937108473
C           47.57518567521821       56.69405005888350       49.63517229631085
C           47.95139786265861       59.12962588601334       49.12535916319968
C           47.39823832484949       60.35762689988533       49.85639719586749
C           46.10828087772398       60.01626219721238       50.60468757751967
C           47.08461901410296       61.50472230852304       48.88497204206640
C           48.23990372338408       62.09202146873019       48.05904238912806
C           49.34339687253715       62.65408769642534       48.94959132304374
C           47.63541918477490       63.17807450894768       47.15606601305905
C           48.57420617419879       63.89018247107364       46.17271896271791
C           47.86125441653667       65.13508442446319       45.64356353260011
C           48.97905917768209       62.95459981412056       45.02844953616918
C           50.11241195440257       63.46906213068456       44.12841858476056
C           50.12824259505777       62.67381942383673       42.82372065286218
C           51.46180479194764       63.35203125531177       44.84612661436501
C           52.60624882623433       64.21672763121150       44.29717850246760
C           53.88748703255717       63.83689043761974       45.03844141145378
C           52.27762020920893       65.70839007377459       44.45405023159906
C           53.42911652820980       66.69723092801514       44.22566323630765
C           52.91185849888882       68.11633137291099       44.46316723502196
C           54.03946882179002       66.55849272339221       42.82791318036450
C           55.28653912737239       67.41708197218378       42.61941192271873
C           56.00351577864394       67.05682524169470       41.32343978669428
H           69.22247653279241       66.68181157567282       54.72309571933653
H           67.97864666760498       67.91805417495313       54.53322026793796
H           67.79375287292896       66.35303234792337       53.74423986388704
H           56.88051077325629       67.68463180071400       41.18130110841425
H           56.32558643818592       66.01749465552483       41.34242989066654
H           55.34165289030302       67.19295495120411       40.47045473861922
H           54.32226737348108       65.51771310889073       42.66466037843637
H           53.28984999227698       66.81644831588004       42.07510755240740
H           51.47286270753272       65.96863636582553       43.76229887156934
H           51.90047023997199       65.86635234707748       45.46853848417125
H           52.73828109284672       63.99039281635098       43.23354344011317
H           54.75856142774676       64.32586461148556       44.61159405799702
H           53.81314476257065       64.11962486140673       46.08572097727128
H           54.04747699640119       62.76241230987645       44.98531139644466
H           51.33410152658206       63.60891096373953       45.89960290708790
H           51.77123804019383       62.30368519827283       44.80263286695606
H           49.28948175531362       61.99455506497647       45.44565396955172
H           48.09319495504112       62.77369134268035       44.41334873336299
H           54.21181598506521       66.49899695934160       44.96310474221633
H           52.42486400970029       68.18521102887598       45.43335306548602
H           53.72486778185189       68.83736170980356       44.44153329478308