3795
 energy: -5103.117833284133 gnorm: 0.000893503937 xtb: 6.6.1 (8d0f1dd)
C           99.41433626254153      105.05298171160632      124.50315587434068
C          100.81144957299362      105.46195986117019      124.90848221728541
C           99.12224120557754      103.55552970495548      124.60782151806502
C           99.67687929504503      102.78474621263210      123.41356726859019
H           99.55284197357609      103.16935081780639      125.53258044324112
H           98.04162583043960      103.40842890237388      124.65436074494906
C           99.43261136088410      101.27850372118323      123.53490547514394
H           99.20586768928179      103.15090783022664      122.49989613183847
H          100.75052854607115      102.96176394423510      123.33115553771425
C           99.97686034826664      100.56105565675431      122.31095707867220
H           99.91000375311786      100.88959885497614      124.43424901536623
H           98.35870213865540      101.09014771092419      123.59836389481816
N          100.98840021214352       99.72646212137282      122.55446206349204
O          101.31974810029701      104.76397506750398      125.90813693301449
O          101.39530570662457      106.39998117025594      124.41026030619757
H          102.18296942584392      105.16999601580262      126.20541228629067
H           99.23531302234069      105.42399172123709      123.49230593318585
H           98.74721930432639      105.59836169902917      125.17795005468143
C          101.68807462307154       98.99209325772017      121.52116431366385
H          101.35719663138536       99.61571263926109      123.49543504398500
C          103.18108581985400       99.00172848526707      121.82120298777436
H          101.31631491619430       97.96141805632362      121.48022809165604
H          101.47476073483524       99.47148428379165      120.56353366967755
C          104.02201802975024       98.27241029943659      120.77465108227419
H          103.50601486400279      100.04124541310765      121.89458813841438
H          103.32588577041420       98.53298848363060      122.79721470983210
C          105.40737840440808       97.91936125035598      121.31978637094940
H          103.51698103060843       97.34750049438640      120.48814829870160
H          104.12634452402872       98.88013728351062      119.87463113242140
C          106.12862470897831       99.12351969855703      121.92047193814840
H          105.29948713410718       97.15250265974041      122.09195992766210
H          106.01382691802031       97.50148104651566      120.51509205218784
C          107.48396545854837       98.75875119533764      122.51042310344425
H          106.26570337127355       99.88477318739906      121.15280050422150
H          105.52315931699277       99.54938518290079      122.72023296981429
N          108.52279958822112       98.72213137910309      121.50649760185752
H          107.75892427330820       99.49283713416489      123.28100426008555
H          107.44059300111320       97.77555953667077      122.98762354316699
C          109.70148896156702       98.14365023180724      121.73753308119585
H          108.41015628685729       99.33811751926999      120.70456922885776
O           99.52837728960473      100.75707384485931      121.18452217049111
C          110.77792122557442       98.48235776352944      120.72608382097989
C          111.07060764904473       99.98442424592174      120.84984994543842
H          111.66757230606839       97.89615749586477      120.96101692910572
H          110.44899944242579       98.23879408707670      119.71663246622980
C          112.44737081435993      100.37772533279832      120.32536320541557
H          110.30189947777488      100.54432668225921      120.31797402486656
H          111.01889801248069      100.26340758383721      121.90596520437425
C          112.66020663336207      101.88863960513157      120.49192275854996
H          113.21207908375922       99.84196297865711      120.89328092556678
H          112.55161507439460      100.10038841053540      119.27533985480903
C          114.12907695449758      102.22491732425166      120.43367305269405
H          112.11026640242639      102.43534615407876      119.72726261822893
H          112.29301013269249      102.19859434623005      121.47108279600938
N          114.69015757523574      102.19210011947874      119.22331287256505
C          116.07876544719812      102.53477481529630      119.02598492937257
H          114.15994768483044      101.91436738221874      118.40047972473627
O          109.92617169355695       97.45180731064464      122.72878197204284
C          116.24829924713086      103.47010264789623      117.83730960405271
H          116.41865924277754      103.02357351230793      119.94203224079375
H          116.67234419270940      101.62706305535809      118.86761391963434
C          117.70866304422147      103.86767326285097      117.65233699117907
H          115.87854185611657      102.96261131649742      116.94734576111679
H          115.64928793337062      104.36179717424179      118.01231335691016
C          118.02366875681766      104.41150997892412      116.25933047182477
H          117.96277630696804      104.61859957395761      118.40221982252631
H          118.34273861219265      102.99377945578865      117.82484127576400
C          117.14740382705766      105.59184489497831      115.82324924984964
H          119.06832116574761      104.72904082874881      116.26171072403598
H          117.92901745087539      103.60325442780983      115.53021310888867
C          115.93008635202972      105.17594746685192      115.00470692316325
N          115.42149268222920      106.29903196267412      114.24786059067819
H          116.22334630989506      104.38106395858368      114.30581163335921
H          115.12764043183512      104.78815276180453      115.63613678680166
C          114.22442322124482      106.31548108288055      113.64579293543734
H          116.03732598343989      107.09417771232341      114.12144621476182
O          114.77856282481997      102.46876545059455      121.44987608335420
C          114.03590098767663      107.55379318918681      112.78465095130534
C          112.59249897666561      108.03553767478603      112.68102970448220
H          114.67033917330552      108.34716195212717      113.17988448108858
H          114.40525508912668      107.29418184465408      111.78970046007363
C          112.49173930126754      109.45224285384435      112.11374695138079
H          112.02210416952390      107.34802048990122      112.05594279119984
H          112.13685303387489      108.02472510423119      113.67248083851439
C          113.23042264995382      109.61755954664278      110.78063747084008
H          111.43625627198615      109.69087136957495      111.97357948543329
H          112.90017557285240      110.16616731193622      112.83204022887848
C          112.89970913562307      110.95092937479907      110.13883980312526
H          114.30774887549212      109.58425623045186      110.94364163540776
H          112.94693957609879      108.80947392611617      110.10674406194144
N          111.65215105559884      111.05279242190061      109.66394978875370
C          111.12740667185638      112.27379601087289      109.08874481776293
H          111.05743371801643      110.22956864921497      109.64462415059188
H          116.83046652450881      106.16043427680336      116.69732343929152
H          117.73782539281787      106.25507769011745      115.18677009188474
O          113.40190708614264      105.41447875348123      113.75734066536307
O          113.71482682343230      111.86627648278309      110.08218151867545
C          110.46471312123272      112.03735786721622      107.73475318506752
H          110.39896530645065      112.72646260646107      109.77043475148128
H          111.96644383760055      112.96698655503033      108.99127494938541
C          109.90841673846528      113.34772391144776      107.17767787673655
H          111.18969983351398      111.60855749781169      107.04096059245882
H          109.65297412598724      111.31745113366503      107.86211796028819
C          108.97203409490221      113.15319608101905      105.98622456649936
H          109.36754809972960      113.86015659753879      107.97534632055431
H          110.73324041568898      113.99892447926229      106.88228873637269
C          109.69654031654956      112.70585372592869      104.71752564449993
H          108.20400061648380      112.42018096530035      106.24364067413852
H          108.47070723677196      114.10023525425767      105.77904364873986
C          108.72420802034013      112.47413460852410      103.55927594331415
H          110.41274882748426      113.47729258642856      104.42729288274440
H          110.24252116818609      111.77893891782108      104.89690677551869
N          107.95079787522755      113.65680996948781      103.26982644817114
H          109.28357685990093      112.18230534815045      102.66267015221692
H          108.02084693278998      111.67513676659840      103.80524235064799
C          106.62358751203197      113.72188147607557      103.36800454288658
H          108.46672821419268      114.52797294088762      103.17566874163487
C          106.03332569978507      115.08678201815914      103.08934650235405
C          106.51697189353503      115.71858674478442      101.78299862044102
H          104.94796807610308      114.99084552697727      103.06498882544389
H          106.31256205711456      115.72617836827492      103.92929671289251
C          105.95033800147564      117.12269428734365      101.57180082222924
H          107.60325183353098      115.78872209826039      101.79188372916416
H          106.22654185911480      115.08246864058766      100.94711299945871
C          106.51244495810754      118.13689562015733      102.57977611596736
H          106.20918273047101      117.44984992294782      100.56231956415282
H          104.86138516864119      117.11026826025494      101.64241664043126
C          106.08367878421127      119.53092244000203      102.18030732956763
H          106.11855938896481      117.92323026906773      103.57290297345919
H          107.59807972230519      118.05942777396669      102.60304639822336
N          107.01187674221720      120.27020804028102      101.56231251949417
C          106.67615901550641      121.54718532919284      100.96000397824530
H          107.98878511005714      119.99910377375430      101.55452405476112
O          105.92370188247338      112.76066194586325      103.69656536475628
C          107.88880771898414      122.15014255571617      100.26832935400869
H          105.86191768621691      121.38296646138802      100.24405358683870
H          106.29971160921127      122.22316302192549      101.73249642036859
C          108.35279072093675      121.27566744512706       99.10563795032925
H          107.63620756955495      123.14953475283680       99.91126818521975
H          108.69567738601754      122.25647853358096      100.99568701670523
C          109.72443262898514      121.69606293587923       98.58921122007325
H          108.40604892548492      120.24464922250586       99.45263820427246
H          107.62114173757118      121.31599854518237       98.29539872630340
C          110.32277285390329      120.69418560712717       97.60112757452094
H          109.64584039641331      122.66938990854632       98.10021951285532
H          110.39419839468307      121.81713968050175       99.44126401088896
C          110.60274492494581      119.31220013642353       98.20379533245968
H          109.64205220798573      120.56177365008821       96.75813433403098
H          111.26180164227524      121.09474252297302       97.21279857151524
N          111.52344593080686      119.37451853879909       99.31877323282974
H          109.67612441060530      118.83974956378212       98.53546017083413
H          111.06238338971679      118.68385209826000       97.43653779484222
O          104.94401884241874      119.94754230274452      102.36822788514401
C          112.80324671406477      119.00177966079217       99.19198152420637
H          111.15119117570519      119.73615787263334      100.18958891290197
C          113.74991734531801      119.22235338732662      100.35834455980702
C          113.18419068556129      119.77834305624417      101.65840833859588
H          114.19437151344961      118.24619482311218      100.56894010229212
H          114.55160346387754      119.86632602466145       99.98396318261831
C          112.73278329489398      121.23869924321026      101.58477182442203
H          112.35130066496457      119.15242384541972      101.97769362004722
H          113.95240050996911      119.67881866678803      102.42841628218031
C          111.84914072612082      121.58850285340483      102.78162371134657
H          113.60291136785791      121.89854352638011      101.57362006293472
H          112.18061035564969      121.42516558406355      100.66476461549162
C          110.65850778094531      120.65998322459136      102.92804130911126
H          112.43249389518651      121.55085505057788      103.70230196862184
H          111.43937117572052      122.59626095933126      102.66771355443760
N          110.28971612999277      120.44070982285280      104.19347758143799
O          113.22903286280180      118.46892791890012       98.16972796960464
C          109.13286179806643      119.63507811991856      104.53377841689903
H          110.76960832115900      120.89710877015575      104.96268900799411
C          108.88934307600005      119.66268546936136      106.03535523535305
H          108.25519380767389      120.03367470716047      104.01203702266928
H          109.29547636711368      118.61336003041369      104.17876012716121
C          107.53456659200849      119.07331189183309      106.42605021650806
H          109.69190824276421      119.12811436519264      106.54603241888647
H          108.92493249970784      120.70333069087066      106.35900777008958
C          107.47850429311488      117.54812062506257      106.32059732107305
H          107.31711399252831      119.37072580226973      107.45305471343205
H          106.76145144952282      119.50992581108008      105.78944601596294
C          106.06255549077629      117.00373419366775      106.52218215455935
H          107.84301519836397      117.23477675078119      105.34129704222329
H          108.13931758050926      117.10886639386371      107.07173520617401
C          105.54329167060055      117.26022413794270      107.93641955817158
H          105.38116790392478      117.47171113066788      105.80771147998411
H          106.05799202539947      115.92575318913401      106.34287266497131
N          104.22356326480008      116.71473585724682      108.14138783269864
H          106.23406643445030      116.80656982884270      108.65545850167449
H          105.47771178466246      118.33251984645688      108.12655871973610
C          103.17143491269069      117.43363120555037      108.54401946936940
H          104.10802969660806      115.70554601375710      108.04909894533084
O          110.07815455840253      120.14716656662736      101.97231337620292
C          101.91600122473353      116.61439780612179      108.75387199028908
C          100.91168569699889      116.76448131201869      107.60736591477492
H          102.19334386584502      115.56506887354134      108.84830641089364
H          101.44241183300036      116.94293921897551      109.67677331006942
C           99.82041639145804      115.70397279344435      107.73513105279032
H          100.47028674579970      117.76273942491019      107.61916484831255
H          101.42607634104965      116.64732903665147      106.65168034160443
C           98.89006350966545      115.67210226163249      106.52244271120296
H          100.29205140671509      114.72388350067223      107.84383971768553
H           99.23234889589459      115.89884618451534      108.63287999002827
C           97.91026977557284      114.52166747843857      106.65674340227962
H           98.34299660408304      116.61072252052081      106.44889972169649
H           99.47159768303506      115.51954471472230      105.61204655480653
N           96.96846406943338      114.69196397599538      107.58483039530836
C           96.04788053499301      113.64314566465113      107.96080248723209
H           96.91491118937411      115.56408094899787      108.10847677605173
O          103.21556436335672      118.64605862928293      108.74121247064363
C           95.92564536504673      113.54544058705434      109.47996401959463
H           95.05831185442888      113.84632079342421      107.53260532076047
H           96.42209334650198      112.70841154119783      107.53539755721987
C           97.25522822096227      113.27485526674209      110.18377300396754
H           95.52940968434002      114.49376230307614      109.84899117043406
H           95.20937621011286      112.75849582815661      109.72203900794071
C           97.82473587159133      111.87523173296026      109.95244991881407
H           97.98177378240253      114.01956547224381      109.85560308761018
H           97.10525712775440      113.41507112510574      111.25728511968970
C           99.10364007851102      111.68593618055050      110.76730779021321
H           97.08585530514357      111.12917482942254      110.25498836117133
H           98.03772590634506      111.72270505786864      108.89465084527662
C           99.68525135914234      110.27491075444041      110.69382179244465
H           99.86229478634247      112.38736326891842      110.41874762188843
H           98.89420776677143      111.91161844934115      111.81560973986106
N          100.27679430505574      109.99384394208474      109.40720322172038
H          100.48251277528001      110.16628707545981      111.43528512670665
H           98.90067286087908      109.54201702097781      110.90760197442678
C          101.56834903336544      109.67225818223788      109.27528338805330
H           99.64580667258500      109.90327380607280      108.61126215478335
O           97.99843773497781      113.51389509233583      105.96275470557347
C          102.03128408011895      109.45371362292185      107.84841167840396
C          102.72595736990489      110.69932367947081      107.28563572635782
H          102.74665504725188      108.62998646796390      107.84135999229605
H          101.17887453567793      109.19985544057097      107.21872244767830
C          104.02142739268822      111.03074334013637      108.02765658401634
H          102.94383079901172      110.50894760468334      106.23152101083213
H          102.04434082651203      111.54999450735802      107.33460497500862
C          104.90628815462119      112.00515264948132      107.24067459908191
H          103.78346408880824      111.47159737325335      108.99595234987197
H          104.58103242199640      110.11220604592739      108.21462518011215
C          104.16109365392504      113.29428670770795      106.99203169197438
H          105.79541597849030      112.22875330969001      107.83306374975503
H          105.20566844769510      111.57002312363359      106.28943631360885
N          104.04003417123138      113.65919253015372      105.70901521419401
O          102.32693204925370      109.56748553727429      110.23609258351902
C          103.16087542335758      114.73031970563777      105.30123431645960
H          104.54233503233530      113.16447054566500      104.97616375040346
C          102.17479612777696      114.26796603180601      104.22881749183330
H          102.61653607712732      115.03055924156529      106.19744591643975
H          103.73973472636429      115.58709247126070      104.93993018304954
C          101.38236846444950      113.04625183648790      104.68656983436041
H          101.49663224624912      115.09492725115361      104.01027463513277
H          102.71380619674068      114.03030666184689      103.30833525991639
C          100.28175230821135      112.64605760761718      103.70902772430870
H          102.06700627614488      112.20651281068555      104.81045853938170
H          100.92728869090141      113.24931790138415      105.65721565627840
C           99.77410560586986      111.23605141672782      104.00788494919675
H           99.45310983238269      113.34978143022947      103.79678392921954
H          100.65781755144135      112.68907397829867      102.68362919514631
C           98.50457647928781      110.91235769312064      103.23459425081684
H          100.54853022937297      110.50894602692024      103.75764645231975
H           99.56127486596188      111.14597202875882      105.07471710349770
N           97.37547216448252      111.60905880112497      103.81637403279277
H           98.60481270793117      111.20016414513779      102.18058330833583
H           98.30251990632947      109.83599895905171      103.25580324907531
C           96.12001801553612      111.38768638696769      103.39640671429574
H           97.56079725277677      112.17785411018752      104.63239309159025
O          103.68823925598849      113.95820578400975      107.91001797413897
C           95.04495662787032      112.11397551506607      104.19488673517560
C           94.29727637232298      113.11302376694319      103.30932712990038
H           94.33690212830902      111.35931413933950      104.54314415800016
H           95.48233083193216      112.60701492531675      105.06093467967986
C           95.15935401322601      114.29866980691141      102.87508888518281
H           93.95851165166049      112.58125220389923      102.41794580730708
H           93.41657667006687      113.48291401969460      103.83941319826259
C           95.54206678085912      115.21045528617752      104.04786005996591
H           96.05973219884270      113.92327247732709      102.38416770207353
H           94.60021484575913      114.88802772044126      102.14445093628416
C           96.21084982953931      116.47276396031752      103.54601242776145
H           94.64099356699074      115.50116955891653      104.58953310359522
H           96.21432053708921      114.68801438518737      104.72569219267390
N           97.49074261402900      116.29999920851354      103.14679116169741
C           98.26124352748987      117.35468032474836      102.52879790641080
H           97.88835526925085      115.37408161878456      103.16458139203483
O           95.85874572731291      110.67130750783703      102.44558076579685
C           99.66616366816126      117.45956169397458      103.11800515995287
H           98.33009719372386      117.18355668201730      101.44673428133999
H           97.70141748377426      118.27815794107653      102.69426605667907
C          100.43586850423191      118.64156996866794      102.52646039740529
H           99.59075795756546      117.56422585739276      104.20102458802995
H          100.20447861771521      116.53356880252686      102.89869344009560
C          101.94709048376575      118.54336405297768      102.73923792794020
H          100.25211344065821      118.67286769412155      101.45014477579647
H          100.05191094624377      119.57177038619407      102.94674149143223
C          102.40135436304729      118.56969275569067      104.19947286533824
H          102.29549198158088      117.60793877640538      102.29484530064452
H          102.43916757164472      119.35594032987062      102.20400117632821
C          102.19406853800155      119.90653993071130      104.90024526608464
H          101.87807352019578      117.79831479000582      104.76451509815641
H          103.46791209004654      118.33791165203679      104.22514164595385
N          103.05412323618580      120.92721987802305      104.33395030915939
H          101.15198267311651      120.23391470322113      104.82275755375888
H          102.42610397563227      119.79522238194436      105.96761179860951
C          103.00429123074341      122.20235859930547      104.72111549946787
H          103.71854135665899      120.62751049207206      103.62674010004838
O           95.65381543490585      117.55298033888828      103.49862987254234
C          104.02057885386120      123.11524443174973      104.05451113720363
C          105.44441136389315      122.81047025173595      104.53057274775128
H          103.96218958000942      122.98386853994215      102.97266509706004
H          103.75617996407195      124.14591846214140      104.29842344652712
C          106.45299527763325      123.83321508850753      104.00267326906044
H          105.47564825422545      122.80426920647943      105.62293207287375
H          105.72406072142687      121.81322320319001      104.18550501229156
C          107.88880643102608      123.38970835507770      104.28917335001969
H          106.32191664080418      123.96000729140660      102.92563930915958
H          106.27424720110893      124.80374943082383      104.46876086799047
C          108.90873229850506      124.34454555003532      103.69590041081901
H          108.03385294259191      123.33247194157225      105.36740240878254
H          108.06631951057587      122.40546623927366      103.85488779248502
N          108.92220485756798      125.56527537743355      104.25082096696516
O          102.21103207480833      122.61957761917982      105.55933074961810
C          109.78352058345105      126.61731282120698      103.75828895851410
H          108.38980313471058      125.75539615391241      105.09464144023411
C          110.38739253455336      127.44044732633060      104.89188446992684
H          110.56880713473444      126.13799861815082      103.16503355672742
H          109.21451810776043      127.27378389374859      103.08728202085659
C          111.53663464468198      128.31055020368410      104.38816241287807
H          109.61120193095492      128.06716957667399      105.33287226823852
H          110.75066160880215      126.76814147050646      105.67027962533521
C          112.10302368679238      129.20786888732579      105.48665608138813
H          112.32378319444736      127.66171459755033      104.00090328689255
H          111.18492694778040      128.93194541917279      103.56141210413614
C          113.34341618520661      129.98679616733935      105.05018561701954
H          111.33487540556719      129.92013544160025      105.79303293019620
H          112.34912559825089      128.60355105456878      106.36153074329316
C          114.59521456601837      129.11698998289444      104.94266899521352
H          113.15367767341016      130.46880758818941      104.08827630482664
H          113.54637456661280      130.77064975585722      105.78021295967851
N          115.77570474600826      129.95589973738331      104.79197440837456
H          114.72240063288672      128.55180032859599      105.87045724957510
H          114.47805231029761      128.39132329693118      104.12165784765956
H          116.60472179021555      129.37647313049726      104.70547567455348
H          115.70136091715987      130.50901989576002      103.94405198313453
O          109.64769368297031      124.01957840557014      102.77739154068161
C          107.88277140022869      103.91502825560745      127.46174976542113
C          107.73910728695409      102.43143769052301      127.18914916228361
C          107.10183086726079      104.77817039110110      126.47385330884539
C          107.60766561599735      104.65776079610752      125.03585490159813
H          106.05421763954884      104.47483151077556      126.50175860577771
H          107.16339153022525      105.82123088356022      126.78919154840546
C          109.01920092473664      105.21308733716512      124.84855479703336
H          107.58594626941075      103.60926635912831      124.73273119883876
H          106.93410153406954      105.21774892872067      124.38373871429827
C          109.06738352457238      106.69973107654130      125.15103197994161
H          109.73887727544708      104.68170375508781      125.46747119510700
H          109.31400510858906      105.09298747557739      123.80242437122355
N          110.02515688705110      107.05019607283950      126.02763483824694
O          108.84047965672059      101.78153276496951      127.47673825925106
O          106.72565292002177      101.91030241889003      126.77026548476275
H          108.77454327074382      100.78271488334063      127.38261452508117
H          108.94452703130258      104.15899555549471      127.46458740389923
H          107.49935810134606      104.08575834475658      128.47178300083007
C          110.37154950518141      108.43098806560911      126.25961359795097
H          110.65771680092256      106.33390913717808      126.37620927554734
C          111.71329568368863      108.76830723110791      125.61298661987064
H          109.58588365806563      109.03244410135592      125.79654260968967
H          110.39463100111034      108.63971730740535      127.33427281677361
C          112.00536279803191      110.26362478153793      125.60563901812054
H          112.51007036327306      108.22994839516412      126.12630541271268
H          111.68177610126385      108.41423199425377      124.58135284233920
C          113.26009472685654      110.57740130080282      124.79320098856743
H          111.15780335351229      110.78670912566179      125.15847155201973
H          112.11841292721537      110.62949729539555      126.62854933058395
C          113.41279274562052      112.07296325813552      124.54662562555882
H          114.14284055126330      110.19102179059399      125.30786876024538
H          113.19163481572571      110.06798365755175      123.83080190804664
C          114.55045486677362      112.38135252804945      123.58157632911777
H          112.49214271545657      112.47312380600852      124.12045322805417
H          113.58604411456088      112.58911968383035      125.49192593489445
N          114.59569935464297      113.80128798850926      123.31436790639987
H          115.52091727084597      112.09088481921177      123.99358961666535
H          114.39567790046398      111.82891500121295      122.64810058281284