3795
 energy: -5103.673955465773 gnorm: 0.000871388388 xtb: 6.6.1 (8d0f1dd)
C          127.06835098507605      114.02504795700715       98.87741090993555
C          126.51360704680002      114.95049805167575       99.93643968613635
C          125.99135324282530      113.18548215389148       98.19397709511028
C          125.23052812334224      113.98899839242128       97.13919526406194
H          126.45552226276840      112.31796216749692       97.72491276925791
H          125.29881546144792      112.82585547059833       98.95799836460823
C          124.00871954721377      113.22704288105074       96.61290493815531
H          124.92000311284384      114.94080421739595       97.57717956777591
H          125.89688411345803      114.21164967308916       96.30433610212546
C          122.99683369746764      113.00209080715543       97.71961470961369
H          123.53702767850233      113.79003734827283       95.80723540446436
H          124.31230699488690      112.26221515471271       96.21023915595742
N          122.42269688926108      114.12589414861137       98.15688953469974
O          127.25878026933324      116.02027973375782      100.11064964811354
O          125.51083414460308      114.72466038412234      100.58476835412952
H          126.94909683398019      116.58173804602134      100.88943308221600
H          127.77277367469712      113.37078206908984       99.39890367039587
H          127.63638688575321      114.61782844001081       98.16053235162256
C          121.60112052769153      114.22174385998572       99.34332892702072
H          122.72020592822307      115.00116031807231       97.75591850601984
C          120.70205854794263      115.45442043779261       99.30339016285586
H          121.00244433196569      113.30920827823819       99.40691046268607
H          122.25084413541457      114.26330671397450      100.22518330300453
C          121.45089805313241      116.76983242593089       99.07256881986503
H          119.96267139201852      115.34597240975319       98.50784736926512
H          120.17209992909831      115.50275274308756      100.25480291682018
C          122.59987580991458      117.01767965671998      100.04916130590183
H          121.82423275473440      116.81721039245988       98.04698139900042
H          120.73091705088309      117.58657267223911       99.15402446059863
C          123.15508248061005      118.43341725397657       99.88826434842579
H          122.24653004657347      116.88270765343194      101.07309489212538
H          123.40474724628984      116.29892029265753       99.88150535159868
C          124.48585869562916      118.62745941916920      100.60890284136161
H          123.30906192998447      118.65108653155229       98.82985313139170
H          122.43535907426924      119.15479241327964      100.27585091652645
N          124.36907086990411      118.31771513726758      102.01750259523027
H          125.25012917115031      117.97176581344242      100.18381241948744
H          124.82269909018812      119.66383210379037      100.48689088316372
C          125.30074865183265      117.67536756700170      102.71271922072012
H          123.52757436240076      118.65961044518022      102.48224272206195
O          122.72612845393762      111.89352207701893       98.17546659307570
C          124.98665289371816      117.43019084437800      104.16941293091986
C          124.76708685078516      118.71950087529464      104.96424111951231
H          124.08942031876117      116.81364646423742      104.22559023751305
H          125.82332049505179      116.87075619871906      104.59211428759862
C          124.80096080809433      118.45910594123488      106.47266978927064
H          125.55063976101732      119.43808295565483      104.71110258773085
H          123.80705532615899      119.15707590905052      104.68437648389620
C          123.85271440291544      117.33802389160563      106.90527645962310
H          125.81727394143466      118.19100548601028      106.77165167386264
H          124.52725440705643      119.37939448004636      106.98964355336130
C          122.44831103412071      117.58487656171212      106.39204620495822
H          124.19845073327011      116.37876964946503      106.51899844594952
H          123.82881213393524      117.27619814124667      107.99425852981892
N          121.83363497885169      118.64628247897026      106.91227054285220
C          120.48954829534907      119.03618296630104      106.52931722159310
H          122.32562038998068      119.27670366031631      107.53994594213202
O          126.36659452840945      117.27604377870554      102.22372914657471
C          120.06082703035919      120.27192899403370      107.30755047913837
H          120.46293065832364      119.24106250309289      105.45365207895009
H          119.82115212372602      118.19315364013360      106.72940480545702
C          118.58673592773852      120.62104052427730      107.11153200110637
H          120.26258192815685      120.11874225008259      108.36704585851315
H          120.67148688818102      121.11849764859248      106.98623025400015
C          117.60452052238288      119.65899288664573      107.78678795277881
H          118.42560308671135      121.62341088196180      107.50726024285783
H          118.36871531089139      120.65441380749046      106.04166629894013
C          117.82739017097235      119.46388275489025      109.28799299230167
H          116.59649011582572      120.05008690379459      107.63293614134409
H          117.65745511972463      118.68292326985988      107.30428357407453
C          117.83785317397663      120.77447613552134      110.06322753531960
N          117.86892236765270      120.51985886945702      111.49016296625773
H          118.70794866548137      121.38525335150243      109.79512588979786
H          116.94084912413635      121.35806240741910      109.82345679668960
C          117.86741084436017      121.49894392557263      112.39459375701780
H          117.95184374495435      119.55216237265631      111.79102893293145
O          121.92108713942635      116.83528610941966      105.57132984324912
C          117.87508646104331      121.01559405799257      113.83516217318271
C          118.28530802518505      122.10369503858028      114.82435083365213
H          116.85849101867215      120.68567668044967      114.06317288624139
H          118.53000980920343      120.15025625288435      113.90875243037061
C          119.76028681737186      122.49895489193493      114.73039135314258
H          117.67952472652001      122.98894650317268      114.61840117404890
H          118.07359210110259      121.76659266095524      115.84031323367739
C          120.69882836312121      121.51383919381153      115.43491787615937
H          120.04246360749350      122.59073354838056      113.67929927260450
H          119.88768655331504      123.47975180427527      115.19544057034658
C          120.88949188903810      120.23341864503392      114.65093561043331
H          121.68630736420975      121.96963748206460      115.54339109122175
H          120.31426737227034      121.28076039430626      116.42624229837207
N          120.51315549037611      119.11717950947865      115.27887476848184
C          120.59703281648467      117.82452363246770      114.62308276361571
H          120.08383132684294      119.18901565713028      116.19074284710642
H          117.01918416935713      118.84130892269606      109.67685231581770
H          118.76317882743700      118.93545572330069      109.47023183142348
O          117.81187484129190      122.68818819089559      112.07645632383459
O          121.35948175179442      120.21509644536742      113.51273432149367
C          120.15475445881778      116.67064952608600      115.51349667097888
H          119.97223800658446      117.85603876341716      113.72234055725019
H          121.63329614978454      117.68283587938710      114.29763128468439
C          118.69863682012642      116.81373142751508      115.95825257711871
H          120.26331276134593      115.75587244460979      114.92980142987486
H          120.81448293959764      116.59641101372215      116.37962689994363
C          118.08523531684904      115.49721176722063      116.43536945953743
H          118.62940117835302      117.55162227880002      116.75641449532944
H          118.11909515420132      117.18410400630930      115.11089100473636
C          116.62469134810712      115.69868478438332      116.84105782464634
H          118.13465732693940      114.77343802986698      115.61983015832017
H          118.65950606231246      115.10306455094265      117.27431844115267
C          115.85331959489412      114.39993048826634      117.05902435065479
H          116.56928333056213      116.29545554288929      117.75154847100006
H          116.12489273370885      116.25484838508494      116.04658896206536
N          116.16016028744750      113.81702851895270      118.35073337331342
H          114.78107241648173      114.61103114864009      117.01449242687326
H          116.10516346140929      113.68677659862219      116.26648310368563
C          115.48359841918717      112.83894110907403      118.97075971324784
H          116.76429319038192      114.37018497790707      118.94349594952816
C          114.43298445072706      112.09814789813800      118.16660024411816
C          114.43182751639324      110.59990225393344      118.47949471385428
H          113.46892213660119      112.54613759208901      118.42446182542119
H          114.59184426917697      112.24611369901875      117.10141082102132
C          115.58847478558876      109.91022738010858      117.76006899294754
H          114.52677232064065      110.45697344977012      119.55747008334704
H          113.48860913655842      110.15896368812628      118.15446832684636
C          115.57322532660521      108.38702046096893      117.91182604500095
H          115.52938204110687      110.14783253394202      116.69593426991378
H          116.53050507630884      110.29708445840591      118.14904499630229
C          116.63470975889891      107.78934363875480      117.00380639531701
H          115.77936962188940      108.10598064603815      118.94506327132321
H          114.59438418045679      108.00139742399017      117.62605095974357
N          116.28625380047255      107.76849663180889      115.71159426223112
C          117.12850929846680      107.23997115882824      114.66244335383421
H          115.33209368943113      108.01008736946592      115.45516280491476
O          115.71745454410197      112.56150757338629      120.14401410899643
C          116.34356660728352      106.29755938646196      113.75599953826872
H          117.54353570325158      108.06177456897069      114.06739648234391
H          117.95728409789201      106.71156020693122      115.14014979872866
C          117.23248788191000      105.66023165905418      112.69085992514241
H          115.89457332968628      105.51407833905884      114.36891404073526
H          115.53379679561627      106.85277382190708      113.27837518535958
C          116.43466582320053      104.68858366635797      111.82271163581038
H          117.67597161927567      106.44048632004545      112.07255781305498
H          118.05092560113613      105.12268224770183      113.17394645402958
C          117.29022636593149      103.93844574723866      110.80468855730825
H          115.96096188415393      103.94915703654348      112.47231827165849
H          115.63460874304529      105.22153079247079      111.30428374979741
C          117.80597349517915      104.81184590246696      109.66546789863936
H          118.13864150618429      103.47698573833998      111.31172867757942
H          116.69169969730856      103.13956034245098      110.36340953117173
N          118.50831009122163      103.98370015105625      108.70635529974541
H          116.96534834272862      105.31443244162780      109.17175379822801
H          118.50411114447860      105.57160848127845      110.02182330562194
O          117.72748089107500      107.41174012721127      117.41167377841600
C          119.55242893098109      104.39179288834852      107.98512826175369
H          118.15441336593766      103.03831426281127      108.58780884302972
C          120.14624815461349      103.33436336527224      107.07389749124140
C          121.67329722009440      103.38454930453787      107.10775621868073
H          119.78239112467973      102.35214082265735      107.37157266508650
H          119.79542806528660      103.53073915997597      106.05824731836412
C          122.32101234919674      102.34640771166524      106.19317876144937
H          122.00177481197014      104.38352024992555      106.81701943920825
H          122.01167036648418      103.22515422993318      108.13407844452372
C          122.09434683610951      102.67415224965930      104.71534723724382
H          123.39486152621502      102.32994920095112      106.38942446919829
H          121.91673577511369      101.35875475673551      106.42557522624774
C          122.90482599029045      101.81596035049120      103.76885438781656
H          121.03987933924054      102.54140399547470      104.46290079269886
H          122.36483062302314      103.71502011232792      104.52880980500777
N          122.65237848594009      100.50337608482101      103.83066726637243
O          120.00158566822519      105.53469492128278      108.04229644215319
C          123.19847451413598       99.53788983560187      102.90014509946614
H          121.97918825433392      100.16270543976657      104.50009051439922
C          122.13363749864850       98.53824108866282      102.45123268619791
H          123.59033621520345      100.10250363885324      102.05034752429580
H          124.03475701285632       99.00384055126153      103.36584244565061
C          120.89849461673067       99.21513132075356      101.85689678695248
H          122.58015268014317       97.87056418311026      101.71377092020495
H          121.83568428051909       97.92986416836517      103.30762627190676
C          119.80126910957395       98.20011983219102      101.53086173505282
H          120.51620262537342       99.95227839631018      102.56428737334285
H          121.18224909286741       99.75094234141135      100.94870528229107
C          118.47114717224744       98.86482991146465      101.16710448588843
H          120.13054031256611       97.57909211559200      100.69648332520524
H          119.64374535697499       97.54309890737841      102.38813987822103
C          117.75744242723422       99.40714780745851      102.40323106400743
H          118.66040821023698       99.68166694787730      100.46676779648041
H          117.82391095944435       98.14171382235547      100.66838256305695
N          116.61808388168463      100.22744489237708      102.04650038538226
H          117.38536252359734       98.58697306743321      103.02031882207494
H          118.44653171559833      100.01054508625259      103.00234085483991
C          115.47902019520484      100.28329391894131      102.74506614555942
H          116.76059613119747      100.89300486810448      101.30274455542792
O          123.71762425175179      102.29097124928219      102.97639011271296
C          114.47730244127305      101.29963419322485      102.22554464484382
C          114.06828004909897      101.06051441628094      100.76906050165287
H          113.59490800229933      101.27631799274513      102.86693853318985
H          114.93518323360071      102.28652675150016      102.30907101295384
C          113.04151157528149      102.08081382594952      100.27207974487850
H          114.94495649194431      101.10542451630471      100.12034428835543
H          113.63700647967546      100.06217497431209      100.67736262816145
C          113.58095356446387      103.51633388034554      100.24796160451835
H          112.74191309132149      101.80004168064330       99.26006711191891
H          112.15689947078609      102.05427439269862      100.90854419780770
C          112.64896863615041      104.42579307223471       99.47116148253575
H          113.66499419274970      103.89840701913459      101.26544609488454
H          114.56327723514674      103.54814293544054       99.77464069163265
N          111.46329631254892      104.60871202394355      100.04046855306993
C          110.36028304789403      105.36176524962080       99.48355002966449
H          111.30090003760237      104.20169839546573      100.95793519286576
O          115.27285447893158       99.58171527286655      103.73336289616221
C          110.03307274006043      106.59598183412758      100.32543480300200
H          110.62191246995467      105.65885158315496       98.46617059017137
H          109.48578164901635      104.70516708337703       99.44338445249011
C          111.19886120035186      107.58198306443443      100.35450108270933
H          109.15581122593937      107.07926870265094       99.89321099559841
H          109.78647593026395      106.27372927566067      101.33773590838244
C          110.81973280970760      108.96285253628345      100.88336683887913
H          112.00933243537213      107.16851435793079      100.95684214071827
H          111.57326399199927      107.70365998712248       99.33595187866608
C          110.37416439822447      108.98692038741756      102.34216857713419
H          111.68323332600791      109.62377446032772      100.77508742070083
H          110.02186184149807      109.37654968355882      100.26239363478483
C          111.46225488471146      108.52635307057504      103.30402153751639
H          110.10164654021955      110.01299774965743      102.59356199536880
H          109.48910399355022      108.36442331164170      102.47475098143516
N          111.25013363069907      109.07893117389233      104.62662006075260
H          111.48481779627386      107.43164648577644      103.36840542918621
H          112.44881143395236      108.85177183982120      102.95825416641320
C          112.26405112078284      109.20161699529898      105.50107159595966
H          110.35231559163171      109.50708463879535      104.80257268314743
O          112.99007394436150      104.91994970010900       98.38852197312065
C          111.85423679836937      109.82185348859774      106.82923910407328
C          112.97344655129693      109.83862784363045      107.87377588549032
H          111.49112666416113      110.83299779724028      106.64180914215764
H          111.01282248451210      109.23344518563120      107.20218936222317
C          113.86233545361675      111.08209450865036      107.84052149743100
H          112.52775058819756      109.76372312643515      108.86675985356017
H          113.59747690531113      108.95604836609023      107.72362034885182
C          114.89145326486286      111.05887002441347      106.71066251102626
H          113.24574515629516      111.97814783480806      107.75014174409955
H          114.39556760436238      111.15002422004105      108.79175597949363
C          115.74422144458734      112.31195732981202      106.70060076570410
H          115.52866252545692      110.17885445531216      106.79315764944657
H          114.38134350589500      110.99184077353598      105.74812893759844
N          117.03688785515928      112.09886586180200      106.45856432397213
O          113.39128848701260      108.80467305401554      105.24417409041475
C          118.05607070414166      113.12326805220940      106.38452374326801
H          117.36081852828623      111.15541291308912      106.27643181638000
C          119.06052040441156      112.80754212154832      105.27678539221351
H          117.56389373315506      114.08295264105959      106.22291765289440
H          118.58505047506358      113.16490458850477      107.34440310712772
C          118.52018364913707      113.02207823505202      103.86223879043614
H          119.95834225424419      113.40575107799251      105.42397806719514
H          119.34244038333077      111.75757895967320      105.37473344839864
C          118.27020308866366      114.48454794157644      103.48963206337912
H          119.22943699720035      112.58954475180542      103.15392105423068
H          117.58338982936722      112.47164581300994      103.75913894394053
C          119.53583427311234      115.34027345465181      103.50593372357773
H          117.83300892295610      114.50663590750082      102.48872909003701
H          117.54342356514933      114.91002498691348      104.17860350955611
C          119.26199303153727      116.78153354465921      103.07967188557178
H          119.95769118080470      115.36430423618921      104.51012961985084
H          120.28276189018807      114.90567641965438      102.84028397546072
N          120.45688829151848      117.57228158956137      103.28135596825025
H          118.97354558048778      116.81625383080726      102.02612128073216
H          118.43889510828181      117.19004602247840      103.67791901487247
C          120.77912230435358      118.73990721360964      102.72573800289791
H          121.06995315641062      117.24097657507112      104.03079319506723
O          115.26885635432714      113.42974745206638      106.89975075050609
C          119.78583284293786      119.31471101207794      101.73222238154104
C          120.01326064500266      120.79539953623471      101.43475611817594
H          119.88792597122209      118.73812381481001      100.80971771900182
H          118.77279892554508      119.17047350959982      102.10806509411107
C          119.48552052175241      121.68198080434638      102.55925824558160
H          121.07890663136087      120.98283864117259      101.29262001898626
H          119.49447406891336      121.05445584114044      100.50948502391377
C          119.50620033752725      123.16579667663756      102.17459420035630
H          118.45321349584002      121.39775361059294      102.77599069041599
H          120.07783010182699      121.52750422364419      103.46281088797696
C          118.66483881732027      123.94499436641102      103.16306046289800
H          120.52736611243489      123.54629035921768      102.18091416544554
H          119.08298403830885      123.28471963118741      101.17643146844907
N          117.35186351489411      123.86200101770025      102.93842586585950
C          116.35691763206800      124.39091388765809      103.84451738419234
H          117.01461625601492      123.37482387828831      102.11189864660419
O          121.84942227875315      119.29286147247991      102.99594216216757
C          115.32033605296759      123.31626804499217      104.17239863475700
H          116.88561035779631      124.70599910970833      104.74763505390492
H          115.87704102870855      125.26761212896344      103.39807424544931
C          114.51047316250725      123.62370510413153      105.42866051790081
H          114.65794629997499      123.19669427402798      103.31323657433347
H          115.84793677749133      122.37375466493529      104.32738144760559
C          113.75670277420907      124.94890300614334      105.36776767569306
H          113.80231124388618      122.81136929080279      105.59777612412691
H          115.18456314812818      123.64978542175457      106.28525575821403
C          112.83125975444020      125.12179592198312      106.57156172829170
H          114.47935017241562      125.76588434684088      105.36074932244182
H          113.17395197187804      125.02313927784100      104.44968035324629
C          111.59908738050375      124.21916308300095      106.53633219207471
H          113.39329251319207      124.91001531736956      107.48003980961802
H          112.50530962757398      126.16140508087607      106.61692984222724
N          110.38155839902623      124.96973362186996      106.28104220071543
H          111.67870080941584      123.46874235048737      105.74631724003102
H          111.49742625441890      123.68705310215924      107.48726677034593
C          109.26688623327337      124.38892981455808      105.83244373318068
H          110.40398934956571      125.96662152852477      106.42862849023157
O          119.14393608670660      124.55967136697863      104.11592959762515
C          108.09415714945514      125.31862084358285      105.59783291494406
C          108.19673542861167      125.96834291918940      104.21386915143559
H          107.17241529482244      124.73721299631598      105.66269454738466
H          108.06889030948243      126.09040594713592      106.36771677426360
C          106.98946792351563      126.85569595023252      103.92433424594265
H          109.10424372644127      126.57353442127375      104.15244262497048
H          108.26174500947107      125.18748904775524      103.45267077902002
C          107.04227231683520      127.44849563196288      102.51156180740207
H          106.07164529888054      126.27423225487894      104.03503745017906
H          106.96402733559762      127.67316847117191      104.64733805690001
C          106.76860552208609      126.38093728322323      101.46985388210196
H          106.26572879045034      128.20910598129373      102.41528190607853
H          108.01706966962496      127.90240790516928      102.33831438290387
N          107.83074490880246      125.98641493818130      100.76248507243112
O          109.21175105865164      123.18221661019950      105.60288300844856
C          107.75987552510229      124.95014358972662       99.75383208976658
H          108.74365747234596      126.36446415480891      100.99257595262954
C          108.64292686000599      125.23588344847977       98.54320450448340
H          108.05469446686308      123.98729711114338      100.19034022555348
H          106.71357343076021      124.87745518829537       99.44580730928851
C          108.66458328615462      124.01321655572997       97.62707818322016
H          108.26694569996629      126.10804107678550       98.00562719183151
H          109.65708694915129      125.46211363385925       98.87821507234132
C          109.60158708069221      124.18412642931439       96.43340865068753
H          108.97285111119763      123.14964019170252       98.21839694684520
H          107.65148428604789      123.82558663395044       97.26502867203132
C          109.49151993910088      123.04026167024115       95.42489516164166
H          109.35880705922146      125.11933775323318       95.92392157191142
H          110.63179080264470      124.25825242208255       96.78721507729833
C          109.93161221934572      121.69097624411938       95.98807378042456
H          108.45800435608867      122.96451240132220       95.07776815307886
H          110.11658675051181      123.26212096009145       94.55809323134635
N          109.98942102883545      120.69720052185885       94.91953602677631
H          110.94167691953982      121.78375727535170       96.39620978907419
H          109.26035403378685      121.39110327142524       96.80706900582022
H          109.08548257757390      120.63826052209882       94.46279030130756
H          110.18585860081075      119.78429450018815       95.31529076418819
O          105.64197593449235      125.91426619431947      101.29801120283311
C          112.69628957146215      109.23420902035153       96.25920901839267
C          113.14799985567430      107.98679525845233       96.98233385619160
C          113.49485355299642      110.45890898462855       96.70661240492545
C          113.09435520452097      110.93572103748491       98.10561987197352
H          114.55156483447227      110.18649299593642       96.71094641479857
H          113.35737241398168      111.27034610616019       95.99194281884697
C          111.81990258238723      111.77798014771302       98.06837071047858
H          112.94986874919415      110.06446955332255       98.74852791111702
H          113.91059458323426      111.52413072983239       98.52456182900939
C          111.22062272718038      112.09961182659758       99.42466771025811
H          112.03584757540854      112.72719226594556       97.57006035178371
H          111.04291480073128      111.27230062952617       97.49202701425480
N          112.06090515640770      112.52390405431109      100.36762056481832
O          112.23980916756683      107.03451252327088       96.99735143874076
O          114.24471828023906      107.87100376092972       97.48922919619169
H          112.54696003139685      106.19949263215651       97.48011985807497
H          111.62536785377634      109.35803695790028       96.41792997259023
H          112.85195018848972      109.04898967555197       95.19353619485099
C          111.60425630847399      112.90840367613966      101.68784244350390
H          113.06376434731678      112.52261889431260      100.22174392504749
C          112.55132920298600      112.39956640639313      102.76751028697839
H          111.53509715166258      114.00029050274507      101.73165503317084
H          110.60389784237272      112.48682345853628      101.82033339668334
C          112.00211950730554      112.61334144696370      104.17563040842990
H          112.71726321625971      111.33215060322576      102.61421666795803
H          113.51228452567250      112.90461326829582      102.65841618689771
C          111.75866382530670      114.08137503441834      104.51579287184975
H          111.07109492667735      112.05341884317474      104.28618918780836
H          112.72372119218221      112.20612521101464      104.88508004279861
C          111.47816356293656      114.26207132776183      106.00644076597769
H          112.63930446977453      114.66423765412563      104.24428422559244
H          110.91040099803317      114.45723341351851      103.94345340075816
C          110.98779266985811      115.67132634809097      106.30199535213895
H          110.72319094768841      113.54370727010961      106.33022676583607
H          112.39350405995393      114.07142565000898      106.57030246920935
N          110.78556051304737      115.86556049298333      107.72121770686972
H          111.71491690553653      116.40288707859474      105.93318683888833
H          110.03548822603352      115.86685886722728      105.79948018404562