3795
 energy: -5103.645563438028 gnorm: 0.000846764198 xtb: 6.6.1 (8d0f1dd)
C          108.69442385361668      129.39481737849164      108.37389699172046
C          108.87742646545080      129.42552617547349      106.87500134969567
C          109.65378677118925      130.40320443895743      109.04248189058299
C          110.56305327330837      129.77877604897782      110.09973375513913
H          110.27293044148054      130.88262317350382      108.28094644583354
H          109.06395811612805      131.18820268135300      109.51600683659156
C          111.58976395202811      128.79240715281242      109.53040968226067
H          111.09539186071392      130.58210879318213      110.60907947881130
H          109.94942549217707      129.26430493197535      110.84122876862114
C          112.66935481720341      129.50133806994634      108.73552930899241
H          112.07071077306564      128.26110180770883      110.35256755211650
H          111.09936413293369      128.05993707709692      108.89065086006941
N          112.43818534911921      129.57052762239741      107.42465612361535
O          107.89763164979432      130.01405581794245      106.24336209578291
O          109.86160339251590      128.96606439738380      106.32091751837797
H          108.03456474211528      130.07446550015891      105.22612067431635
H          108.90088170549188      128.37862388317581      108.71178679897560
H          107.65749915588687      129.63573701983532      108.59800538622240
C          113.35287632030477      130.18506380633067      106.48227030987215
H          111.56041670872942      129.22851708049902      107.04475450956471
C          112.85649900571954      129.94450714091050      105.06301182170877
H          113.44081189182980      131.25720288741346      106.69379606991164
H          114.34451076066480      129.74050488481089      106.62616286244902
C          113.91170134321528      130.24245181310442      104.00245813587826
H          112.56921691469097      128.89516115165546      104.97022895917661
H          111.96022700072919      130.54061978499669      104.88193671511536
C          113.42742975748452      129.78348628892093      102.62847347985178
H          114.15100823356420      131.30682799689541      103.99105666845702
H          114.82217627777223      129.69528540397775      104.25605440177556
C          114.54729058388753      129.74075307512510      101.58971142062005
H          113.01434912859287      128.78064853021826      102.74107749948152
H          112.62224357949910      130.43308966586494      102.28068611125218
C          114.14208632131839      128.93312308337428      100.36289898260992
H          114.81390103535324      130.75157436869446      101.28010584280679
H          115.43161049744909      129.27854658859314      102.03187705028969
N          113.98387582537713      127.53367814073103      100.71011167880536
H          113.19898206898999      129.31070903144087       99.95032748129108
H          114.90024163954679      129.01647959366159       99.57560882980825
C          113.53612824803788      126.61690611587058       99.84606098770176
H          114.08130476648533      127.28704387589892      101.68873182401376
O          113.68300501765324      129.96936409285010      109.25292845633115
C          113.41121157219254      125.21640914328566      100.43025790529346
C          112.13369848739437      124.52167039500037       99.96081401531242
H          114.27741639180995      124.64835357198172      100.08250420186531
H          113.44094844767477      125.27521792058825      101.51773926947129
C          110.88443069507184      125.11164546120199      100.60935917438971
H          112.05923108933959      124.63235037469455       98.87701969214878
H          112.19107930057838      123.45755221282005      100.19331751147759
C          109.61675429841003      124.44162100951267      100.08008855247218
H          110.93805407428394      124.99494607318231      101.69514947253820
H          110.83842645299518      126.18106458619123      100.39490710684414
C          108.34995940572944      125.15130718658904      100.50886009649058
H          109.63391575012450      124.47841916311894       98.98677833938625
H          109.56509961035167      123.39907828358696      100.38898798724263
N          107.31392951142993      124.34776843227175      100.75982938529089
C          105.99266516963559      124.83702011593834      101.09797469377637
H          107.43723929330497      123.34287249907467      100.70204222315364
O          113.29361558161266      126.87095041235429       98.66864225301217
C          105.24365978516977      123.84775460976459      101.98293761118606
H          106.11533856892369      125.79727358865759      101.60820831591283
H          105.42199057577608      125.01823332188127      100.17807170186218
C          103.89311213595414      124.40545370159637      102.42890305088999
H          105.10193600557574      122.91445186042885      101.43549435955175
H          105.84637423656022      123.62351107083798      102.86509395950038
C          103.14655687602861      123.41942257836071      103.32736232142464
H          104.06708776205271      125.33062917995794      102.98239802813691
H          103.28779074961700      124.65210968946197      101.55463132139364
C          101.98745860148922      124.08576994530419      104.06848690453953
H          102.77416193321665      122.58500657382579      102.73112631915488
H          103.85486119696371      123.02371774190100      104.05292417477945
C          101.34076303302184      123.17240855843419      105.10803130203971
N          102.25729510006197      122.91272141708691      106.19803857985340
H          100.44026404445950      123.65741995073576      105.50062760815644
H          101.03640604807801      122.23150695887492      104.63291745524948
C          102.02384808757554      122.22490638729506      107.31838985393746
H          103.22204589988671      123.21237334562881      106.06637740479023
O          108.27151468770303      126.37874418834423      100.58791129782377
C          100.63339746817975      121.64796802765184      107.50127687484844
C          100.40979687330473      121.13024712318445      108.92128989723963
H           99.89061708180317      122.40983049175223      107.26172150978205
H          100.51922400229104      120.83554313042247      106.77903851361188
C           99.11603311738480      120.32702479066448      109.05567754824634
H          101.25570600834615      120.50817493565354      109.22028799953047
H          100.38687962877222      121.98477837680974      109.59988322653601
C           99.26851753601065      118.88947772248916      108.56132164629021
H           98.83150595082381      120.29067401404660      110.10817105783177
H           98.31815000264602      120.82715252611085      108.50595622393263
C           99.90801124250262      117.98263634498156      109.59360412732293
H           98.28665238248080      118.45323349142832      108.35800396754979
H           99.84400382144017      118.84077915341391      107.63802947669757
N          100.51379549940742      116.90334478044822      109.08988922465309
C          100.96443710848267      115.82090758184616      109.94181983990057
H          100.52402547531277      116.75485219351167      108.08789375471103
H          102.35308308817366      124.98009075759717      104.57621217227604
H          101.22348229527699      124.39485978018806      103.35376200999247
O          102.91533553028060      122.06320141012050      108.15308718591690
O           99.83069597731722      118.17942350301145      110.80591672491956
C          101.18317369955066      114.53439664222877      109.15188073386038
H          101.88746338451671      116.11555118638279      110.45685042844295
H          100.19929105401872      115.66420660103446      110.71161384294791
C          100.91513680109600      113.29270682056328      110.00201905554697
H          100.50889214030825      114.53287596454405      108.29290189565114
H          102.20627413826115      114.50320762831555      108.77253817237018
C          101.13909081313166      112.01829207594577      109.19210135400503
H          101.57383494999426      113.30054659019630      110.87211963034275
H           99.88551354731000      113.31924329749701      110.36566612175567
C          100.65342935048892      110.75002778415730      109.89398409756838
H          100.60067818780354      112.10621677188506      108.24647898311601
H          102.20187983778568      111.93295752751020      108.96159484838977
C          101.40982985441084      110.40691411758756      111.17342712752348
H           99.59810042394284      110.86033299194392      110.14565547128284
H          100.74285539804767      109.90876209222678      109.20502764404354
N          102.83439584156481      110.30501476829474      110.93974264687863
H          101.26199818399732      111.17054753688454      111.94172711935795
H          101.03472526097642      109.45582005009541      111.57231522945689
C          103.73575796817367      110.51221632394660      111.90479580425881
H          103.13207229236805      109.96270507684054      110.04060089508209
C          105.19398836169174      110.44782911289090      111.51237227682067
C          105.53619923183427      111.14110654789451      110.18701117620306
H          105.74831288465252      110.90703612802385      112.33292980669795
H          105.49756401836787      109.39863338443855      111.46580573238715
C          105.60048497118643      110.17589404945015      109.00366063854024
H          104.81502697536685      111.93580822051345      109.98472608130523
H          106.51058405249461      111.62095553187488      110.28825684602273
C          105.77311393352169      110.91868369566932      107.67329054592931
H          106.42706977630468      109.47849734151016      109.15071131640708
H          104.69493506726698      109.56850034992068      108.94459128219637
C          107.19061494293962      111.40558664097782      107.46208305627256
H          105.54054429117109      110.23699904882700      106.85277687887030
H          105.09041215823292      111.76830148539392      107.64795979558185
N          107.43291730642490      112.67422694629890      107.80253400552812
C          108.69911856923659      113.30551135604890      107.47545405179892
H          106.67954155578110      113.24228949886400      108.17471229383604
O          103.38972020854588      110.76455662124052      113.05933486976531
C          108.89982719583928      114.66003376247798      108.14834351531141
H          109.50494620732667      112.61539778837086      107.74333582947854
H          108.74332957131065      113.43928419387728      106.38616057258824
C          109.89813027181710      115.49255734004424      107.34009082610569
H          107.94355653245273      115.17930175240147      108.19743968958124
H          109.26192680868839      114.53042111816015      109.16879665232706
C          110.49554794401239      116.68618856640106      108.08008843938536
H          110.72650240538513      114.84798845932883      107.03925860054423
H          109.40638331542732      115.85097160538827      106.43502404229265
C          109.47793630112545      117.75521358759717      108.47807820302161
H          111.01054986232872      116.33206772818808      108.97610197307517
H          111.23692454682542      117.13781774274894      107.41824553310708
C          110.19841779005884      118.97093204032518      109.05322767567974
H          108.88126968938911      118.04696382882526      107.61193328885115
H          108.79957991289616      117.35113285937636      109.23241204728880
N          109.29960813924903      119.88024416320961      109.73535970132097
H          110.97109058083383      118.63175593812542      109.75633136961876
H          110.69970784451031      119.53881014243055      108.26568412738835
O          108.06793799857580      110.67825301202934      106.99562579974999
C          109.60686930352756      121.16970521989279      109.96337595219198
H          108.50425950502323      119.47510215918280      110.20335582556103
C          108.61491297811274      121.91549689973873      110.83114825701624
C          109.07275677543687      121.97807520102934      112.29338927043739
H          108.54205890969942      122.93557363896520      110.44866598510076
H          107.63221958244991      121.44403445361723      110.78985256781145
C          108.05094629429583      122.76331887817409      113.11343882611503
H          109.17744656913038      120.96873360016352      112.69659909412852
H          110.05136092636775      122.46179507759804      112.33768319333284
C          108.50046400132288      123.05811711250919      114.54711719429896
H          107.87317246664077      123.71581517391049      112.61085543953824
H          107.10868983382288      122.21428412288230      113.12610852624411
C          108.26188770764254      121.91797582164492      115.51784963387820
H          109.56516961870805      123.29369884050348      114.55755151441895
H          107.93482712270828      123.91377425398335      114.91561996581859
N          106.98847011069095      121.76818400903788      115.87962906384220
O          110.60599071518594      121.69886926133910      109.49667458448191
C          106.54808710540127      120.81338658668246      116.87087717779859
H          106.28320775722050      122.38618266496809      115.48938305931452
C          105.11948536156788      120.35331680511013      116.61356998239123
H          107.24972110699122      119.97555251605567      116.87137116017107
H          106.58967681051884      121.28327693446532      117.86362128124094
C          104.92208220716762      119.53922117352757      115.33616265666841
H          104.78835155954421      119.76648203861014      117.46952948365357
H          104.49169166199101      121.24448487675767      116.55564521604457
C          105.66091277534397      118.20034812700131      115.31862782296240
H          103.85057855757330      119.35122976804499      115.22859983381838
H          105.24294091432911      120.12599422658852      114.47291278618277
C          105.25128569599541      117.26659035703889      116.45878873662792
H          105.45733602000003      117.70815845879513      114.36476966409160
H          106.73631529741469      118.37792204915756      115.35663008460104
C          105.60213299332840      115.80334928874294      116.18519176022231
H          105.73102951819013      117.57709724388270      117.38864936586457
H          104.16979085044936      117.31614079331045      116.59925654220032
N          107.01405859246965      115.61219926354981      115.95462157674018
H          105.30677016082375      115.18516579410104      117.03534844511012
H          105.05127683367786      115.45798321081028      115.30466257978053
C          107.80329217680273      114.79386444280205      116.66468779146963
H          107.34522514930143      116.01589318166788      115.08687930279349
O          109.17850142847358      121.22947243068755      115.96877668784836
C          109.26994314526182      114.86567397564669      116.25884875422886
C          109.97107357680049      113.50999365289132      116.28316496157919
H          109.33608975025317      115.31745522245875      115.27100296377576
H          109.75476556559856      115.53054872460632      116.97940223296602
C          111.47217319821945      113.61135038503200      116.00501308057210
H          109.82144821152400      113.07011343166522      117.26979722682276
H          109.50179478212767      112.85328059298116      115.54749619375265
C          111.78227891318213      114.29341924203663      114.66992807456252
H          111.94957783158792      114.16194919921992      116.81760469074196
H          111.89574365373410      112.60513101365342      115.98629090466936
C          113.24501453667962      114.17500318047055      114.29378190463235
H          111.21235877670512      113.80475507426884      113.87882119434700
H          111.50265694140082      115.34368151524913      114.70175686018753
N          113.94186435093269      115.31566947100292      114.28208676369749
C          115.31993280708875      115.37390754821899      113.83952806062180
H          113.50801774639601      116.20680293701406      114.48476798191622
O          107.40411127862440      114.09352583891774      117.58739387971457
C          116.07350885494159      116.49782987432322      114.53671165183016
H          115.76989102065728      114.40054127950880      114.04445757178284
H          115.33800413616930      115.53049922140313      112.75349383180810
C          117.50273546057899      116.62360158683614      114.01380273294085
H          115.53351317578910      117.43247775218633      114.37416435063783
H          116.09266083185069      116.32123395483758      115.61298439262987
C          118.16304099812676      117.89449293189531      114.54098662940909
H          118.07847369319273      115.74888084022942      114.31957511814502
H          117.49067329928825      116.64996674455409      112.92211796835639
C          119.63787498258499      118.00995242581557      114.14632625885140
H          117.61840013562693      118.75301506290334      114.14600745272770
H          118.06212573612973      117.90997845582737      115.62758640556049
C          120.55988627225695      117.18349097190718      115.03775295623674
H          119.76114148381976      117.67358961070332      113.11670612569887
H          119.94751308615658      119.05599753067145      114.18948604320248
N          120.46044714347948      117.62647747700717      116.41502467126142
H          120.28196843203604      116.12705537604907      115.02303517267740
H          121.59682583850709      117.25491815305850      114.69187021256481
C          120.51302908710636      116.79247127264325      117.45580988766871
H          120.18263368424256      118.58326633902178      116.57012321419336
O          113.75485258028681      113.09023679256461      114.02374652946116
C          120.12845668277981      117.39775512280337      118.78947198993785
C          121.14831271698681      118.38955170592152      119.35697469834753
H          119.16254341707348      117.88962079912110      118.65278954172923
H          119.99590964637135      116.58386952066564      119.50541770194819
C          122.36880595735836      117.67512659266346      119.93103815377280
H          121.46919205063442      119.09445749011027      118.58754792116522
H          120.67371680554079      118.96458828867347      120.15602113358376
C          123.22189946962813      118.59113602476337      120.80646444363740
H          122.04333087844502      116.82990420178757      120.54166641446939
H          122.98359386057960      117.27389512881948      119.12365927778434
C          123.96063881237178      119.64363762237274      120.01435093182042
H          122.60433526776501      119.05586698785747      121.57605448079720
H          123.98551544533638      117.97351354818305      121.29135201912808
N          124.07630899295364      120.83819971011447      120.61595655894290
O          120.80952676086717      115.60584113532973      117.31774663761463
C          124.87216831150103      121.91613915166788      120.06545973978542
H          123.66701533411950      120.97660665318493      121.52696105423752
C          124.19275972128420      123.27129884964789      120.22300016318036
H          125.84854354348323      121.94323684730229      120.56290531087393
H          125.03134941619849      121.67019045000387      119.01433212123140
C          125.05314932334031      124.41123792640944      119.67789800957695
H          123.22931062364431      123.25667964305424      119.71149476544585
H          124.01849620989712      123.45264026955478      121.28475170299053
C          125.32844691478458      124.30299765015594      118.18049522931877
H          124.53620929913572      125.35373202708237      119.86792400230610
H          125.99812101757158      124.43724885381498      120.22393421481230
C          126.01876221857133      125.55460443619543      117.64254436506512
H          125.95570727416862      123.43474467336951      117.98098352371774
H          124.38210009901451      124.16692826442276      117.65473158120419
C          126.03316415321616      125.59876678113888      116.11932156620024
H          125.49300440348840      126.43815538971465      118.00590594819720
H          127.04372848119823      125.60457984646126      118.01093527820393
N          124.67771662068124      125.70617330907743      115.61940457838567
H          126.62753976736113      126.45632519539424      115.78139799891844
H          126.48099146185395      124.69104085221271      115.70215877000159
C          124.32426155899188      125.38646311084173      114.37771148687031
H          124.01479540532439      126.15353269345714      116.24890947326017
O          124.45978611869523      119.42608907443234      118.91410463615921
C          122.85241563998699      125.61906258951474      114.05430757866418
C          122.46148460741779      124.99048859653240      112.71764549603739
H          122.25182179781150      125.20375678758313      114.86358454370581
H          122.67873587855577      126.69792721093015      114.04010717771473
C          122.23897527564972      123.48536336834132      112.84806949157428
H          121.55473008704213      125.45336404941963      112.32475306524771
H          123.27251410269821      125.16060340240514      112.00521641785562
C          122.20753246342710      122.80464195805661      111.47902214058733
H          123.04439468263853      123.05193045486962      113.44338127981668
H          121.29534176035314      123.29239228435678      113.36180233432843
C          121.68368367943685      121.39036512074577      111.58675141440665
H          121.52973902414408      123.36891090767938      110.83043466469347
H          123.20094003578500      122.81779652002157      111.03112964660477
N          122.41531534689867      120.44200768907237      110.98755566449091
C          122.01556052976944      119.04947597875308      110.93315149239851
H          123.29184238777448      120.68106253761893      110.54976829033792
O          125.11680187567201      124.94015864722596      113.54914719841992
C          123.18017787831739      118.11016464960736      111.23049715699166
H          121.22369257685173      118.91933484644251      111.67371039921360
H          121.60730688947901      118.83791485191189      109.93895389704736
C          122.73366633568932      116.65352825190544      111.35429585812116
H          123.93213859051903      118.19967071106039      110.44288419075077
H          123.64107384979911      118.39702105566417      112.17744525084987
C          122.13043836874031      116.08707485135591      110.07022889916911
H          123.60369178187193      116.05753826113451      111.63530035080771
H          122.01592488396457      116.56629920767215      112.17112659277136
C          121.93222953246253      114.57586905617586      110.15858208866844
H          121.16728230813509      116.55860111996162      109.86973061101899
H          122.79603412106069      116.30915980319290      109.23532450017355
C          121.44970303302244      113.99414025771786      108.83208390078192
H          122.87551507085789      114.09450081442489      110.42235948882082
H          121.21373268012357      114.34573928147131      110.94669575314997
N          121.42030043197477      112.54834561611551      108.87705040308401
H          120.44629122386149      114.34852984432362      108.59020346580263
H          122.12648561115297      114.30406684960170      108.02792163734473
C          120.44363140245710      111.78341279954564      108.39263637182241
H          122.22578763408156      112.11515357055363      109.31363599087301
O          120.63032528533628      121.12854155088677      112.16275970938923
C          120.73267110295578      110.29499402834813      108.45731464359197
C          121.40732453901495      109.82995036000506      107.16154178788690
H          121.39420896885544      110.09455474177173      109.30013309341408
H          119.79738319818848      109.75073930917377      108.59075531964628
C          121.81522890849946      108.36070262463002      107.24764009236034
H          120.72040443720302      109.97414509291649      106.32591145279019
H          122.29325362114541      110.44222197871848      106.97882961671796
C          122.50370341691837      107.85539462786679      105.97289432351225
H          122.49722366925238      108.23284997588384      108.09068639106476
H          120.93430985342299      107.74315032253126      107.43620092852549
C          121.49370272440900      107.68766378096385      104.85280063606221
H          123.29070808836546      108.54214200093243      105.66362444892840
H          122.93382414317371      106.87324544503090      106.17486891197223
N          121.46883288454103      108.67706661733649      103.95662741188103
O          119.39972322134631      112.23295646486763      107.91667961592285
C          120.52792129739134      108.71750000279984      102.85836715887095
H          122.17188619812124      109.41218146209926      104.00238121595665
C          121.14086873524842      109.35257562720210      101.61684671876637
H          120.20292810189730      107.69195613335748      102.65887881502596
H          119.64696292302884      109.29444955134420      103.16629161012082
C          122.24006591750580      108.49259023067476      100.99907994615914
H          120.35053207330608      109.52139634074953      100.88271837646613
H          121.55156911600196      110.32310678015826      101.89723666582269
C          122.74454208848813      109.04430949371996       99.66383730697703
H          123.06712295824859      108.40880063320425      101.70562089147570
H          121.84445271911304      107.48811908895971      100.82466200840861
C          123.29440325524956      110.46986110880515       99.72119500366814
H          123.52737019506031      108.38344804510692       99.28530463492883
H          121.92253267689189      109.02264956072877       98.94454015756367
C          124.47474778474937      110.63227689231600      100.67712401855573
H          123.63317733775310      110.75482177244390       98.72338002301201
H          122.50025177856591      111.16495821093670      100.00177264384479
N          125.08533345537759      111.94577623757553      100.48564941337474
H          124.14879573616855      110.46731334636159      101.71556985741367
H          125.23780296352740      109.88391640929467      100.44217390567046
H          125.84512815841886      112.06777828783798      101.14542995575050
H          124.39761674778856      112.66660685472378      100.68020738966744
O          120.73819574566765      106.72058618581636      104.80613754700889
C          105.82029397580276      112.91745019862921      131.25042973900352
C          106.86751510830115      111.84795801174651      131.06349976993491
C          104.73547394246577      112.94374068456949      130.16632901928730
C          105.20223270273813      113.59097952518873      128.86482377411397
H          104.37556587701560      111.93121337897833      129.97528133582853
H          103.89671563943631      113.52120515131739      130.55808367595279
C          104.02971478280280      113.99110131548323      127.96242968724476
H          105.76648825536829      114.49522740996576      129.09862868121064
H          105.86843210429925      112.92411966445086      128.31724202635053
C          103.31063755324446      112.79167064198832      127.38434842151067
H          103.31397490814666      114.58688337778226      128.52953913315704
H          104.42307652933954      114.57949264875721      127.13572614200784
N          103.96557360528945      112.20022221364856      126.38518170111733
O          107.08090459458724      111.16659828924494      132.15484179813754
O          107.47020649527107      111.64410959741183      130.01768745120000
H          107.81845283692174      110.46303040029738      132.08178643698599
H          106.33524780082267      113.88134766234789      131.25908315215497
H          105.37176260539997      112.75677371524178      132.23065421939503
C          103.52123004481348      110.99429889269614      125.72333831844468
H          104.85177092171760      112.59095943400112      126.07943588942561
C          104.71492304720562      110.21860076403911      125.18024262298522
H          102.97749585254824      110.38903038747290      126.45077131188464
H          102.82565318278026      111.24685128725606      124.91185587689607
C          104.37390092956272      108.76470237946562      124.86362581948708
H          105.09934609980219      110.72166796554009      124.29074886861110
H          105.50038863003351      110.23317859491897      125.93912852863575
C          105.56073232546912      108.05031535469085      124.21762517468530
H          104.11080967003348      108.25519870479563      125.79280180132363
H          103.50738871919486      108.71556519670192      124.20107353194696
C          105.44534775148779      106.53192693214827      124.33749694709303
H          105.62293640253546      108.33353936537803      123.16452256090891
H          106.47603045596482      108.38502883088412      124.70802083049006
C          106.56519722293137      105.80311637139762      123.60916885561745
H          105.46727376152042      106.24249384348887      125.39020468835150
H          104.49330964831499      106.21108068138118      123.91432866163302
N          107.86092716152929      106.21606917714003      124.10931220959330
H          106.44932860321836      104.72055587176365      123.73528947616893
H          106.52603553308049      106.01701572154892      122.53468287891228