3795
 energy: -5103.065669856594 gnorm: 0.000898814420 xtb: 6.6.1 (8d0f1dd)
C          108.74121304028574      129.31168419357587      108.41945250645654
C          108.95346548901553      129.31090350034347      106.92077236197406
C          109.67469402519731      130.35200779445765      109.07353949146832
C          110.56245396015839      129.77936544445291      110.17749777152147
H          110.31140312528338      130.80696751858665      108.31169136356490
H          109.06853779135052      131.15236898482519      109.50053617135333
C          111.60340970915311      128.77022905956713      109.67773278579283
H          111.08177286310412      130.60821106284175      110.65943591676650
H          109.93479821172197      129.30062228300153      110.93253047109638
C          112.68312733112342      129.44027917571074      108.84873069670326
H          112.08190687196860      128.29756642821351      110.53653163059343
H          111.12677256536357      127.99383837581253      109.08169585497207
N          112.45533710298166      129.43643173889498      107.53552696828882
O          108.01558231195466      129.92782207177771      106.26418151272905
O          109.93206422879931      128.80112244857727      106.40480291973340
H          108.17613678609554      129.97008644907712      105.24491443108978
H          108.95486622464612      128.30825663297637      108.78823844275362
H          107.69771692433063      129.54495247983584      108.62221120294836
C          113.37120007022688      130.02332458228196      106.57792847316281
H          111.57949000624700      129.07423790261205      107.16348611561357
C          112.82315798350396      129.85050377644444      105.16794202555049
H          113.52623896315889      131.08193334375960      106.81718247250723
H          114.34312544323672      129.52340366903488      106.67514803242810
C          113.87398510143683      130.11889608747455      104.09535983503788
H          112.47466137161845      128.82270074598253      105.05326434053960
H          111.96069926047871      130.50258115891242      105.02283713564401
C          113.36620966730483      129.68528683456776      102.72258173923358
H          114.15095470450680      131.17506889643784      104.08730071357489
H          114.77068773385206      129.54156086683665      104.33470569496802
C          114.47424226952079      129.65874475524802      101.67035414586897
H          112.95251530526609      128.68180265027843      102.82390861524826
H          112.56000832009326      130.34434301753112      102.39645855275270
C          114.06360223295437      128.85316855677138      100.44450845564513
H          114.73095660497559      130.67460645204207      101.36524353409057
H          115.36943807232718      129.20324463413800      102.10018763542675
N          113.91905630763779      127.45331681329803      100.78924963527474
H          113.11486356104908      129.22787186657374      100.04306039630116
H          114.81480224575108      128.94518847987490       99.65106661075590
C          113.50062438775834      126.54082569680578       99.89972165564841
H          114.00520222813303      127.20045327010705      101.76578537572833
O          113.69168238617549      129.93888205700736      109.34200171561343
C          113.36812341305665      125.13199206936252      100.46804804231373
C          112.09327070585769      124.45788845750465       99.96215897723721
H          114.23868622710657      124.56482398304456      100.12696772736479
H          113.38113726033113      125.17233944480903      101.55703399929001
C          110.84297518306037      125.01325138926985      100.63854057005221
H          112.02230951591177      124.62718037587450       98.88635418151085
H          112.15119194898253      123.38139727328975      100.13508265291243
C          109.57562643126896      124.41315145383984      100.02916358241690
H          110.87466894294599      124.80115088807423      101.71111303631935
H          110.81881769795598      126.09645164560290      100.51527286053208
C          108.31709124632489      125.10655477866101      100.50015549371598
H          109.61474676144526      124.54895642620356       98.94369721285159
H          109.50371708784246      123.34856290052389      100.24465680991288
N          107.28657879555699      124.29142114087914      100.74897246336351
C          105.97163933489043      124.77537148709162      101.10639974158616
H          107.41093884890114      123.28772404534696      100.67190539086769
O          113.28115481254736      126.80568055596643       98.72995710677462
C          105.24951495939197      123.79714904839798      102.02547284985768
H          106.09809480074753      125.74612513961929      101.59571990076630
H          105.37596573887674      124.93584269469176      100.19710333111749
C          103.90615541364436      124.35576940243031      102.48947251243808
H          105.10083361056016      122.85307610700835      101.49830632375800
H          105.87162185809927      123.59328793366174      102.89828381283101
C          103.17662655192397      123.37789581852202      103.40964035119651
H          104.08617751416863      125.28647550244112      103.03177677670904
H          103.28397338847168      124.59546585495345      101.62388279500121
C          102.04336962779985      124.05757733269046      104.17642367736924
H          102.78167635101694      122.54356236070782      102.82692862438398
H          103.89818987676838      122.98458654884620      104.12231875735839
C          101.37850853391429      123.13953780699586      105.19982046706197
N          102.28964664083277      122.81871443880328      106.27442820291111
H          100.49307256471801      123.64401746901913      105.60807484656536
H          101.03505443046267      122.22276208836416      104.70106327575874
C          102.03500565672967      122.08158618459640      107.36073104634737
H          103.25997922509194      123.12222976148350      106.16841456616488
O          108.23490829530483      126.32717083149943      100.61666865240213
C          100.63358717383748      121.51350963874667      107.50045165177278
C          100.38306933821333      120.96514344139233      108.90374181858445
H           99.89850220328151      122.28492669134845      107.26377795384832
H          100.52593123008286      120.71768219681964      106.75835816010616
C           99.09119502622579      120.15243009574891      108.98993148755065
H          101.22592812438367      120.34170255243936      109.20479864113423
H          100.33967694941958      121.80509873039901      109.59982579362371
C           99.27239458382417      118.72036371185489      108.48924522281966
H           98.77029942638242      120.10521190010249      110.03179958991410
H           98.30496633637352      120.65189020293627      108.42027179599664
C           99.91467166547486      117.82775173011287      109.53221691937684
H           98.30062544114431      118.26669166457188      108.27219681408722
H           99.85886402040826      118.68807920135605      107.57253273071626
N          100.62247214871500      116.80675984426942      109.04465100362749
C          101.10377737029042      115.74463771831419      109.90616742792189
H          100.68030352140219      116.67261287586771      108.04172026933999
H          102.43904149315658      124.92829122096920      104.70249214133563
H          101.28083708612813      124.40766557120726      103.47713858838713
O          102.90681738910465      121.86350062796529      108.19359610920596
O           99.75659197442073      117.99512834273675      110.74028559361639
C          101.31625735868107      114.44147747249436      109.13902147773834
H          102.03599133290523      116.05869471180898      110.38866940644886
H          100.35583963760554      115.60197620494641      110.69493331720030
C          100.99701636667378      113.21369434995191      109.99304094916431
H          100.66768232784398      114.44229740182662      108.25985125284559
H          102.34823759541523      114.38096839818211      108.79038044405513
C          101.21721936636951      111.92949845555867      109.19729578432192
H          101.63104336240606      113.21331636238246      110.88015084356866
H           99.95721126830928      113.26505377006065      110.32710285111222
C          100.70093909240255      110.66961207558502      109.89226973672466
H          100.70233623112449      112.02058842445132      108.23782279848020
H          102.28297175781678      111.82494394581175      108.99177410831336
C          101.45211920644924      110.29936375723824      111.16843512798827
H           99.64685272492950      110.80104426231185      110.14257252404001
H          100.76914644458503      109.83164975097763      109.19610849320853
N          102.87572849316027      110.18962844456338      110.94610559533109
H          101.31025499963117      111.05443120610049      111.94610481789454
H          101.06011882426563      109.34746963256057      111.54861860764397
C          103.76239364577403      110.47777636962860      111.91074656880203
H          103.18424522733646      109.77590004054099      110.08096331341672
C          105.22437466408624      110.43292722551881      111.53906809579115
C          105.56528640049001      111.11516426165670      110.20692278795265
H          105.75803327731082      110.91980326215823      112.35718691001780
H          105.55588732261137      109.39188768672815      111.50816158809651
C          105.65559949950739      110.13416193930522      109.03892440232050
H          104.83264590905389      111.89430316411436      109.98712540077993
H          106.53068419438509      111.61218765730231      110.30967672193744
C          105.84410501252118      110.86072800489461      107.70116680627234
H          106.48337679949920      109.44509186645010      109.21069244552687
H          104.75400793526063      109.52332595892793      108.96939989270686
C          107.25539035015903      111.36408243817779      107.49982102685183
H          105.63138308098391      110.16685764606466      106.88575506156521
H          105.15263422281332      111.70279450735755      107.65367742826818
N          107.48427006042090      112.63222386523742      107.85236525625287
C          108.74670696128344      113.26869784141238      107.52412973406273
H          106.72068538067541      113.19552238315285      108.21616363858787
O          103.39206312759670      110.79168638621698      113.03743356008381
C          108.93531849450378      114.63073956516241      108.18301561930254
H          109.55633142904435      112.58676893491332      107.80236454011265
H          108.79636464797065      113.39041604534651      106.43296039512258
C          109.94598795377728      115.45308558920925      107.38055756745479
H          107.97860809951403      115.14955408725000      108.20775193627257
H          109.28190005551492      114.51360582182656      109.20997543875392
C          110.54082305674889      116.64541046701351      108.12332941954111
H          110.77431528733476      114.80281858492977      107.09143408756704
H          109.46589174622954      115.80915420782350      106.46822810657474
C          109.52572881984707      117.72183172001695      108.50612229326163
H          111.04336639998779      116.29041253499334      109.02536732882407
H          111.28931647042991      117.09159481610165      107.46672136063805
C          110.25705652217518      118.92525187860105      109.09341082667294
H          108.94748300514141      118.02145938332767      107.63059475285300
H          108.83137293328309      117.32427766257575      109.24873057783532
N          109.36727007992171      119.86153648709798      109.74673668924675
H          111.00368429745555      118.56943857904260      109.81606874834389
H          110.78975718652862      119.47572311700765      108.31438334527934
O          108.14364664726892      110.65219090306896      107.03189002154127
C          109.68353634045337      121.15894634954229      109.91828970643019
H          108.58149500844128      119.47817799545055      110.24850655884990
C          108.70165330826102      121.93586350106879      110.76772027663120
C          109.14203684309634      121.99380866075522      112.23566567405379
H          108.65575720616206      122.95400074192229      110.37698385387601
H          107.71026684483958      121.48388835377048      110.72133020896158
C          108.09627772463993      122.75752877147930      113.04562029995851
H          109.25486772666606      120.98455090451749      112.63459548809024
H          110.11327202752170      122.49076911356299      112.29655268000457
C          108.53469717610346      123.06790289938982      114.47877758528742
H          107.89710926879160      123.70418465348151      112.53895177943880
H          107.16924986652580      122.18386430080407      113.05633182465930
C          108.33827987856586      121.92166643021180      115.45260864142831
H          109.59028387330841      123.34398989212910      114.49187043816092
H          107.93984907193830      123.90430796954142      114.84791886259706
N          107.06409961326320      121.67884885370283      115.75570287727999
O          110.67784178613542      121.66244639908238      109.41934748122168
C          106.66421119689716      120.71850539935325      116.76073968221804
H          106.33788543513906      122.26291909229629      115.35426190965779
C          105.21459291682676      120.29325981023695      116.57368073428675
H          107.34725179292991      119.86775421179864      116.71125603700311
H          106.77240849839447      121.17539600147924      117.75388866710486
C          104.94444704127199      119.46237904208577      115.31921074798355
H          104.90468308707919      119.73005086725563      117.45337225212975
H          104.60807474653437      121.20038043856290      116.53102896414350
C          105.63960484624658      118.09944197750416      115.30942018675410
H          103.86379517156125      119.31179290011400      115.25344717530413
H          105.25765734721493      120.02173746314247      114.43566393210320
C          105.26311962762441      117.21585007580278      116.50049957896105
H          105.37320704192398      117.58434999516665      114.38485628955010
H          106.71857388399616      118.24760487325211      115.28754976909018
C          105.60728675434883      115.74136123574189      116.27956878787602
H          105.77144979103406      117.56580696969216      117.40025517486356
H          104.18658485081403      117.27396900998446      116.67014504719766
N          107.01358358987720      115.55144973661037      116.01126195688867
H          105.34749447351794      115.16372286730113      117.16792112618661
H          105.02860996670340      115.35778274198080      115.43547988874576
C          107.82074585281752      114.73456913093011      116.70095875535898
H          107.31977527117715      115.94997017125756      115.13115967559460
O          109.28023483740259      121.30800178069661      115.94811045744129
C          109.28200178444830      114.83276997502986      116.27355989694091
C          110.00330444413312      113.48839861164559      116.30007769965641
H          109.33232414406423      115.27708372623491      115.28172743525919
H          109.76627474720513      115.50688342376317      116.98492564174356
C          111.50340035876253      113.61176889144247      116.02918898297678
H          109.85778950452604      113.04628088162150      117.28571263197395
H          109.55047545145126      112.82215175413884      115.56255402418833
C          111.80828993599468      114.26079368025512      114.67557198292388
H          111.96579216736447      114.19355462413787      116.82858381548867
H          111.95072084780350      112.61506050562230      116.04302173735215
C          113.28065159313816      114.19021580720090      114.33658620415041
H          111.27690931714297      113.71812028523730      113.89276106296217
H          111.48334313231845      115.29784308847982      114.66364361026578
N          113.93584731882908      115.35713622396844      114.30667782048688
C          115.31669129359611      115.43507689568673      113.88337524238318
H          113.47912206479086      116.24502378488131      114.48385775039337
O          107.45114045335468      114.02055559192391      117.62119935023277
C          116.05938712342299      116.55538410967451      114.59802501762185
H          115.77461265177021      114.46347087119021      114.08251377911859
H          115.34915051929788      115.60409260434238      112.79942423570449
C          117.48846537727141      116.68548208866268      114.07625725564544
H          115.51752052203213      117.48972244503091      114.44339036220708
H          116.08020826894949      116.36674391883369      115.67196717958849
C          118.15807123019160      117.94285223024573      114.62121712588845
H          118.06263754603295      115.80267938466339      114.36481855184672
H          117.47728948119264      116.72934836902672      112.98417550124047
C          119.61989966002731      118.07764897094135      114.18793497344352
H          117.59996004769184      118.81013812127662      114.26467160183391
H          118.09036703785911      117.92561257393980      115.71019772330021
C          120.57241073811242      117.22136031782361      115.01954456907589
H          119.71262379944591      117.78513068978300      113.14094254327276
H          119.92777162351436      119.12346133489754      114.26058553242714
N          120.50225171762803      117.59728336478939      116.41594044942011
H          120.30134209920062      116.16460174666989      114.96587561915017
H          121.59789865649530      117.32309532151814      114.64953762046062
C          120.44456932642335      116.70592655713266      117.41102752021520
H          120.33498289321788      118.56927817821442      116.62261168201877
O          113.84006396705279      113.12121281037783      114.10949104422275
C          120.10819180732750      117.27255903283022      118.77195856179688
C          121.11845358364683      118.27503604801137      119.33864985732069
H          119.12827749322393      117.74929551253825      118.67299661019268
H          120.01117683030714      116.43970479339502      119.47140419086001
C          122.37849671736679      117.58159229063884      119.84928042266006
H          121.39341987333238      119.01858834733754      118.58762134341113
H          120.65201710980244      118.80888937599246      120.17021858813359
C          123.23016604756597      118.49675469696336      120.72757835725113
H          122.09936758070191      116.70928703620613      120.44272193620252
H          122.97886453225985      117.23026739152706      119.00981389764155
C          123.91228271552167      119.59474532195958      119.95401868181611
H          122.62576694148802      118.91905963738215      121.53160897283978
H          124.02442691130841      117.88038303071563      121.16489762977150
N          124.09797202434274      120.74421012536027      120.63176825918235
O          120.60134012971263      115.50502541864591      117.20377500114525
C          124.87130127512586      121.84342759007210      120.09654366044903
H          123.72950741285595      120.83821174481101      121.56535670868710
C          124.15589953511309      123.18392249681452      120.22851598531923
H          125.83541092813391      121.90218730723693      120.61398945073030
H          125.05606044259602      121.59723833792219      119.04932958545852
C          124.99347832088884      124.34021134443766      119.68271346296100
H          123.19928574946269      123.13908228482285      119.70459228192166
H          123.96122035775915      123.37343296349570      121.28541144759292
C          125.28831614983480      124.22995025384952      118.18916922931761
H          124.45342121209548      125.27216972419590      119.86006386260767
H          125.93204729630818      124.39223765392384      120.23789167358447
C          125.98001667235218      125.48409573409778      117.65911825982322
H          125.92236015438016      123.36391637375210      117.99963469007277
H          124.34969692078336      124.08554819405114      117.65089390870497
C          126.00592064540905      125.53776190154277      116.13617303549732
H          125.45202117053825      126.36483282600457      118.02464821455642
H          127.00269751990703      125.52936141506233      118.03355952275994
N          124.65363663888074      125.64600959862628      115.62756199564576
H          126.60013243601190      126.39957762711884      115.81019366525683
H          126.45936664501409      124.63413755144460      115.71515747470386
C          124.30345165353370      125.31193532124412      114.39021172878559
H          123.98608574317336      126.08729520135127      116.25853880965154
O          124.32518065516835      119.45903272236410      118.80856117454812
C          122.83026398980623      125.53310153629053      114.05963757151838
C          122.45462127542062      124.89467549196765      112.72299928403096
H          122.22745266024202      125.11713094824891      114.86775763662230
H          122.64815803087872      126.61038142179105      114.03896267850875
C          122.24212842019422      123.38864854357475      112.85774473328618
H          121.54785226780524      125.34693451467008      112.31814494901093
H          123.27150296502614      125.06541881501605      112.01745096556772
C          122.26390062069969      122.69475747844412      111.49472383471465
H          123.03077500627313      122.96678616993391      113.48278200120700
H          121.28359914032761      123.18944582342941      113.34144525398715
C          121.72682720268773      121.28641558112501      111.60041967345319
H          121.61597955462969      123.25567896188970      110.81307538234699
H          123.27632352406988      122.69585157297750      111.08989205828927
N          122.49329939092402      120.31490432896132      111.08452123056463
C          122.06249163324804      118.93201260948395      111.02159789798166
H          123.39482151397594      120.52953388160824      110.68769785507342
O          125.09717466902278      124.86305861980220      113.56535069853933
C          123.20120787138718      117.96388419315625      111.31791682602920
H          121.26112987326204      118.81944827239792      111.75487699569290
H          121.65272768599544      118.73598722949033      110.02327117782025
C          122.71774339572247      116.51715478763484      111.40574634385590
H          123.96167068300218      118.05552305257558      110.53882822897174
H          123.65377185469117      118.21448777505334      112.27811649879399
C          122.12540166399928      115.98711268131804      110.10165518134330
H          123.56769256874597      115.89724407748484      111.69328276631653
H          121.98099256203859      116.43551550686614      112.20618750345274
C          121.89160218345857      114.48074215425088      110.16385583203243
H          121.17659835696985      116.48473522843511      109.89067653467524
H          122.80877737347599      116.20947465487546      109.28093287636555
C          121.42826028310678      113.92151891432462      108.82085886472146
H          122.81584295048918      113.97450160062876      110.44588990915722
H          121.14971310074375      114.25879063844290      110.93313258496794
N          121.37117086629733      112.47740562431181      108.85498313109471
H          120.43673337766752      114.29525967201988      108.55927736646929
H          122.12900521040871      114.22550560608349      108.03541960304572
C          120.35186992701591      111.74155813165382      108.41149429050222
H          122.15672910196911      112.02582383351840      109.31120674736732
O          120.63846126985310      121.04279012950407      112.11064500409744
C          120.60436169018200      110.24712863884754      108.46891366552792
C          121.31792927252209      109.78589668140887      107.19324504511815
H          121.22711958768188      110.02044510404930      109.33522563374622
H          119.65354304478714      109.72189373600938      108.56076705752984
C          121.68012376378452      108.30525160971038      107.27114189018502
H          120.66796833253665      109.96179370218340      106.33496635545522
H          122.22669919974147      110.37563484078832      107.05547674130798
C          122.39057349767698      107.79706595845204      106.01041525297727
H          122.33467119966095      108.14704305610057      108.13131081163044
H          120.77654678283162      107.71307198566208      107.42860203857617
C          121.41290912427552      107.65336469823015      104.85890802095507
H          123.19909787422355      108.47195694194339      105.73109329500271
H          122.79296444075554      106.80570495054442      106.21962546017528
N          121.40237793934875      108.67026958333997      103.99151062284309
O          119.31087700479178      112.21918692080784      107.96589476305509
C          120.50094048826307      108.71426912279780      102.86227726691601
H          122.10889391007159      109.40179831307762      104.06653892325727
C          121.18219699834546      109.28440993915969      101.62426088562135
H          120.14553422908895      107.69513971537026      102.68362962041670
H          119.63362250438821      109.33465483748348      103.12031520726229
C          122.28040158234927      108.36513634104067      101.09658589231282
H          120.43204044986204      109.44582711915831      100.84731307516316
H          121.60962441745671      110.25274911397635      101.88547565149476
C          122.90394181919346      108.86887065163016       99.79305434797088
H          123.05122415739558      108.25733399971496      101.86139339448526
H          121.84873469410599      107.37722898113805      100.91185781390369
C          123.47945242790064      110.28394511741239       99.86208602981176
H          123.69957230311171      108.18081529070734       99.49618096663514
H          122.14283522062776      108.84558644073337       99.00941816569511
C          124.56204961780423      110.45681128154783      100.92585976193925
H          123.92115410976689      110.53116814418040       98.89484307601505
H          122.67667187885235      111.00212400914958      100.04073722857640
N          125.18755520241955      111.76608042520728      100.76998432822849
H          124.13920670019866      110.30793432471393      101.93026314693340
H          125.34347165931861      109.70575743574778      100.77442830762563
H          125.88958754611997      111.90250328577092      101.48933175908279
H          124.48963454171017      112.49458786396215      100.88435429324193
O          120.67026953889358      106.68504862531125      104.76307596805664
C          105.95362381526131      112.97021268722847      131.21001515769154
C          106.94151614620087      111.86160729499714      130.94056416393033
C          104.79821050433713      113.02806648241305      130.20099773920023
C          105.18669873083171      113.71726410573547      128.89673706217789
H          104.42624790609008      112.02125645882197      130.00237613544547
H          103.98453392289639      113.59153684041976      130.66183032261037
C          103.96401916646700      114.07923503060026      128.04735383381140
H          105.71049142019207      114.64563575448683      129.13328936499971
H          105.86576662637279      113.09435853246180      128.31549296400868
C          103.27782283181978      112.86973330679021      127.44709835058715
H          103.24146729397457      114.62236524460695      128.65807419660229
H          104.29781991580720      114.71620784188218      127.23117876970687
N          103.91971151737636      112.35010406550454      126.39928075546403
O          107.09390130311799      111.06784894849758      131.96143913757490
O          107.54879189994352      111.72084253166771      129.88924022668550
H          107.80549310885181      110.34604951880173      131.81281057977787
H          106.49612140893989      113.91827447516833      131.18186055836435
H          105.56694867165625      112.81700679989976      132.21792411094563
C          103.50548460521715      111.15168540113129      125.70659027100557
H          104.81266009645965      112.75110160619329      126.11815458181208
C          104.71969332857748      110.36947718520473      125.21621527475057
H          102.92131293537267      110.54174703449213      126.39754963867885
H          102.85730747705800      111.41500705679798      124.86024566691816
C          104.39041829190573      108.90699562796898      124.92539663318094
H          105.12700593000439      110.85085648425553      124.32581870504664
H          105.48207449222937      110.40460728730569      125.99696771528619
C          105.58340796961188      108.17999563035451      124.30528407343560
H          104.11770304247881      108.41328788170775      125.86136477097784
H          103.52990740256169      108.83828493748210      124.25598076347640
C          105.45573825073757      106.66325346473893      124.43673002431971
H          105.66423012561798      108.45134352096059      123.25071983523524
H          106.49307811943034      108.51040349955794      124.80817779093211
C          106.56983179137575      105.91686540103524      123.71612221927016
H          105.47037245835608      106.38087614666981      125.49163484315707
H          104.50180518770405      106.34473600529566      124.01402988684379
N          107.87090060393038      106.34916415353815      124.18432697345493
H          106.45686172339346      104.83809723214401      123.87440314174273
H          106.51720383725998      106.10007207826339      122.63672959542944