3795
 energy: -5103.697859021683 gnorm: 0.000882358936 xtb: 6.6.1 (8d0f1dd)
C          130.75994599130209      107.10000143797575      114.84467253166909
C          131.08112956763085      107.98877655415708      116.01655726601734
C          129.29219286395019      106.66689905561795      114.81162831445923
C          128.88381456811464      106.19626113760577      113.41818215879786
H          129.12735544991338      105.86079211728560      115.53058873284854
H          128.66535916011077      107.50918310015768      115.11218140870604
C          127.51647484278300      105.50667332717842      113.41702023401132
H          128.86490595028016      107.05332089677320      112.74243966490232
H          129.63065962456449      105.49487209435294      113.04284885362556
C          126.42967586314184      106.42421796032971      113.94182295381992
H          127.25785045687304      105.22716340233023      112.39354874406635
H          127.54922593942449      104.60586886364979      114.02844893971994
N          125.90698555424574      106.06248707186529      115.11235407162631
O          132.29687717271241      107.81439052150904      116.48850672354466
O          130.30617016362839      108.79897434363527      116.49000376235151
H          132.49859495239079      108.44695200759534      117.24407692050947
H          131.43194483759601      106.24297938148784      114.86384865459750
H          130.99521863474624      107.67484624180612      113.94141042881216
C          124.88130118511383      106.81840431405007      115.79956355128827
H          126.27524294536738      105.24310035811081      115.58302052283524
C          123.94801420573421      105.90837808775612      116.59120702269117
H          125.35044432741509      107.53164237392448      116.48926609969713
H          124.33372170146255      107.39161789570295      115.04871953793321
C          122.99458865712657      105.07979601432008      115.72976866378777
H          124.56180217151694      105.22614554323175      117.18368852284317
H          123.37613796484673      106.52527187535948      117.28384105477524
C          121.99186218830177      105.90705277289833      114.92019345874343
H          123.58487029595354      104.46078185074046      115.05089215623654
H          122.44131301756771      104.41197799656443      116.39486466953787
C          121.18766771792581      106.88513515786343      115.77519954982466
H          122.51769155136043      106.45880936433284      114.14130351744717
H          121.30253919114905      105.22270846787288      114.42150755651919
C          120.03649653234191      107.52217167922878      114.99605967533851
H          120.77327623189966      106.37310448511347      116.64525115345171
H          121.83630140900233      107.68433759192341      116.13535701308867
N          119.32663762553646      108.47984914518304      115.81464417406879
H          120.41484641913068      108.06084899117276      114.12432960381476
H          119.33447117365061      106.75617770383651      114.65418818518825
C          119.38193049269356      109.79075261445128      115.58460478122339
H          118.87963331607402      108.12071330405874      116.64980691630750
O          126.06329670034573      107.42831314560375      113.32849348014206
C          118.67617650986298      110.69332580351097      116.57786440107354
C          117.52757693249190      111.45531388688219      115.90421679583196
H          118.32799845563625      110.11673992902907      117.43236349737509
H          119.41654438294924      111.41580853384329      116.92703966510145
C          117.22583662183305      112.78545724079815      116.59478496237909
H          117.81382932636232      111.65749776845763      114.87049324375890
H          116.63435619680257      110.82872528422104      115.88484230257309
C          116.07709689224144      113.54180953243512      115.91848901768135
H          116.97475612788088      112.61322037864731      117.64275344213328
H          118.11837314205660      113.41536933365192      116.56028689067209
C          116.02555264688311      114.97436393077362      116.42222159539800
H          116.26301206353430      113.57888908686860      114.84442246319739
H          115.12632823136735      113.04444611453451      116.10372356050870
N          115.05910195814361      115.22783294439535      117.30804802957499
C          114.88063249635532      116.52615593459679      117.91506615676538
H          114.36476160284531      114.51623850192628      117.51059194851969
O          119.98416193609424      110.25782561102933      114.61748865045612
C          113.52848406518478      117.16097868455165      117.59575131691699
H          115.00310675917567      116.43141178466016      118.99878243482537
H          115.68294567248556      117.15848956298650      117.52621906965074
C          113.52428087227223      118.61548899489121      118.06041253590756
H          113.36076908142279      117.11009996563051      116.51850468505879
H          112.73434021593941      116.59866678074876      118.09032528026658
C          112.17117709392934      119.30381112296935      117.89545731819032
H          113.82315687354793      118.65291545696417      119.10984135353213
H          114.27313020475771      119.16301175510743      117.48470826753714
C          112.29589047309176      120.80546739783591      118.14740859430296
H          111.80139567716242      119.13581439009504      116.88227566605087
H          111.44930891924594      118.86931960928288      118.58868363991112
C          110.95599549426841      121.52609851741272      118.07743334673789
N          111.15138131325813      122.96187277416823      118.06164745670888
H          110.41680573417371      121.24769091386484      117.16449865415404
H          110.32280333843772      121.24552078748822      118.92770468898480
C          110.22022241707081      123.81479740985401      117.63496276205542
H          112.07567261183239      123.33078957425799      118.28269384065520
O          116.85516220790643      115.80702706009814      116.06539115815406
C          110.66792318772198      125.26112268854617      117.59776453005520
C          109.94974786478481      126.05859706176133      116.51311074612055
H          110.44807863686353      125.68248254034309      118.58168150040142
H          111.74712948942251      125.29684623718059      117.45526605120985
C          110.43885554226354      127.50248585078918      116.45883015468414
H          110.10028679243409      125.57874954227417      115.54199159136216
H          108.87503859098037      126.04468421084798      116.71103363430356
C          109.58437325382367      128.36084513758868      115.52868301979541
H          110.37250410783281      127.92314710218514      117.46396687027777
H          111.48695596717272      127.53939599508452      116.15763397489179
C          109.62651593417229      127.98453819974074      114.06585926254657
H          108.54125934038763      128.27439528836899      115.83073194189214
H          109.88156432482499      129.40936410514607      115.61914403904888
N          110.83095884343129      127.93975665433868      113.48045213506563
C          110.90898400373614      127.68627429839225      112.05572888443466
H          111.68544433938736      128.11600955670903      113.99570620027666
H          112.74296376873221      120.97526476410926      119.12756365598612
H          112.96355748882645      121.23611829574905      117.40069700667611
O          109.08793089696552      123.45278772217557      117.30610352141339
O          108.59804561872781      127.77931749807860      113.42273014307776
C          112.31632623172443      127.80290730679324      111.49403559894476
H          110.50869222528416      126.68427345761179      111.85317673025612
H          110.24912643000631      128.40594175871533      111.55408669960897
C          112.26452120202929      127.79941461588729      109.96784422488915
H          112.77811458936527      128.72340539248461      111.85392547237932
H          112.91982953749446      126.96354021598529      111.84284949756379
C          113.63885537051365      127.63986518410830      109.32629073726581
H          111.63231764866708      126.96888584682355      109.64673669643457
H          111.80118528715997      128.72428330565583      109.61886792372867
C          113.53495800924624      127.66056122358572      107.80038734374453
H          114.29919228857487      128.44226640219136      109.66062304804795
H          114.06837824777323      126.69251289177561      109.65708116404018
C          114.82557285244377      127.21913373411275      107.12467770540094
H          112.73501128282759      126.98940478387010      107.48445878567921
H          113.28318729973445      128.66716649729824      107.46528487381615
N          115.04001549176637      125.80169419833800      107.32985828397638
H          114.78960751197238      127.41131825559854      106.04673635998347
H          115.67825155280411      127.77681638017458      107.53043328670972
C          115.87087925545961      125.07046108038944      106.58878827909666
H          114.44802718811248      125.33336153214414      108.00367877919895
C          115.99232858464282      123.62885008402739      107.03090257239968
C          117.01139572649539      123.45745087939251      108.16192280439515
H          115.01797107932784      123.27815033507569      107.36856366753730
H          116.31748008998818      123.02496997199104      106.18328148288019
C          116.56610095413309      124.06886240922147      109.48819613387558
H          117.14731023873399      122.38537358913987      108.30501271321806
H          117.96875157561099      123.88262983346252      107.85220207161971
C          117.33742881798686      123.45888640525997      110.65591271856488
H          116.70599561128489      125.15088102339558      109.48395292253819
H          115.50138372688242      123.88054471322846      109.63766699128740
C          116.87512361810779      123.98226222637985      112.00403197557132
H          117.20274191412807      122.37441824970790      110.66613857231741
H          118.40711385969800      123.65313860123773      110.55638493150042
N          117.42360823597701      123.34688639911892      113.03908220444245
C          117.11968844540536      123.61619182888145      114.42863940093621
H          118.13928711698084      122.64932435825631      112.86651560360193
O          116.50367254984901      125.53338367025650      105.63738403124815
C          117.17416973856767      122.32609017716510      115.23581116288267
H          117.84259925312649      124.33751939989300      114.82571405505168
H          116.12340283533057      124.05839574738700      114.48196288472785
C          116.67934976717892      122.52386814426271      116.66791359305975
H          116.56784678679803      121.56517860985451      114.74025972918538
H          118.20620876407983      121.97110938408102      115.24252306647321
C          117.15363036038710      121.38587438565764      117.57295226730228
H          117.05526776022224      123.47046140384191      117.05905142185563
H          115.58975016753693      122.58045307209507      116.67052320817515
C          118.60048492633224      121.60568062855022      118.01979925152634
H          116.50998195399887      121.31394893470397      118.44993599677778
H          117.07501454952296      120.44273147650139      117.02833764396374
C          119.28485273192652      120.29919961544353      118.40589562703147
H          119.17330880059224      122.07003238076273      117.21521491083530
H          118.61919175845486      122.28649855860895      118.87282195202637
N          120.58925534421886      120.56816622573353      118.97030958455881
H          118.68963142654349      119.76432094419673      119.14698072474889
H          119.37976513852102      119.65889426579001      117.52022198519214
O          116.05490216078938      124.89228207296621      112.11908020963442
C          121.11935537411939      119.93087396559618      120.01271100067045
H          121.11363590481091      121.32406912808753      118.54341317781559
C          122.41444656130830      120.51780621630829      120.52668981489330
C          122.14380492156667      121.08468525126396      121.92459415977477
H          123.17677076073221      119.73966020815242      120.58538204246933
H          122.75651533313903      121.29644866271430      119.84874110456735
C          123.39744603124862      121.58456859756340      122.63656356064568
H          121.42124049430869      121.89808969863390      121.84032334576955
H          121.68714613923804      120.29987339762791      122.53083877135523
C          124.09701389098836      122.70731890978701      121.86604646910514
H          123.11292924393403      121.95036285061951      123.62578686379291
H          124.09913009423398      120.75733310421130      122.76260711776764
C          125.33326531084984      123.15807937865668      122.61616039660842
H          124.39214233619057      122.33896719098509      120.88599049240671
H          123.42685464107311      123.55885436386042      121.74652258527968
N          126.37192687276656      122.32963501669710      122.45293361193292
O          120.58138846722451      118.97259672296438      120.56957121505251
C          127.67172741656434      122.53118298659629      123.05211812841880
H          126.27809060878869      121.57497370369266      121.78143659772249
C          128.79301245519670      122.15579546895525      122.08537642685874
H          127.73394603038093      123.58456507512749      123.34064262011945
H          127.75427656253721      121.92515446868376      123.96281035526707
C          128.90615249989671      120.64270251743443      121.90596956841617
H          128.60881925266628      122.62797561607172      121.11838945922024
H          129.73496152921172      122.54504032817081      122.47425807823301
C          129.97919989918060      120.26277900742903      120.88832933067457
H          129.14912558495175      120.18923257155915      122.86908109501410
H          127.94928015257520      120.23639498270900      121.57542869146621
C          130.16702051511427      118.74961271074491      120.82879857790302
H          129.69026427716440      120.63925225003354      119.90457869832251
H          130.92520324488041      120.73365740320810      121.16267624962647
C          131.29171407014587      118.33413552904871      119.88607589639594
H          130.41662742877389      118.38396499159958      121.82650919042470
H          129.23260888341480      118.27818139488419      120.52010446439515
N          131.62229822070273      116.93596771118857      120.06480055010920
H          131.01655647454484      118.48027076104061      118.83910957853489
H          132.18280351224686      118.93860974290881      120.09410870020258
C          131.86036047211343      116.08806216078916      119.06439235964028
H          131.68204697895658      116.60576678419750      121.02375436942941
O          125.36683521781740      124.16653520267627      123.31602177546685
C          132.31686607228852      114.70575491245305      119.49131002592834
C          131.28159465037638      113.62274406057139      119.17436289185000
H          133.23229777388008      114.48519966947616      118.93765703544823
H          132.53891841872792      114.70544159954318      120.55787025344942
C          131.88740417906760      112.23477142382750      119.36924890872362
H          130.41753260773368      113.74528327394415      119.83112888217967
H          130.94651673952563      113.73649333440576      118.14194699339660
C          130.86335903378756      111.10778008494381      119.22295678987729
H          132.68076213554599      112.07655776707237      118.63557372111617
H          132.33753724081436      112.17384998188105      120.36157001992670
C          131.55565793517931      109.76372936511633      119.23716315073516
H          130.11490670450232      111.14676355270622      120.01288033594993
H          130.36453973613524      111.19316239664306      118.25417763463226
N          131.09211748059786      108.86923976841105      120.10860259767902
C          131.63279694979249      107.52196958956002      120.15602562559828
H          130.26899084457574      109.08726180319412      120.65750316474512
O          131.74176524461623      116.39924426160813      117.87824908790567
C          131.12419572815821      106.71849483618152      121.34398614385985
H          131.36558333678863      107.00072933860299      119.22738958272379
H          132.72444492265208      107.60138331959853      120.18208382351807
C          131.62487193573887      107.21407382380129      122.70024684789874
H          130.03371821478760      106.73216715784021      121.33984845853813
H          131.44721971771730      105.68586812622841      121.20010176242370
C          131.23826668233465      106.22293456195182      123.80064592436634
H          132.71153992393153      107.31594814696049      122.66895807229319
H          131.19374001671756      108.19425239630296      122.90259357702023
C          131.75478147577815      106.57900682773274      125.19740333219545
H          130.15150625068250      106.13390958583837      123.83658821487903
H          131.63951626491283      105.24512052439989      123.52627718972121
C          130.90396215771230      107.60910367569554      125.93916361506585
H          131.76428221747912      105.67444592054002      125.80660197721949
H          132.78202767795926      106.94172263024669      125.12720218491432
N          130.95435347281096      108.90568707709301      125.30142453033220
H          129.85480336941254      107.30564073390309      125.96279676200498
H          131.26163980734145      107.69683395799964      126.97182954198924
C          129.87945211193286      109.65913348159015      125.03209444242552
H          131.86611479341505      109.22013740139063      125.01212579869457
O          132.51166753753355      109.51710483606540      118.49141424770748
C          130.12432044980940      110.91725366627277      124.22099239146141
C          131.56507406283046      111.31297517501372      123.91019773776478
H          129.58368444938858      110.77471867293980      123.28028028816935
H          129.62143121368177      111.72799258744035      124.74833256432743
C          131.59642831320460      112.67217874178604      123.20531763097574
H          132.15539188919101      111.38161755456473      124.82624821761445
H          132.01754465471583      110.57236729592761      123.24686543684467
C          131.42868229711590      113.84571946740672      124.18348824335382
H          132.54115019751544      112.79241208414226      122.67322089818968
H          130.79517101938623      112.69625691233939      122.46329514380373
C          130.80830696271394      115.02194725080302      123.45714060007928
H          130.78498480004166      113.56529697819350      125.01541442658186
H          132.40211592423194      114.14157355354861      124.57532870249358
N          129.49534967181324      115.15417283084118      123.65329906471730
O          128.74682547885385      109.35625201262771      125.39441684247821
C          128.71341898738478      116.23393584886279      123.08350351273339
H          129.05694179340367      114.61810289918103      124.40071120714867
C          127.24013298763080      116.06748164359965      123.43150391855301
H          129.07997581141677      117.19203485463974      123.47281158581636
H          128.86431797710441      116.23979886654058      121.99914366006260
C          126.42461630759590      117.30087444678159      123.04348862331886
H          126.84907079411205      115.18052511977399      122.93183299487737
H          127.16061090941710      115.90330011929865      124.50919038070238
C          125.00024249096469      117.26287565931217      123.60046091220137
H          126.92933177951572      118.18539511369278      123.43755183652141
H          126.39753333221448      117.39999090065203      121.95804115747546
C          124.08037393222993      116.27564511148179      122.88332673170689
H          125.04723706192127      116.99890703456353      124.65847724977526
H          124.56426030343945      118.26136735299168      123.53167935160342
C          123.53857205914018      116.82739196326636      121.56755575961706
H          124.60938301410913      115.34363727257931      122.68758798078589
H          123.22982237183186      116.04349991598113      123.52673460982835
N          122.68199489146753      115.85310167073695      120.93382115622532
H          122.96860087171822      117.74495404117681      121.75700754583573
H          124.34571908015813      117.06391926795152      120.87036805577803
C          122.69687393049844      115.57344315515209      119.63206618741343
H          122.00278463625979      115.38594218611850      121.53482903060822
O          131.45680064681520      115.74915155730218      122.70348764220995
C          121.69280283276098      114.51187827042347      119.22214369634983
C          120.40177234030250      115.14962344260033      118.69621856350491
H          122.13984366189801      113.89891843947879      118.44038711236927
H          121.46612893093553      113.88198615514709      120.08225124246212
C          119.66224957299727      115.92607696281573      119.78230917006130
H          120.63653378428677      115.82063297684009      117.86696926289972
H          119.75051179827821      114.36115203739955      118.30999151258601
C          118.28309970737442      116.38011235968065      119.30127258087889
H          119.55486309892257      115.28702282861902      120.66062715742571
H          120.25213586766752      116.79592490665155      120.06833478322669
C          117.45569763260912      117.01448825999836      120.39845090553263
H          118.39708137335195      117.09646712093705      118.48583192491016
H          117.72342773422065      115.52662809060644      118.91468481313724
N          117.89969868048560      118.17287902996446      120.88468594640355
C          117.15283613323409      118.88722960130215      121.90209959433999
H          118.85767481221335      118.47307849573122      120.69975909816827
O          123.45617643210014      116.11927948436752      118.82953680419544
C          117.69226594570537      120.29230912861553      122.13061462177134
H          116.10684241515646      118.92282099994060      121.58164345364523
H          117.18794208123639      118.33254650601083      122.84574294295884
C          116.98752651457342      120.94153554120319      123.32088418182155
H          118.76675723572322      120.23993028588662      122.31545154637953
H          117.54164526060420      120.90036736281164      121.23775428136140
C          117.53904233248170      122.32958218478099      123.63060999632580
H          115.92218378969638      121.01914819274431      123.09783453634479
H          117.10002370638496      120.30654214171847      124.20101139004925
C          116.76085726538740      123.01322579558487      124.75437423224510
H          118.59044186200120      122.24491163015662      123.91471143707255
H          117.48375585615609      122.94963867992877      122.73455572169313
C          117.16516165882608      124.47323302036723      124.87803290069658
H          115.69685049226459      122.97123380235253      124.52331718749501
H          116.91937698071388      122.48332537561680      125.69556671592110
N          116.36932801884474      125.18418558222157      125.86347394064335
H          118.21793061486801      124.56962111192404      125.15831984041773
H          117.04805432856112      124.95917827475516      123.90408893998976
C          116.66467588474788      126.43343093645026      126.21207248878461
H          115.50293129837178      124.76863021794405      126.18966181819192
O          116.40708569369814      116.50465763139607      120.80489235456932
C          115.69166297534161      127.09645037613457      127.16295998513517
C          116.40392534576250      127.98969905216396      128.17941440776963
H          115.01064730400506      127.70561385724486      126.56121275007777
H          115.10017109138786      126.32811631588488      127.65664064006646
C          115.43670484801144      128.76589279839155      129.07356310713388
H          117.05886027960135      127.37643088108933      128.80329690270301
H          117.03432087517669      128.70138671453461      127.64235816507987
C          114.59853914489305      127.83990350053861      129.95835119681524
H          116.01514762100904      129.43876934412754      129.71042525894927
H          114.77450684416384      129.37444400325106      128.45595252239181
C          113.78937454143482      128.61071749398698      130.98421716940371
H          113.91476150287926      127.26197250861624      129.34027244945500
H          115.25179149982574      127.15856916030599      130.50591485974670
N          112.82921445865313      129.40016806350724      130.48513272228487
O          117.66298103923363      127.00440072117583      125.75950352732478
C          112.01681328559599      130.23917404908198      131.34208864374116
H          112.72046075089196      129.52696085347716      129.48554100685635
C          110.67490291064730      130.57380203469776      130.70336260479854
H          111.88106018794593      129.70392675489055      132.28702527985703
H          112.55662524328386      131.16910672036570      131.56633599046333
C          109.80814671653688      129.34527974381422      130.43519521990714
H          110.14442188176301      131.25535175918688      131.37039756183268
H          110.85959064924020      131.09697603519342      129.76460427036929
C          108.40473802976021      129.74186086213203      129.98261312647656
H          110.27866903142834      128.73438491295875      129.66518089913967
H          109.73847678149025      128.74688356801002      131.34638530066832
C          107.52191243023421      128.53473309966566      129.67879460665606
H          107.92806182501275      130.33935547308769      130.76266205142963
H          108.46168277442636      130.35667327267788      129.08474844612834
C          106.12731224327628      128.95630353458216      129.21851928677327
H          107.98503837222148      127.92783001989915      128.89742149909381
H          107.41489143739568      127.91054183760937      130.56841830838277
N          106.20052036771901      129.69010680130296      127.96067615779737
H          105.48224024145145      128.06176549646801      129.16221955315444
H          105.68716650569945      129.62607232990430      129.96297749519042
H          105.27438673261052      129.99625488259500      127.68620006920573
H          106.54971064036778      129.07859769081099      127.22827639787805
O          113.99000090087762      128.49681305234242      132.19201262916675
C          106.69152552960814      103.90905185243221      117.10556871279196
C          105.57119258387499      103.08615735508212      117.69833969342849
C          107.66190233691952      104.46142421104513      118.15354055130186
C          108.58105128438771      103.36822843587059      118.68813545157137
H          108.26652373573192      105.24914051165389      117.70191220342417
H          107.09554018710301      104.90098120825921      118.97249745220444
C          109.57557093494869      103.89989539414937      119.72157312099452
H          107.97819418194791      102.57955101318225      119.14541983228075
H          109.14458486366784      102.93360453906278      117.85942405444177
C          110.42886174918345      102.75539044302134      120.23181276375605
H          110.22461097595490      104.64132753017920      119.25143499844363
H          109.03666391128296      104.36185549861992      120.54584524739633
N          110.08856610799691      102.28349040538164      121.42957438043264
O          104.85949155518087      103.74830696869128      118.59175203522805
O          105.31748945314415      101.95009813147898      117.35876986785711
H          104.03483463907681      103.27095012990964      118.87546027667280
H          106.21466110802331      104.73946738043830      116.58182966275250
H          107.22570896943876      103.29204533622188      116.38264227080209
C          110.78932822538532      101.19984798906681      122.08890631404816
H          109.24158413920321      102.62783483155691      121.88165837518561
C          110.74648436554453      101.39470918490309      123.60039878353140
H          110.32750634528315      100.24052302671113      121.82415211209661
H          111.81665629234639      101.19219961454974      121.71641709027823
C          111.51173773404697      100.31812090678615      124.37060476285093
H          111.14576369064805      102.37801306630740      123.84967959592088
H          109.69931239179164      101.37209459365486      123.91110625241420
C          113.03000799721366      100.34181422993663      124.17170991921148
H          111.30279440161924      100.45165988712708      125.43441113832323
H          111.13175221494936       99.33616373230835      124.08076867458563
C          113.64208048638233      101.70015897871161      124.51414579068734
H          113.46528405793795       99.57645304793398      124.81866615342435
H          113.27845439274719      100.08187198705215      123.14234563398811
C          115.13038072091616      101.63263097534227      124.82178469710487
H          113.48960105388437      102.38406008453251      123.68093053613420
H          113.14389516656867      102.12214819556256      125.38799279172238
N          115.90965797714216      101.21506730539990      123.67393853545269
H          115.48546087733395      102.62012225872404      125.14396747387612
H          115.32660720958550      100.93106717296409      125.64120016746662