3795
 energy: -5103.040565445617 gnorm: 0.000879058299 xtb: 6.6.1 (8d0f1dd)
C          131.08109344932328      131.41595833369456      123.94203478594635
C          129.70206582108344      130.85812003160956      123.65384335170644
C          131.81471657613440      131.73188886251165      122.63169001472058
C          132.13066431446850      130.46498469111893      121.84418251774868
H          131.19961278996325      132.40212576798717      122.02702410160516
H          132.74449413081894      132.25400541953780      122.86822222441444
C          132.89016252129480      130.76174685712064      120.54864953605009
H          132.73565151166110      129.79792405189320      122.46103089809576
H          131.20175074719404      129.94143637901306      121.60974545070205
C          133.11749766324522      129.46492797403451      119.79617256090010
H          132.33244583530853      131.46181657629228      119.92669288154507
H          133.86061124996988      131.19921652621022      120.79163551604213
N          132.55077937221307      129.41096798288987      118.58771864198741
O          128.79025916576731      131.80388672784957      123.56587809612805
O          129.47022359291810      129.68167083740519      123.49551100017683
H          127.87563639154654      131.41824670111779      123.39883425151231
H          131.64810491702258      130.67772601986849      124.51013720006031
H          130.96775267694119      132.32798521756726      124.52773679085867
C          132.60484428058336      128.21684910052986      117.76965809157349
H          132.01016729007739      130.20213680088602      118.24556448829868
C          132.11227905607078      128.49177386234334      116.35584128127088
H          133.64041489951913      127.86401609218260      117.74679411265168
H          131.99525681922276      127.43681897898199      118.24238815166278
C          132.15023158386089      127.25141926565206      115.46237818325096
H          131.08785967123259      128.86442699973219      116.40003040663615
H          132.73517127496146      129.27359372367582      115.91713067102869
C          131.14263974446109      126.18448221233120      115.89459326068007
H          131.90429676999835      127.55770229925952      114.44385674061189
H          133.16123103070075      126.84067171557099      115.45606827099436
C          130.84643084320811      125.17543670928292      114.78708357008820
H          131.49867507228254      125.65916011980333      116.78346649304584
H          130.20959361040903      126.68853340949734      116.15094581193294
C          131.97021990274391      124.16872749390470      114.56099302645906
H          129.94414657710635      124.61139399298706      115.03274504855081
H          130.65539602565266      125.71725186312128      113.85815688837579
N          131.69858856302056      123.44352758373216      113.33892879081242
H          132.93870356402033      124.66439861307434      114.45360928353567
H          132.03743256297406      123.47486358887289      115.40876471688732
C          132.64969779330204      122.97013696893816      112.53312641197037
H          130.72068350647174      123.42923010550119      113.05384850487906
O          133.75052711809187      128.52907937275251      120.27460705800002
C          132.18317295530559      122.56532280356261      111.14819039398523
C          132.58078089413740      123.66998920641470      110.15982446806294
H          132.68116556025464      121.63943333211532      110.85305713238054
H          131.10710137039854      122.40884890773853      111.12932999793058
C          132.02990952524672      125.05016782657916      110.52015938403325
H          133.67110674871822      123.73102519775517      110.13622474359792
H          132.23855042516203      123.38809792781113      109.16206692187056
C          130.49984263299797      125.12535834730603      110.53620583384847
H          132.41452048535490      125.35484009945851      111.49525560737153
H          132.40414919538998      125.76612074190514      109.78355631202196
C          130.08959418996719      126.55781677516842      110.82015015570286
H          130.10113639007750      124.81534996049361      109.57069908057368
H          130.08457076934783      124.49565374922855      111.32044613128184
N          129.86497118357968      127.27482220082702      109.70911266399153
C          129.41954394461314      128.64693212270632      109.71888110195184
H          129.81730048039998      126.78665842237061      108.82336165970506
O          133.83036505275652      122.89377771368864      112.86719007032802
C          128.14017373008795      128.81135775063069      108.90048741724935
H          129.25376624867118      128.92295854278436      110.76391622791816
H          130.20690479955488      129.29136500760222      109.30796832775255
C          126.99979307303757      127.97033315802295      109.46695559879821
H          127.85774085760313      129.86588427523307      108.89199545869418
H          128.33806944505162      128.50669331226450      107.87046311839227
C          125.71697257600948      128.12067354205251      108.65203747284994
H          127.31263971470109      126.92582897179987      109.47775487433285
H          126.81291489113237      128.27772784136093      110.49717822000126
C          124.47610575535815      127.62510283800404      109.39046275338130
H          125.56470948154600      129.17558429172766      108.41353063590574
H          125.82070804926902      127.58595976933242      107.70695752743188
C          124.50805054827497      126.13104231695334      109.70834861448255
N          123.35220626968442      125.77803975859783      110.50086717400340
H          124.47931998044029      125.53559634033086      108.79469295887151
H          125.41648927997888      125.87955382625439      110.26638445289156
C          122.52943503467277      124.76560277685410      110.23659724841721
H          123.14899746701491      126.38402763846291      111.28995635217379
O          130.02574863176761      127.02094326271718      111.95014920116229
C          121.28991306642935      124.72441039670305      111.11037102795392
C          120.10415798182433      125.14657584822095      110.23718038175967
H          121.13079495650301      123.70541247074698      111.46701205759338
H          121.40471688452888      125.39154581161395      111.96407047952563
C          118.78874858378484      125.22037261124859      111.00525370078351
H          120.31766709923573      126.11700746535860      109.78324102100801
H          120.00317672525333      124.41532185966642      109.43293584140436
C          117.61138091419276      125.42581954034084      110.04879697464733
H          118.63878062369211      124.29072131332609      111.55906588316968
H          118.81778426876650      126.03591390766390      111.73014495040785
C          116.29884816774201      125.33041004625197      110.80391324021028
H          117.67862419502436      126.40461094704709      109.57296458293929
H          117.63260284710879      124.64978344755919      109.28338554616438
N          115.74763908499366      124.11083271296579      110.75345508158006
C          114.51978579036252      123.79625842575436      111.44425472564609
H          116.22520851318916      123.35046925879590      110.26838899575422
H          124.38542442432102      128.17057566238034      110.33350839515620
H          123.59488804314572      127.84814866215710      108.78548876062851
O          122.71691557851813      123.95276227863607      109.33435102579594
O          115.80095097124641      126.27039733562255      111.41042753972091
C          113.79380344829538      122.61853447866622      110.80603464758305
H          114.73643636598831      123.55518609771464      112.49401590353537
H          113.90197411403513      124.69711523438959      111.43077257299475
C          113.38301187909711      122.83694824326130      109.34985077235353
H          114.44567356553257      121.74575246647187      110.85189115380101
H          112.90623354045081      122.40717377340025      111.40647423587976
C          112.57963817620312      121.63734514924384      108.84572056769518
H          112.78978921952761      123.74955798539885      109.25571803666914
H          114.28213263821715      122.95390413537392      108.74426459958809
C          112.28031296570245      121.67837711489500      107.34862986978639
H          113.14861550111789      120.73055856290176      109.06017614575941
H          111.64030898890918      121.57234889644255      109.40155089304679
C          111.62551125614023      120.37916221925680      106.88621288670360
H          111.62822082411509      122.52290677634656      107.11761859130829
H          113.21085059538591      121.80994451378544      106.79528712075516
N          111.39047603751106      120.38525936517851      105.45938706761581
H          112.28018553500085      119.53579199839690      107.14166475454653
H          110.66516638300297      120.22110619983908      107.38554454219137
C          110.40534677136220      119.71751223139272      104.86483214952942
H          112.09095539938485      120.84789674157638      104.87851246537092
C          110.44548443948896      119.74906403527342      103.35387343313222
C          111.67101236197455      118.98850241238455      102.83623551640341
H          109.54628715235850      119.26995448033341      102.96501315835006
H          110.49327413556705      120.78607586529769      103.02204524508494
C          111.70570558598699      118.90413310754644      101.31216990279833
H          112.57912134383730      119.47884541267048      103.18660241717636
H          111.63859746933500      117.97537269799480      103.24004141448695
C          111.86865378250801      120.27834859497727      100.66138989054824
H          112.55165959742629      118.27847425022446      101.01937063259714
H          110.79940388615934      118.41194201755363      100.95563048410276
C          112.17851947974219      120.19241944803068       99.18008746361909
H          110.93946808529678      120.84781214009674      100.74965359784717
H          112.65849286060632      120.83845514154220      101.16161797287586
N          112.99205151481596      121.14240131035768       98.72275791770204
C          113.33583251621690      121.26039131907007       97.32078642890117
H          113.41375340018035      121.81506374411508       99.36137027663750
O          109.52260592791390      119.11929219439921      105.49118871133702
C          114.74737365117623      121.81299600009015       97.17337876587003
H          113.23525608089726      120.26737664753583       96.87435206815286
H          112.61961059466890      121.92923729307365       96.82382154211601
C          115.14439169675956      122.09739395374626       95.72568533073235
H          114.78971208932013      122.74945395852642       97.73256528957029
H          115.45154804258088      121.12198189093614       97.63334315428608
C          115.32561395526542      120.85638947730159       94.85041409328269
H          114.37570679143307      122.72700976291601       95.26872053661408
H          116.07411547930543      122.66619618679582       95.72259273294101
C          116.48109573333379      119.94072675199277       95.25908319156922
H          114.40251543051832      120.27228282944357       94.85347543861441
H          115.49653699741124      121.18850679692130       93.82307381583634
C          117.86142790258572      120.59930870669875       95.19202179777866
H          116.32757137348683      119.57378499980568       96.27374145755242
H          116.47564273631146      119.07686613760841       94.58919523074643
N          118.19022219517180      121.30444927421667       96.40799327908114
H          118.62180524490726      119.82413618008043       95.01289511552876
H          117.92109660473965      121.31760734706423       94.36973629156029
O          111.69444263406393      119.32925166668267       98.44766055909700
C          118.76269903856689      122.52037793037319       96.41777603702405
H          117.89025666177187      120.87737940682155       97.27923517805456
C          118.94534030960139      123.10116040095616       97.81213862977137
C          117.59431564105360      123.39299751819722       98.46731461974917
H          119.49763285281270      122.39152271262638       98.43130960009744
H          119.52721787627921      124.01975242270683       97.71928636862242
C          117.74731651210676      124.10061199096894       99.81065461147554
H          116.99550379325156      124.01204417135096       97.79524134040143
H          117.06927142672464      122.45266574531938       98.62912026446331
C          116.39336399014823      124.31581203553671      100.48816826730831
H          118.39638321626428      123.50640965098268      100.45276134098441
H          118.22255456231809      125.07372683971320       99.66211881365416
C          115.62617309814469      123.03891273782131      100.79387935922895
H          116.54003524129369      124.84344853469436      101.43468703809256
H          115.75160423829307      124.93553991477796       99.85837177385433
N          116.30046599379943      122.09329691234757      101.45108238578960
O          119.10680222896555      123.10577157283154       95.40546365160446
C          115.66476212420297      120.85209427790124      101.84065911687311
H          117.30957150075820      122.12881232583076      101.53381944373733
C          116.48032214426216      120.14261749368039      102.91389590102258
H          114.67254379957443      121.09724822010908      102.23075615636446
H          115.54549522893021      120.21271521057436      100.95902289298782
C          115.73537325683924      118.95082552422087      103.51507895646751
H          117.42851226958081      119.81776537817127      102.48417472744956
H          116.70138291327342      120.85746166499678      103.70944185633934
C          115.41559741210979      117.86884126169900      102.48636283409211
H          116.34637321515120      118.51601325317013      104.30910383741798
H          114.80871020020618      119.30728818442472      103.96838316366082
C          114.76906866357868      116.64410426307758      103.12467484022743
H          114.74831717909863      118.27680492826721      101.72785646640912
H          116.33629147076380      117.55580661464694      101.99348428454581
C          114.52841152641976      115.53460858102150      102.09835364351024
H          115.42908182008850      116.26498719972771      103.90283461358466
H          113.82968909951541      116.91730892859070      103.60581318975234
N          114.21529274627416      114.29347996974786      102.77049835250040
H          113.71676465179556      115.81339914687088      101.42696314341923
H          115.44218201269416      115.39692501983502      101.50817084423178
C          113.26015908467436      113.39218646486724      102.56093906764713
H          114.85489872719303      114.07500970754940      103.52894920612142
O          114.43566257299109      122.92402168030374      100.50870439286901
C          112.27970735532043      113.60316609150722      101.42610038630266
C          111.09885414025938      114.47984248950476      101.85894429914531
H          112.78462085767450      114.03871371709532      100.56414487314164
H          111.90290634706344      112.61746643631599      101.14355901515081
C          110.36831284996558      113.90560162195361      103.07231947785260
H          111.43547965655944      115.49323820871047      102.07897153264734
H          110.39481588762824      114.54497236221209      101.02555822081654
C          108.97746071824844      114.52913452393918      103.24377981186932
H          110.25713839125335      112.82778170502334      102.94436238047624
H          110.96231098083213      114.06829142783567      103.97341240073628
C          109.11542301736236      115.99557891694700      103.61089051986193
H          108.44371868865886      114.47404559067239      102.29268025924974
H          108.40683855528809      113.98224047410312      103.99258702143611
N          109.13114142919771      116.31718701482369      104.91368490521224
C          108.88155369967460      115.45852101184563      106.04916615462534
H          109.24656604137766      117.31064430768301      105.12068626170075
O          113.16978591616062      112.40171565146952      103.28883041153011
C          109.48238434790078      116.03591686411990      107.32889520195251
H          107.79779741414545      115.33354682391236      106.18678284789273
H          109.31022000054307      114.46997899939851      105.87162685888286
C          109.09909621343721      115.18085910122549      108.53705783230905
H          110.56913577964089      116.06657708932650      107.23018036470118
H          109.13162126199369      117.06124864083580      107.46290182956668
C          109.76770560678770      115.64440337402702      109.83027702738067
H          108.01473698913341      115.19963775231332      108.66877172808134
H          109.38134560974474      114.14620796841585      108.34326256708327
C          109.63305063720311      114.60621972109867      110.94981918270902
H          110.82859043496155      115.82647764474704      109.64678858805055
H          109.32227963708860      116.59151888361859      110.13915914951565
C          110.76955290304501      113.58459842758846      110.88180546604035
H          109.67236111855725      115.09138526330472      111.92550741872115
H          108.67090695863374      114.09615847995107      110.87345927035329
N          110.72640417197637      112.62898875341010      111.96149236858997
H          110.70448216329790      113.01130946726950      109.95508763135820
H          111.72918033275141      114.11346677385379      110.90546909148352
C          110.66198632386124      111.30532131627702      111.75967419854398
H          110.75892469841048      112.99829758975416      112.90513789964044
O          109.23964127832060      116.85563787995719      102.75063011027423
C          110.70246967170642      110.48738182952313      113.03657087443621
C          112.13271934196833      110.35063801044076      113.57995248659894
H          110.06118127732971      110.96725911627391      113.77644832983265
H          110.30358505384982      109.49597344592652      112.81546679697739
C          113.00998276801425      109.53522101080384      112.63142253355763
H          112.55858694702471      111.34342598113746      113.73292279410305
H          112.09186078347787      109.84627575343499      114.54711210083640
C          114.31221331870259      109.01473979363087      113.25709197158844
H          112.43937257235572      108.66251740544244      112.31147908038638
H          113.23475578558147      110.12597300973967      111.74363832693103
C          115.25569304817721      110.13766983177676      113.62820967782801
H          114.07505854019441      108.43379732168356      114.14682750946029
H          114.80265035069030      108.36699363919286      112.52844963926582
N          115.28446065328220      110.44230929336224      114.92477066457215
O          110.58959018083503      110.80550968851841      110.64248275672914
C          115.99137705638061      111.59253468943736      115.44250162761855
H          114.75065043333363      109.88625317993892      115.58220228280958
C          115.31481855103888      112.10406406894475      116.70526810533110
H          117.03665457003903      111.33979942230665      115.65573564461795
H          115.99291554769827      112.35587945286237      114.66168384645914
C          113.84678985596240      112.43813832981864      116.45796067390621
H          115.36963616344951      111.33185209045105      117.47372903981763
H          115.85426642917302      112.97698914830718      117.07656159734496
C          113.15946775801689      112.87820595565978      117.74240906795747
H          113.75374081587269      113.22204904509437      115.70307697074765
H          113.33883114467619      111.55188674252572      116.07813585332673
C          111.64342772169293      112.93486546898596      117.58100208653298
H          113.43093779611614      112.17895337807920      118.53498119133488
H          113.53367025730563      113.86269435980024      118.02677896367339
C          110.96170629248924      113.46028374467312      118.83847530208006
H          111.39108947844541      113.57461525613870      116.73528258961790
H          111.26131431602693      111.93757028045722      117.35446381852732
N          111.10898638956289      112.52312537511555      119.92966293946161
H          111.38838635806368      114.42995481878916      119.11816589799410
H          109.88841054073978      113.58605693887515      118.67766871627997
C          110.13625111879810      112.28173591248374      120.81477431123982
H          111.97583819439944      112.00697960356604      119.97315051395991
O          115.94226003394866      110.73580009732935      112.79968517899488
C          110.40536411852692      111.11087692504481      121.73678530419706
C          110.39376734565118      111.50679889813399      123.21237411126563
H          109.59479612833879      110.39633797757008      121.57751131146526
H          111.34513355639875      110.62868600449002      121.47096071815866
C          111.51423534629419      112.45481325817249      123.63424611888736
H          109.43975012006304      111.99057990881791      123.42987096134271
H          110.45909430768857      110.59206159554013      123.80361575190497
C          112.91318569430510      111.95994571489025      123.28121395438473
H          111.35417701514083      113.43916325839214      123.19503485337601
H          111.46635116996754      112.56790943599353      124.71793448095306
C          113.24639222446839      110.62265546000255      123.90964832178345
H          113.06628965459660      111.90820983106509      122.20471790058299
H          113.64090025608687      112.66957990281445      123.68534343151758
N          114.10332965008998      109.88904102932040      123.18570751865894
C          114.70630666852088      108.66626042250439      123.65403864653231
H          114.31946114706024      110.19042426340148      122.24297918090278
O          109.09555070878407      112.92832056194750      120.84876620289317
C          116.23301422294338      108.70187660688370      123.59226061683107
H          114.38208266881115      108.52831725758254      124.68853578105552
H          114.34365299712066      107.82175870005447      123.05566741960315
C          116.79862254914876      107.38460793283598      124.11561565964944
H          116.55726526199909      108.86018448052728      122.56409215905184
H          116.60996814971944      109.53344078059615      124.18960850922555
C          118.28702852318993      107.20884206522831      123.82188869317100
H          116.63061281907461      107.33151025497624      125.19440595515348
H          116.24818148728816      106.55587232045411      123.66424006594094
C          118.59442202054758      106.98725493713290      122.33166562143023
H          118.82977737467739      108.08068388691130      124.18745918057273
H          118.64045084865775      106.34127658483962      124.38659462846114
C          119.56131688964734      105.81290579248839      122.16297889177181
H          117.68011537186693      106.76022225264997      121.78211723439198
H          119.02533450258019      107.88480976200729      121.88829852355873
N          120.06439553812663      105.66749356050614      120.81953545411834
H          120.43008805930481      105.95197497556742      122.81055569722442
H          119.05465822852675      104.88525656931246      122.45227541050491
C          121.35958970942377      105.82443740456191      120.53449894890049
H          119.38397654557505      105.46795175174877      120.09017383425498
O          112.81100162695944      110.25876981404153      124.99632594982802
C          121.73327525623230      105.67268282215026      119.07863466122613
C          121.29267590572512      106.91862335670527      118.30255991064378
H          122.81471952510228      105.54899897111945      119.01793827959187
H          121.25155437699340      104.78572533781733      118.66753454542918
C          121.87006192773349      108.20853289934881      118.88671242595967
H          121.58927909585941      106.81888747381768      117.25658094991572
H          120.20437024112866      106.97205003654040      118.34410555419439
C          123.36840572118828      108.38080560542134      118.61311307145421
H          121.34313365744100      109.06749116889567      118.47145500540093
H          121.70525529206597      108.21597084980776      119.96468023593879
C          123.85234190791776      109.65170626924281      119.27570259485323
H          123.92641051604927      107.53199880867925      119.00389954700663
H          123.53076447680546      108.46054248175484      117.53648429139679
N          124.70576398814804      109.47630082879239      120.28189951451351
O          122.19535973782531      106.09624922421776      121.39482207223742
C          125.20250657911049      110.54903948204540      121.12049439095358
H          124.96646375620375      108.53486728642649      120.55786014160122
C          125.60375457705618      109.99795589260808      122.48468133346502
H          126.06122348327929      111.03720991423037      120.64554367589687
H          124.40920352931826      111.29597316362418      121.22643935004571
C          125.91927952607382      111.11268751835053      123.47825930324758
H          124.78861963307722      109.38279840229401      122.87126331330388
H          126.47809687581693      109.35551004742283      122.35951029154258
C          126.51411140482136      110.58058870112443      124.78067013126464
H          126.61687545413537      111.81300313814677      123.01649414504053
H          125.00039118651227      111.65334120121173      123.71098855917796
C          126.50915734376646      111.63599392576958      125.88682443549351
H          125.93118758799699      109.71962929260611      125.11419440333951
H          127.53416652979040      110.23618695612876      124.59452611913420
C          127.42145160410267      111.27094421311671      127.06902090007327
H          126.85486316110969      112.59174761923541      125.48672150763956
H          125.48701128804966      111.76425652177674      126.24702664897717
N          128.84019864319785      111.45793520612123      126.82475108265349
H          127.15695036739169      111.88890974695965      127.93141848267899
H          127.26141333908913      110.22485281910629      127.35062658315518
H          129.02030028896883      112.43417680448020      126.59898446332505
H          129.11192051028593      110.92450855624479      126.00525453534043
O          123.45890611712315      110.76276334573437      118.91290338965776
C          123.79034023144243      124.18214526145158      106.16589506090544
C          123.67195971463183      123.01847828515082      105.21303994275162
C          125.03281269187622      125.01547299557225      105.82579100999190
C          126.33760595092224      124.37678538314358      106.30345866692626
H          125.06979391392463      125.15313831578790      104.74223202311707
H          124.92821293705796      126.00143689521823      106.28213370539669
C          127.53848217193553      125.19960407314817      105.82375850261948
H          126.34321250327307      124.33262485265418      107.39472207022214
H          126.41779548632863      123.35636303083650      105.92396051844123
C          128.83295066326690      124.80124895024116      106.50973585797171
H          127.64825578038551      125.09455001600043      104.74364825203872
H          127.36101537772339      126.25121173886289      106.05849629941875
N          129.49431935867611      123.78457946406509      105.94538675608482
O          123.83943648603460      121.84677391370404      105.77763818780254
O          123.44996416203018      123.16098397416386      104.02811544493336
H          123.80017388518007      121.09411158407057      105.10991531601681
H          123.81383110447835      123.81973715492320      107.19300600181258
H          122.90579098678455      124.80813858501905      106.03109134539389
C          130.81930036180020      123.39263109521461      106.37265617555458
H          129.16361525127490      123.36328069014560      105.08508018640033
C          131.03729931915970      121.88504627425600      106.28522060190119
H          131.56337944583464      123.89626446705164      105.74127722752526
H          130.94703660619135      123.74963628994256      107.39767314237531
C          130.23929900138850      121.09942293384087      107.32428999646163
H          130.76153124826658      121.55331014517047      105.28265406593059
H          132.10234833362699      121.68769668954059      106.42496736077484
C          130.62107754646513      119.61842565262425      107.31521046301285
H          130.43533228821863      121.51115224695648      108.31738367473696
H          129.17614380090563      121.22016886230129      107.11253133843142
C          129.86201031446612      118.78001589337839      108.34599872379927
H          130.44866128073758      119.20420135791282      106.31931066842151
H          131.69107665588876      119.53991051330216      107.52086592979079
C          128.41628874527220      118.54144137044874      107.93478678311051
H          130.35556874395760      117.81240606686316      108.45425400360973
H          129.88725428102342      119.27606914310701      109.31776575314866
N          127.65796588256208      117.87186320603180      108.97404767036750
H          127.92952184350573      119.49668549382528      107.70099764838386
H          128.37597204485320      117.92298580980149      107.03139269087818