3795
 energy: -5103.082713520135 gnorm: 0.000885025499 xtb: 6.6.1 (8d0f1dd)
C          121.61941886467075      115.73218880424055      103.67406962184205
C          121.49935234144381      114.34788841938048      104.26518641624537
C          122.68660517506939      115.82675881235090      102.57579021974448
C          122.11447768314507      115.50447548900623      101.19668967524549
H          123.08570919551644      116.84221887317010      102.55379574809459
H          123.50839687969787      115.15069797066640      102.81578471102294
C          121.51191887384437      114.10052146376269      101.12992797625617
H          121.34570764983786      116.24290851721388      100.96328887654511
H          122.90558892864951      115.59577914125725      100.44952133617946
C          120.84484821351167      113.83210179504134       99.79260025433028
H          122.28665728684679      113.34876232700115      101.29055492483134
H          120.75220479966831      113.99365621075461      101.90330997243275
N          119.86348600088432      114.69312995564967       99.50447593916037
O          122.64569559159159      113.85626961247371      104.66874582008406
O          120.44474187811669      113.75911672963856      104.40929241682001
H          122.51249443342459      112.97187804779414      105.14516069611025
H          121.89827515027847      116.38537454842078      104.50424476913173
H          120.64805545198836      116.04906441292164      103.29325672975479
C          119.14638263531825      114.74045300207665       98.25058645996721
H          119.57405505297095      115.37162927780302      100.20046756895003
C          117.65792568225078      114.96166568334347       98.50567218282603
H          119.53468330536097      115.56856221442888       97.64435396743374
H          119.33535516227629      113.80593982645848       97.71695799730600
C          116.88109322831856      115.30016511327636       97.23735357809025
H          117.22949458188775      114.06990424989301       98.96880842237816
H          117.56087406949939      115.78468910042317       99.21748151184376
C          116.83573627488349      114.15005041526383       96.22588137190040
H          115.86186043822539      115.56455314723665       97.52313063958138
H          117.32135296506458      116.18236999188042       96.76957822631235
C          115.57779159620344      114.22079405584704       95.35531386496467
H          117.72305715264440      114.18313094072782       95.59350658370643
H          116.84154164501578      113.19165682786863       96.75055308159375
C          114.37482205592519      113.66145143636960       96.11380110851232
H          115.38872046032151      115.25951981828388       95.07938371711622
H          115.72238129770649      113.65028236128713       94.43627022273579
N          113.10949217622665      114.07590817436090       95.55197756870889
H          114.42335359165689      112.56869160481166       96.11967682714213
H          114.37461127670174      114.01804948214658       97.14514261879927
C          112.09906824943519      114.55712144743508       96.29187802140733
H          112.95340375882418      113.87056915394710       94.57796714249078
O          121.16758918150650      112.89726066845112       99.06938756448980
C          110.80515915334188      114.77744017047441       95.54108226903868
C          109.73122510823795      113.81393419456418       96.06309788286231
H          110.46919382404481      115.80154327274063       95.71806473142358
H          110.95552796992111      114.64060307442543       94.47077622932902
C          110.16023886432822      112.34472121977808       96.06797895801523
H          109.47409141594584      114.10320759614409       97.08437422650651
H          108.83705545435082      113.92445175268159       95.44760296771317
C          110.59134781420305      111.81993634407657       94.69115309351601
H          110.97492485896569      112.19429824067714       96.77924329160372
H          109.30689233453784      111.75604187303659       96.41279549672588
C          110.19305483299749      110.35780261285723       94.56006579985751
H          110.06277622880920      112.36414868601290       93.90752430815664
H          111.66637902163328      111.92418450972809       94.55206198239382
N          111.09681362655044      109.47515413671516       95.02456615682334
C          110.84349163713489      108.05510504969507       94.93978341473081
H          111.98747957251767      109.78731885094807       95.39124573576974
O          112.20888178520671      114.78445825449298       97.49067030995656
C          110.81659333188236      107.35067788282942       96.29887298914579
H          109.86745641356268      107.96149294690234       94.45587902665362
H          111.59773672504306      107.58449735069081       94.29871323073937
C          112.21439900552579      107.00607854028426       96.81163265355600
H          110.28429936931167      107.97721255751870       97.01599654376214
H          110.24971413791511      106.42451521897678       96.18257259020174
C          112.18447793569214      106.04487833413535       98.00389559034024
H          112.75968249165555      106.52612526149981       95.99643068654943
H          112.74854772203469      107.91878357581527       97.07414980840346
C          112.00661265836513      106.72649334783551       99.36337748989044
H          111.36662991578146      105.33776327988723       97.84959361653873
H          113.10870793535072      105.46403507822399       98.02453994996310
C          113.33384648644356      107.13107900205883      100.01089341136664
N          113.22020418830057      107.11806794777522      101.45377045319451
H          114.10914918787030      106.41295942289592       99.71239449386078
H          113.66420686450438      108.12567314363696       99.70610226829444
C          113.91520526933840      107.89563916383955      102.28745734169109
H          112.60864202786072      106.39469515693195      101.83115178414593
O          109.11708938446063      110.02909465279413       94.09433799683546
C          113.70344878063295      107.54329458058109      103.75603277566194
C          112.32607945804617      107.96875373742670      104.26165423289761
H          113.80369611795557      106.46295020417357      103.87819340372074
H          114.48169356661055      108.03404516953013      104.34273251820603
C          112.12939270952025      107.56318775336983      105.72131114704385
H          112.22013136072543      109.05074161188274      104.15927949390779
H          111.55870274155234      107.49053902922621      103.65138728296539
C          110.77758759738784      108.02379763556385      106.27619849230986
H          112.18258409492462      106.47520448362289      105.79759394146734
H          112.93137038947009      107.97420481409898      106.33777269666194
C          110.62903003265937      109.52895495843592      106.19240520832277
H          109.97233030125597      107.56743523800178      105.69823460230859
H          110.69708618093104      107.71013028689532      107.31522102978151
N          111.29302984718404      110.23681600667365      107.11239811963851
C          111.27521337276784      111.68573224383773      107.03926785246364
H          111.92602122503031      109.79585829544526      107.77444179331661
H          111.35874339929880      107.59702788611261       99.25691423816765
H          111.51365682327454      106.02998473410561      100.04403542888957
O          114.66222045274304      108.79896572716279      101.93566347446539
O          109.94537269472970      110.07662996646992      105.33021632197388
C          111.99289082377204      112.34495910116020      108.20578963933627
H          111.75407394404347      111.98732515099452      106.09946427369765
H          110.22962243995696      112.00630722146919      106.99622121041473
C          111.25306421465869      112.23663544605891      109.53686784585008
H          112.97818881306566      111.89196422811328      108.30929569424391
H          112.13836908022982      113.40040937082021      107.96666882779404
C          110.06076920604113      113.18488777848786      109.64818379463375
H          110.92886832468582      111.20885523309485      109.69317900168542
H          111.96111518525142      112.48866970894630      110.32681374219099
C          109.58784957988696      113.34686661580599      111.09492837740699
H          110.35884411111171      114.16355492253820      109.26633448923953
H          109.23381227849748      112.82438851815330      109.03653957193178
C          108.58571046873887      112.28908749804239      111.55508212273763
H          110.45480453063321      113.34288881427176      111.75819580130546
H          109.09553470441922      114.31490967798692      111.21027832575459
N          109.06317466087630      110.92517377590681      111.51245854547393
H          108.27467591796433      112.52187649327182      112.58066504711319
H          107.70679689859806      112.31630596104361      110.90581205852558
C          108.35555249390758      109.96434289350550      110.90850202485426
H          109.83946206747662      110.65522246910999      112.10804258991912
C          108.87880024741406      108.55672380041879      111.08472700888447
C          109.74227884477736      108.14575069325809      109.88913675640536
H          109.46788573340940      108.49626467115979      111.99710328235352
H          108.01673960010525      107.89183098458967      111.15769139598736
C          110.12711359031771      106.66724586639762      109.93977223864142
H          109.19535254259269      108.35901394644601      108.96739902087489
H          110.65366846422145      108.74658582155476      109.88899081825551
C          108.97280554683604      105.73873029466814      109.56788466979270
H          110.95782712701897      106.48473861442929      109.25482006078919
H          110.48216492650390      106.41963861506696      110.94184986971403
C          109.39628879514346      104.27563259029994      109.58447387908333
H          108.14626582164264      105.84748821617755      110.27201048495169
H          108.59232409361719      105.99409355029125      108.57717945874653
N          108.41716041065104      103.41076783629178      109.30403613736701
C          108.58715320946514      101.97076651450064      109.35966357253493
H          107.52267760605169      103.73422865861163      108.94009212678458
O          107.34699936529428      110.19745699586289      110.24645819477821
C          107.99711091506505      101.30881447959111      108.12040177653459
H          109.65626446285549      101.75878619435311      109.43439302413599
H          108.09378351701282      101.59707285075378      110.26205213883814
C          108.19209902131567       99.79198834659957      108.07169579310050
H          106.93451619012720      101.55260116196411      108.06068164782127
H          108.47923234825016      101.74954509295699      107.24493211528592
C          107.19078434686642       98.97762208439049      108.89660628328357
H          108.07822901678472       99.48548141973133      107.02815268381980
H          109.20704174692028       99.53336093935620      108.37376984556886
C          107.54377679594489       98.78157484439772      110.37086734353515
H          106.20236244025713       99.43671360970276      108.82568111446564
H          107.11975195418512       97.98368000890481      108.44600528604531
C          106.63035163801889       97.71506160758038      110.97641689205209
H          108.58493147353644       98.46645279690119      110.45780118282492
H          107.42652641330622       99.71084558892090      110.92941173045924
N          106.86812566407001       97.48355819107572      112.38030849459579
H          105.58135494370016       98.01279245045295      110.88308777101602
H          106.76689006022528       96.77302957412138      110.42697420921210
O          110.53892062986495      103.93092896651423      109.86653635995449
C          105.86979510890534       97.43545148841922      113.28355151213805
H          107.82403472370005       97.33889485826253      112.68957412276453
C          106.30907414402093       96.99682511982847      114.67096111225904
C          106.21023689498827       98.12139317694124      115.70498322088977
H          105.63891046201138       96.18730085820805      114.96850074540322
H          107.33017637872359       96.61834539432986      114.63592054308221
C          107.27845361878515       99.19781864838367      115.50782987605490
H          105.21485548255383       98.56686402786447      115.65476818853827
H          106.32793120816568       97.68025614064493      116.69786232265439
C          106.84023291086918      100.29459966161053      114.54181788221545
H          107.51521545474887       99.65226981955547      116.47298165622904
H          108.18837487049493       98.73406773947244      115.12449406818426
C          107.92829899744687      101.31522889971890      114.31530816398545
H          106.58956312796333       99.85096508039385      113.57617986658857
H          105.94902560510006      100.80832105736154      114.90600003946514
N          107.53007570971675      102.43234538837324      113.70497739181025
O          104.70982265557161       97.69313234775063      113.01073481699514
C          108.41826830462641      103.54256595596128      113.42392185324476
H          106.52776764474275      102.59114914411957      113.62904130130255
C          107.63941467257587      104.83443632936255      113.19978192273736
H          109.12006971078074      103.65173828983961      114.25927403924035
H          109.00779430619350      103.31128519904279      112.52840271018168
C          106.91642696478293      105.32045476032464      114.45620953790662
H          108.33755008629306      105.59771508450261      112.85140593873119
H          106.90489728051911      104.66076137943178      112.40967605374811
C          106.06999111510014      106.57273606991738      114.20338549161561
H          106.26391349938751      104.52034867475176      114.80630631210393
H          107.65024186128922      105.52178598051449      115.23855684259460
C          106.87126622755784      107.87835443815524      114.24468404361633
H          105.59585199245795      106.47825095713918      113.22398617967006
H          105.27110626480818      106.62188706660207      114.94277560794887
C          107.10673124395115      108.40238878071132      115.66533817687196
H          107.83742505919875      107.72984355593771      113.76271978325225
H          106.33899487524968      108.65016522348242      113.68602964852725
N          105.89729083997013      108.97265344812233      116.21378495276011
H          107.46080349851614      107.59138778945592      116.31052408886075
H          107.85808669881214      109.19637292510539      115.65267941980933
C          105.79049962769245      110.22584685159612      116.66426918400947
H          105.08489382280858      108.35811029715458      116.23912784997752
O          109.10196135310193      101.12913502596990      114.65156101450516
C          104.38347368023294      110.63909725447091      117.04370827151146
C          104.15785990653603      110.50680408604001      118.55501030398800
H          104.24043030087573      111.68021066379636      116.75132984706558
H          103.66247922784986      110.02427005107155      116.50619854608969
C          102.66873874157240      110.52588754905584      118.90676553733753
H          104.59587038136593      109.57117671202431      118.90644149385525
H          104.66294681874642      111.33105830197373      119.06052388591183
C          102.02064840178868      109.15027790241663      118.71205140792556
H          102.54037368947759      110.83760676005696      119.94443382799562
H          102.16655860617011      111.25665301300953      118.27270239185715
C          100.51462236439666      109.24849178540667      118.82959888761529
H          102.27002272716055      108.76804730498556      117.72261289691373
H          102.38800626283077      108.45239301875318      119.46489098341378
N           99.92893849030953      109.78890813478120      117.75861917396603
C           98.50980069410890      110.03385699696128      117.64029586350352
H          100.49747510196816      109.98457738572142      116.93508920795239
O          106.75306460389476      110.98260279548539      116.78231285026119
C           98.26155560123838      111.39248886732487      116.98579884285891
H           98.05136302350682      109.24505479184930      117.02908051239177
H           98.07448694080992      109.98306590920201      118.64135309328988
C           96.81286394739972      111.57433654483609      116.52974965466345
H           98.54632851017642      112.18302889932586      117.68085049797422
H           98.91253240100107      111.46150782850296      116.11377564040455
C           96.68257719512289      112.57065647205819      115.37641073439816
H           96.42819875590808      110.61064151703992      116.18755651056605
H           96.19366437804703      111.89603442168151      117.36837442626374
C           97.03959170796188      114.00459174000488      115.76402276478436
H           97.32559685464906      112.24767083849515      114.55399748228217
H           95.65332698594210      112.55380318179265      115.01105306230254
C           97.09302075312428      114.89939912394453      114.53087237829966
H           96.29682983819102      114.39438815638121      116.46185372990973
H           98.00783739424331      114.03109501761674      116.26522660674250
N           97.25637913439088      116.29089555022152      114.89201391142876
H           97.91660637632427      114.58237811314699      113.87751299273548
H           96.16481998494311      114.81659471950705      113.95546828682004
C           96.72361451425731      117.27220463619352      114.15612082178947
H           97.69859991096162      116.50265515463158      115.78710788076135
O           99.89483304351644      108.88695845590073      119.82479128892507
C           96.94585848412446      118.66721456880025      114.70512732021238
C           98.27249566357392      119.21649525385246      114.16959351463223
H           96.12167987219509      119.30923054892767      114.39223176392586
H           96.97685633997527      118.62867951955452      115.79425895900170
C           98.70147508789614      120.49914228508298      114.87558213272391
H           99.04285257865061      118.45804661647711      114.31861276142300
H           98.19084602403734      119.39214100990077      113.09701350896198
C          100.07245125652902      120.98784920078621      114.39621191676308
H           97.96018834856775      121.28333587274369      114.71514339718712
H           98.76015545612503      120.31387381918947      115.94858890158463
C          100.05054603641597      121.31788660259645      112.91748961727178
H          100.33367286835846      121.88640176468546      114.95204955814046
H          100.83112473019197      120.22972823881425      114.58975996449485
N           99.34161108704934      122.41305318700780      112.62913189172241
O           96.14588452848679      117.06027498227731      113.09371210554544
C           99.07842726110601      122.90181664880322      111.29654684997668
H           98.96524165631337      122.94296752573318      113.41234891274799
C           97.58442841004623      122.90103517530247      110.95814211412539
H           99.44174082816575      123.93239415754563      111.20651411068607
H           99.63889037713241      122.28370267764363      110.59349978699673
C           96.91378312161660      121.54260193713731      111.15064457938374
H           97.07847766188468      123.63619188928580      111.58907200918385
H           97.47959513819522      123.21490848828709      109.91888656848683
C           97.60095108460898      120.43332055232787      110.35996102574113
H           96.92156709718279      121.28574426817167      112.21150106732887
H           95.86989462997155      121.61925717732611      110.83802009535697
C           96.87078135697462      119.09912305033397      110.49855367939711
H           97.65889058506704      120.72026569029080      109.30857496201624
H           98.62051906316900      120.31307547543500      110.72723848109761
C           97.79218365758638      117.93257308239966      110.15492073947678
H           96.52701023666749      118.96447642118868      111.52569802495975
H           95.99042661329608      119.07667741452532      109.85393820993561
N           97.17021329709767      116.66768168931193      110.47246053232949
H           98.03036716838028      117.92570743664076      109.08827344589494
H           98.72514013710098      118.02843929289050      110.72393879260184
C           97.07469913886672      115.66740273573156      109.59567222519124
H           96.70937196739011      116.62359491756401      111.37943753565897
O          100.62108275382742      120.62845158100859      112.07500765337137
C           96.30013052737678      114.45871273685570      110.09962562022513
C           96.32593491313503      113.33754170269695      109.06536926066603
H           96.75014252741003      114.13096873670693      111.03827680679873
H           95.27413940753105      114.76994634698052      110.30655604806795
C           95.44947476525590      112.13763603729510      109.41528476685700
H           96.00287626879172      113.74538133205238      108.10559134233847
H           97.35952288512281      113.01035759024954      108.94273813565027
C           95.83097931158760      111.46403210749206      110.73836442115727
H           94.40721600972550      112.45621325246677      109.48422125533276
H           95.51435422123697      111.41427845435491      108.59813478953170
C           97.30584195868794      111.12759075053184      110.85864212290255
H           95.58220517035345      112.11971641208302      111.57346277002472
H           95.25682649858805      110.54089478346636      110.85236589727182
N           97.77978353413853      110.26248010138930      109.95085522513173
C           99.15087636836004      109.79664445727865      109.91687134578478
H           97.16263152557553      109.91405436046622      109.23442949410348
O           97.58756562169425      115.70452717529341      108.48101096845198
C           99.79363926048228      109.94082905670470      108.53804420278408
H           99.69602555231238      110.38295833485404      110.65683411765120
H           99.18194486271832      108.74455099561250      110.21907389329215
C           99.80901391528066      111.38401656324938      108.03182034288990
H          100.81365159117972      109.56201096283505      108.61147924567165
H           99.24809282565045      109.31867364524166      107.82497497937942
C          100.84626961016096      112.25194281865861      108.74824131917433
H          100.00396164559861      111.37828056217809      106.95918813016586
H           98.81733177794172      111.81467190831154      108.17915088307065
C          100.51174722174397      113.74238633399806      108.70291725304476
H          100.90318970880864      111.95605102615428      109.79685088555692
H          101.82905020342936      112.07850145023367      108.30525350677324
C          100.44240433805889      114.28852218413364      107.27835622691528
H           99.55004965503751      113.91595099548617      109.18848376690732
H          101.26629573801216      114.30270708856730      109.25873410137420
N          100.13449554245560      115.70033378847988      107.26665408685196
H          101.40478497267033      114.15576867138286      106.77862447741596
H           99.66711524838236      113.75919010042564      106.71919991332227
C          100.97242650027296      116.62362306458337      106.79930860840668
H           99.21354940681763      115.94417131223379      107.62461784054905
O           97.99661007568191      111.59586667420446      111.75387176352936
C          100.45769400624917      118.04585849953669      106.81196932862193
C           99.52876885766871      118.29214514014775      105.61720534256666
H           99.93578230715190      118.24599045425921      107.74735094080039
H          101.31631087906719      118.71448721147890      106.73256767258906
C           99.34119871938357      119.78173889403891      105.33557113483651
H           99.96340603780146      117.82478710325506      104.73010555733003
H           98.56238084769699      117.82127842066386      105.80537738947952
C           98.72815181270082      120.54512108713439      106.51115065182648
H          100.30513043726664      120.22889964248820      105.07912259251445
H           98.68041422099571      119.90065807470394      104.47465579260347
C           98.36116417332327      121.95076978220042      106.06009721409973
H           97.80893429853852      120.04134594213843      106.81873209065255
H           99.41352634479114      120.58982385075424      107.35635168926107
N           98.95570157827845      122.93552478799462      106.74911894177876
O          102.09678366668511      116.35200354077067      106.37239295100291
C           98.72900540555021      124.33429087298167      106.46666297707655
H           99.63527611106477      122.72781339532331      107.47203235924242
C           98.41112780882467      125.10329801378127      107.74699972836270
H           99.61987881809684      124.76522690739560      105.99789546183501
H           97.90098513026096      124.38961685146975      105.75620263391616
C           98.41278734722361      126.60967458798162      107.50180961732367
H           97.43695032031026      124.79514911114789      108.13115721204024
H           99.16461575254614      124.83719745484160      108.49063068848821
C           98.18498707295738      127.42379721795848      108.77971332083165
H           99.35921106665913      126.88302046300227      107.03261065981886
H           97.61771911593587      126.84844017296885      106.79145552223511
C           99.35456825138311      127.39526484287232      109.77090941603325
H           97.97318556423889      128.46280787135990      108.51352693094472
H           97.29415120624739      127.03010397364542      109.27334767611227
C          100.40134054926530      128.49662904770662      109.54411180151301
H           98.96693571650961      127.52003146801877      110.78392079451081
H           99.84855995854666      126.42316863866640      109.72618046713367
N          101.12517359647465      128.45047180164210      108.28395583515864
H           99.92298795747884      129.47724859977941      109.61172631697680
H          101.14604457144128      128.43482386506005      110.34481094207423
H          101.49972487442218      127.51664882849450      108.14262628402467
H          100.48399756336808      128.63344243459508      107.51912414521851
O           97.59648471436785      122.15212886231251      105.12994633879215
C          128.26183491523597      103.76858731714533      115.80789439094389
C          127.80988382159036      104.08285176513625      114.39568438183260
C          128.59157274546934      105.04005576046644      116.59183651418590
C          127.36973285278359      105.94046789950562      116.75633826523905
H          128.97601205846280      104.76235252660757      117.57492841183105
H          129.36964999426041      105.58634741523944      116.05851473826495
C          127.58336155691273      107.00089289236683      117.84156161097410
H          127.14600581042941      106.42619708908776      115.80338836066507
H          126.50514758372992      105.33321026514854      117.03675931773192
C          128.70449447320456      107.96337110036852      117.50319886074698
H          126.66569882807632      107.58195072362187      117.96078097062919
H          127.81449667048619      106.50112803232147      118.77956205023557
N          129.87505729740073      107.69491064346064      118.07445032748242
O          126.62124919798967      103.57388721544399      114.13642842221614
O          128.46163736181640      104.71396342047512      113.59678810407206
H          126.30635850239436      103.74635962300634      113.19831128663122
H          129.15755960421046      103.14780775308739      115.73868807013072
H          127.47512764960339      103.19986053172327      116.30442009475422
C          131.02767222709073      108.55515773685467      117.92553166224242
H          129.96198163887237      106.86904962538516      118.66680030882902
C          132.26342436357939      107.81932124414460      117.41200216675242
H          130.74541446596490      109.35479509154068      117.24068291111854
H          131.26312981703188      109.01231329285015      118.89265345104558
C          132.02123255299381      107.02919282368055      116.12598698389529
H          133.04292014181834      108.56494953178975      117.24769057172281
H          132.61184568141346      107.12668270521063      118.18157707705802
C          131.45769106015001      107.87327562596064      114.98420716439819
H          132.97252847679118      106.59346702229460      115.81099671231316
H          131.34088249409862      106.20323282086426      116.33836085720824
C          131.32928406508975      107.05459163037166      113.70047682143374
H          130.47563067717795      108.25908184366466      115.25540906168411
H          132.11667083495217      108.72728247984261      114.81255026411685
C          130.96714739510850      107.93117282420303      112.50693379184038
H          132.28291687077342      106.55918708968173      113.49515774222593
H          130.56552644092218      106.28291898253595      113.82011957513632
N          130.91389704298720      107.14082222095169      111.29475851962235
H          129.98706414457277      108.39249428402661      112.64368099759982
H          131.70991799105880      108.73068032329145      112.39146191349447