      -----------------------------------------------------------      
     |                   =====================                   |     
     |                           x T B                           |     
     |                   =====================                   |     
     |                         S. Grimme                         |     
     |          Mulliken Center for Theoretical Chemistry        |     
     |                    University of Bonn                     |     
      -----------------------------------------------------------      

   * xtb version 6.6.1 (8d0f1dd) compiled by 'stahn@M-Bot' on 2023-08-01

   xtb is free software: you can redistribute it and/or modify it under
   the terms of the GNU Lesser General Public License as published by
   the Free Software Foundation, either version 3 of the License, or
   (at your option) any later version.
   
   xtb is distributed in the hope that it will be useful,
   but WITHOUT ANY WARRANTY; without even the implied warranty of
   MERCHANTABILITY or FITNESS FOR A PARTICULAR PURPOSE.  See the
   GNU Lesser General Public License for more details.
   
   Cite this work as:
   * C. Bannwarth, E. Caldeweyher, S. Ehlert, A. Hansen, P. Pracht,
     J. Seibert, S. Spicher, S. Grimme, WIREs Comput. Mol. Sci., 2020, 11,
     e01493. DOI: 10.1002/wcms.1493
   
   for GFN2-xTB:
   * C. Bannwarth, S. Ehlert and S. Grimme., J. Chem. Theory Comput., 2019,
     15, 1652-1671. DOI: 10.1021/acs.jctc.8b01176
   for GFN1-xTB:
   * S. Grimme, C. Bannwarth, P. Shushkov, J. Chem. Theory Comput., 2017,
     13, 1989-2009. DOI: 10.1021/acs.jctc.7b00118
   for GFN0-xTB:
   * P. Pracht, E. Caldeweyher, S. Ehlert, S. Grimme, ChemRxiv, 2019, preprint.
     DOI: 10.26434/chemrxiv.8326202.v1
   for GFN-FF:
   * S. Spicher and S. Grimme, Angew. Chem. Int. Ed., 2020, 59, 15665-15673.
     DOI: 10.1002/anie.202004239
   
   for ALPB and GBSA implicit solvation:
   * S. Ehlert, M. Stahn, S. Spicher, S. Grimme, J. Chem. Theory Comput.,
     2021, 17, 4250-4261. DOI: 10.1021/acs.jctc.1c00471
   
   for DFT-D4:
   * E. Caldeweyher, C. Bannwarth and S. Grimme, J. Chem. Phys., 2017,
     147, 034112. DOI: 10.1063/1.4993215
   * E. Caldeweyher, S. Ehlert, A. Hansen, H. Neugebauer, S. Spicher,
     C. Bannwarth and S. Grimme, J. Chem. Phys., 2019, 150, 154122.
     DOI: 10.1063/1.5090222
   * E. Caldeweyher, J.-M. Mewes, S. Ehlert and S. Grimme, Phys. Chem. Chem. Phys.
     2020, 22, 8499-8512. DOI: 10.1039/D0CP00502A
   
   for sTDA-xTB:
   * S. Grimme and C. Bannwarth, J. Chem. Phys., 2016, 145, 054103.
     DOI: 10.1063/1.4959605
   
   in the mass-spec context:
   * V. Asgeirsson, C. Bauer and S. Grimme, Chem. Sci., 2017, 8, 4879.
     DOI: 10.1039/c7sc00601b
   * J. Koopman and S. Grimme, ACS Omega 2019, 4, 12, 15120-15133.
     DOI: 10.1021/acsomega.9b02011
   
   for metadynamics refer to:
   * S. Grimme, J. Chem. Theory Comput., 2019, 155, 2847-2862
     DOI: 10.1021/acs.jctc.9b00143
   
   for SPH calculations refer to:
   * S. Spicher and S. Grimme, J. Chem. Theory Comput., 2021, 17, 1701-1714
     DOI: 10.1021/acs.jctc.0c01306
   
   with help from (in alphabetical order)
   P. Atkinson, C. Bannwarth, F. Bohle, G. Brandenburg, E. Caldeweyher
   M. Checinski, S. Dohm, S. Ehlert, S. Ehrlich, I. Gerasimov, C. Hölzer
   A. Katbashev, J. Koopman, C. Lavigne, S. Lehtola, F. März, M. Müller,
   F. Musil, H. Neugebauer, J. Pisarek, C. Plett, P. Pracht, F. Pultar,
   J. Seibert, P. Shushkov, S. Spicher, M. Stahn, M. Steiner, T. Strunk,
   J. Stückrath, T. Rose, and J. Unsleber
   
 * started run on 2024/06/17 at 15:18:46.921     

           -------------------------------------------------
          |                Calculation Setup                |
           -------------------------------------------------

          program call               : /home/abt-grimme/AK-bin/xtb input.xyz --input input.inp --opt --gbsa water
          hostname                   : boar016.thch.uni-bonn.de
          coordinate file            : input.xyz
          omp threads                :                     8

   ID    Z sym.   atoms
    1    6 C      1-120, 363-482, 725-844, 1087-1206, 1449-1568, 1811-1930,
                  2173-2292, 2535-2654, 2897-3016
    2    1 H      121-362, 483-724, 845-1086, 1207-1448, 1569-1810,
                  1931-2172, 2293-2534, 2655-2896, 3017-3258

molecular fragmentation (1/2 indicates fragments):
111111111111111111111111111111111111111111111111111111111111111111111111
111111111111111111111111111111111111111111111111111111111111111111111111
111111111111111111111111111111111111111111111111111111111111111111111111
111111111111111111111111111111111111111111111111111111111111111111111111
111111111111111111111111111111111111111111111111111111111111111111111111
112222222222222222222222222222222222222222222222222222222222222222222222
222222222222222222222222222222222222222222222222222222222222222222222222
222222222222222222222222222222222222222222222222222222222222222222222222
222222222222222222222222222222222222222222222222222222222222222222222222
222222222222222222222222222222222222222222222222222222222222222222222222
222222222222222222222222222222222222222222222222222222222222222222222222
222222222222222222222222222222222222222222222222222222222222222222222222
222222222222222222222222222222222222222222222222222222222222222222222222
222222222222222222222222222222222222222222222222222222222222222222222222
222222222222222222222222222222222222222222222222222222222222222222222222
222222222222222222222222222222222222222222222222222222222222222222222222
222222222222222222222222222222222222222222222222222222222222222222222222
222222222222222222222222222222222222222222222222222222222222222222222222
222222222222222222222222222222222222222222222222222222222222222222222222
222222222222222222222222222222222222222222222222222222222222222222222222
222222222222222222222222222222222222222222222222222222222222222222222222
222222222222222222222222222222222222222222222222222222222222222222222222
222222222222222222222222222222222222222222222222222222222222222222222222
222222222222222222222222222222222222222222222222222222222222222222222222
222222222222222222222222222222222222222222222222222222222222222222222222
222222222222222222222222222222222222222222222222222222222222222222222222
222222222222222222222222222222222222222222222222222222222222222222222222
222222222222222222222222222222222222222222222222222222222222222222222222
222222222222222222222222222222222222222222222222222222222222222222222222
222222222222222222222222222222222222222222222222222222222222222222222222
222222222222222222222222222222222222222222222222222222222222222222222222
222222222222222222222222222222222222222222222222222222222222222222222222
222222222222222222222222222222222222222222222222222222222222222222222222
222222222222222222222222222222222222222222222222222222222222222222222222
222222222222222222222222222222222222222222222222222222222222222222222222
222222222222222222222222222222222222222222222222222222222222222222222222
222222222222222222222222222222222222222222222222222222222222222222222222
222222222222222222222222222222222222222222222222222222222222222222222222
222222222222222222222222222222222222222222222222222222222222222222222222
222222222222222222222222222222222222222222222222222222222222222222222222
222222222222222222222222222222222222222222222222222222222222222222222222
222222222222222222222222222222222222222222222222222222222222222222222222
222222222222222222222222222222222222222222222222222222222222222222222222
222222222222222222222222222222222222222222222222222222222222222222222222
222222222222222222222222222222222222222222222222222222222222222222222222
222222222222222222
# atoms in fragment 1/2:   362  2896
 fragment masses (1/2) :     1685.21    13481.68
CMA distance (Bohr)    :  12.690
constraining FC (au)   :  0.0500

           -------------------------------------------------
          |                 G F N 2 - x T B                 |
           -------------------------------------------------

        Reference                      10.1021/acs.jctc.8b01176
      * Hamiltonian:
        H0-scaling (s, p, d)           1.850000    2.230000    2.230000
        zeta-weighting                 0.500000
      * Dispersion:
        s8                             2.700000
        a1                             0.520000
        a2                             5.000000
        s9                             5.000000
      * Repulsion:
        kExp                           1.500000    1.000000
        rExp                           1.000000
      * Coulomb:
        alpha                          2.000000
        third order                    shell-resolved
        anisotropic                    true
        a3                             3.000000
        a5                             4.000000
        cn-shift                       1.200000
        cn-exp                         4.000000
        max-rad                        5.000000

      * Solvation model:               GBSA
        Solvent                        water
        Parameter file                 internal GFN2-xTB/GBSA
        Dielectric constant                8.0200E+01
        Reference state                gsolv [1 M gas/solution]
        Free energy shift                  1.8574E-03 Eh       1.1656E+00 kcal/mol
        Temperature                        2.9815E+02 K
        Density                            1.0000E+00 kg/L
        Solvent mass                       1.8000E+01 g/mol
        Interaction kernel             Still
        Born radius scaling (c1)           1.5524E+00
        Born radii integrator          GBOBC
        Born offset                        2.4628E-02 a0       4.6540E-02 AA
        H-bond correction              true
        Ion screening                  false
        Surface tension                    1.0000E-05 Eh       1.5569E+01 dyn/cm
        Grid points                               230 per atom
q/qsh data taken from xtbrestart
CAMM data taken from xtbrestart

          ...................................................
          :                      SETUP                      :
          :.................................................:
          :  # basis functions                6498          :
          :  # atomic orbitals                6498          :
          :  # shells                         4338          :
          :  # electrons                      6498          :
          :  max. iterations                   250          :
          :  Hamiltonian                  GFN2-xTB          :
          :  restarted?                       true          :
          :  GBSA solvation                   true          :
          :  PC potential                    false          :
          :  electronic temp.          300.0000000     K    :
          :  accuracy                    1.0000000          :
          :  -> integral cutoff          0.2500000E+02      :
          :  -> integral neglect         0.1000000E-07      :
          :  -> SCF convergence          0.1000000E-05 Eh   :
          :  -> wf. convergence          0.1000000E-03 e    :
          :  Broyden damping             0.4000000          :
          ...................................................

 iter      E             dE          RMSdq      gap      omega  full diag
   1  -3472.5272886 -0.347253E+04  0.120E-04   10.28       0.0  T
   2  -3472.5272886 -0.111918E-07  0.971E-05   10.28      18.0  T
   3  -3472.5272886 -0.186828E-07  0.535E-05   10.28      32.8  T

   *** convergence criteria satisfied after 3 iterations ***

         #    Occupation            Energy/Eh            Energy/eV
      -------------------------------------------------------------
         1        2.0000           -0.6175674             -16.8049
       ...           ...                  ...                  ...
      3243        2.0000           -0.3781749             -10.2907
      3244        2.0000           -0.3778585             -10.2821
      3245        2.0000           -0.3775662             -10.2741
      3246        2.0000           -0.3762968             -10.2396
      3247        2.0000           -0.3748357             -10.1998
      3248        2.0000           -0.3737181             -10.1694
      3249        2.0000           -0.3705555             -10.0833 (HOMO)
      3250                          0.0071630               0.1949 (LUMO)
      3251                          0.0107347               0.2921
      3252                          0.0126758               0.3449
      3253                          0.0134825               0.3669
      3254                          0.0148347               0.4037
       ...                                ...                  ...
      6498                          0.4077971              11.0967
      -------------------------------------------------------------
                  HL-Gap            0.3777185 Eh           10.2782 eV
             Fermi-level           -0.1816963 Eh           -4.9442 eV

 SCC (total)                   0 d,  0 h,  7 min, 14.114 sec
 SCC setup                      ...        0 min,  1.699 sec (  0.391%)
 Dispersion                     ...        0 min,  3.529 sec (  0.813%)
 classical contributions        ...        0 min,  0.133 sec (  0.031%)
 integral evaluation            ...        0 min,  5.945 sec (  1.369%)
 iterations                     ...        3 min,  5.605 sec ( 42.755%)
 molecular gradient             ...        3 min, 48.673 sec ( 52.676%)
 printout                       ...        0 min,  8.531 sec (  1.965%)

         :::::::::::::::::::::::::::::::::::::::::::::::::::::
         ::                     SUMMARY                     ::
         :::::::::::::::::::::::::::::::::::::::::::::::::::::
         :: total energy           -3426.946602918426 Eh    ::
         :: total w/o Gsasa/hb     -3426.855554776823 Eh    ::
         :: gradient norm              0.633945196994 Eh/a0 ::
         :: HOMO-LUMO gap             10.278243917449 eV    ::
         ::.................................................::
         :: SCC energy             -3472.527288586120 Eh    ::
         :: -> isotropic ES            0.283705348598 Eh    ::
         :: -> anisotropic ES          1.279709506701 Eh    ::
         :: -> anisotropic XC          2.127460232493 Eh    ::
         :: -> dispersion             -4.422274695987 Eh    ::
         :: -> Gsolv                  -0.034732011559 Eh    ::
         ::    -> Gelec                0.056316130044 Eh    ::
         ::    -> Gsasa               -0.089221529180 Eh    ::
         ::    -> Ghb                 -0.003684055549 Eh    ::
         ::    -> Gshift               0.001857443127 Eh    ::
         :: repulsion energy          44.817822766764 Eh    ::
         :: add. restraining           0.000000000000 Eh    ::
         :: total charge              -0.000000000013 e     ::
         :::::::::::::::::::::::::::::::::::::::::::::::::::::

      ----------------------------------------------------------- 
     |              Fast Inertial Relaxation Engine              |
      ----------------------------------------------------------- 

          ...................................................
          :                      SETUP                      :
          :.................................................:
          :   energy convergence        0.5000000E-05 Eh    :
          :   grad. convergence         0.1000000E-02 Eh/a0 :
          :   optimization log               true           :
          :   writing optlog all                1     steps :
          :   Hessian reset                    20     steps :
          :   time step scaling                 5     steps :
          :   maximium step len.        1.0000000     a0    :
          :   initial time step         0.2500000     fs    :
          :   maximum time step         1.2500000     fs    :
          :   power reset thr           0.0000000     au    :
          :   alpha parameter           0.1000000           :
          :   BFGS update                   false           :
          :   preconditioning               false           :
          ...................................................

........................................................................
.............................. CYCLE    1 ..............................
........................................................................

 iter      E             dE          RMSdq      gap      omega  full diag
   1  -3472.7619810 -0.347276E+04  0.744E-03   10.32       0.0  T
   2  -3472.7620249 -0.438935E-04  0.390E-03   10.32       1.0  T
   3  -3472.7620254 -0.427376E-06  0.182E-03   10.32       1.0  T
   4  -3472.7620255 -0.156991E-06  0.228E-04   10.32       7.7  T
   5  -3472.7620256 -0.401537E-07  0.147E-04   10.32      12.0  T
     SCC iter.                  ...        4 min, 56.605 sec
     gradient                   ...        3 min, 46.566 sec
 * total energy  : -3426.9922334 Eh     change    :  -0.4563052E-01 Eh
   gradient norm :     0.5998081 Eh/a0  converged?    E=F G=F D=F
   time step     :     0.2500000 fs     power     :   0.2354334E-05
   step length   :     0.0742970 a0     speed     :   0.7188636E-02

........................................................................
.............................. CYCLE    2 ..............................
........................................................................

 iter      E             dE          RMSdq      gap      omega  full diag
   1  -3473.1078547 -0.347311E+04  0.109E-02   10.37       0.0  T
   2  -3473.1079486 -0.939217E-04  0.570E-03   10.37       1.0  T
   3  -3473.1079496 -0.963330E-06  0.265E-03   10.37       1.0  T
   4  -3473.1079500 -0.363460E-06  0.346E-04   10.37       5.1  T
   5  -3473.1079501 -0.902264E-07  0.226E-04   10.37       7.7  T
     SCC iter.                  ...        4 min, 54.352 sec
     gradient                   ...        3 min, 53.843 sec
 * total energy  : -3427.0549736 Eh     change    :  -0.6274015E-01 Eh
   gradient norm :     0.5508851 Eh/a0  converged?    E=F G=F D=F
   time step     :     0.2500000 fs     power     :   0.3183808E-05
   step length   :     0.1093237 a0     speed     :   0.1057766E-01

........................................................................
.............................. CYCLE    3 ..............................
........................................................................

 iter      E             dE          RMSdq      gap      omega  full diag
   1  -3473.5557341 -0.347356E+04  0.139E-02   10.44       0.0  T
   2  -3473.5558867 -0.152625E-03  0.730E-03   10.44       1.0  T
   3  -3473.5558884 -0.165040E-05  0.337E-03   10.44       1.0  T
   4  -3473.5558890 -0.613413E-06  0.452E-04   10.44       3.9  T
   5  -3473.5558892 -0.149211E-06  0.296E-04   10.44       5.9  T
     SCC iter.                  ...        4 min, 58.816 sec
     gradient                   ...        3 min, 48.138 sec
 * total energy  : -3427.1282648 Eh     change    :  -0.7329119E-01 Eh
   gradient norm :     0.4898745 Eh/a0  converged?    E=F G=F D=F
   time step     :     0.2500000 fs     power     :   0.3647446E-05
   step length   :     0.1414846 a0     speed     :   0.1368940E-01

........................................................................
.............................. CYCLE    4 ..............................
........................................................................

 iter      E             dE          RMSdq      gap      omega  full diag
   1  -3474.0939928 -0.347409E+04  0.165E-02   10.46       0.0  T
   2  -3474.0942028 -0.209957E-03  0.863E-03   10.46       1.0  T
   3  -3474.0942052 -0.243878E-05  0.395E-03   10.46       1.0  T
   4  -3474.0942061 -0.875194E-06  0.545E-04   10.45       3.2  T
   5  -3474.0942063 -0.206621E-06  0.357E-04   10.45       4.9  T
     SCC iter.                  ...        4 min, 59.850 sec
     gradient                   ...        3 min, 48.048 sec
 * total energy  : -3427.2047493 Eh     change    :  -0.7648454E-01 Eh
   gradient norm :     0.4213182 Eh/a0  converged?    E=F G=F D=F
   time step     :     0.2500000 fs     power     :   0.3716322E-05
   step length   :     0.1699171 a0     speed     :   0.1644039E-01

........................................................................
.............................. CYCLE    5 ..............................
........................................................................

 iter      E             dE          RMSdq      gap      omega  full diag
   1  -3474.7086511 -0.347471E+04  0.184E-02   10.46       0.0  T
   2  -3474.7089063 -0.255149E-03  0.965E-03   10.46       1.0  T
   3  -3474.7089096 -0.327480E-05  0.435E-03   10.46       1.0  T
   4  -3474.7089107 -0.111242E-05  0.624E-04   10.46       2.8  T
   5  -3474.7089109 -0.250824E-06  0.405E-04   10.46       4.3  T
   6  -3474.7089111 -0.131596E-06  0.174E-04   10.46      10.0  T
     SCC iter.                  ...        6 min,  0.155 sec
     gradient                   ...        3 min, 48.779 sec
 * total energy  : -3427.2773274 Eh     change    :  -0.7257809E-01 Eh
   gradient norm :     0.3520742 Eh/a0  converged?    E=F G=F D=F
   time step     :     0.2500000 fs     power     :   0.3421318E-05
   step length   :     0.1938849 a0     speed     :   0.1875940E-01

........................................................................
.............................. CYCLE    6 ..............................
........................................................................

 iter      E             dE          RMSdq      gap      omega  full diag
   1  -3475.4569831 -0.347546E+04  0.218E-02   10.46       0.0  T
   2  -3475.4573233 -0.340211E-03  0.114E-02   10.46       1.0  T
   3  -3475.4573283 -0.497752E-05  0.502E-03   10.46       1.0  T
   4  -3475.4573298 -0.151085E-05  0.749E-04   10.46       2.3  T
   5  -3475.4573301 -0.320579E-06  0.474E-04   10.46       3.7  T
   6  -3475.4573303 -0.147183E-06  0.185E-04   10.46       9.5  T
     SCC iter.                  ...        5 min, 57.740 sec
     gradient                   ...        3 min, 48.406 sec
 * total energy  : -3427.3461791 Eh     change    :  -0.6885172E-01 Eh
   gradient norm :     0.2858447 Eh/a0  converged?    E=F G=F D=F
   time step     :     0.2750000 fs     power     :   0.2772186E-05
   step length   :     0.2361497 a0     speed     :   0.2077160E-01

........................................................................
.............................. CYCLE    7 ..............................
........................................................................

 iter      E             dE          RMSdq      gap      omega  full diag
   1  -3476.3331875 -0.347633E+04  0.249E-02   10.46       0.0  T
   2  -3476.3335847 -0.397200E-03  0.131E-02   10.46       1.0  T
   3  -3476.3335921 -0.731653E-05  0.543E-03   10.46       1.0  T
   4  -3476.3335940 -0.196315E-05  0.882E-04   10.46       2.0  T
   5  -3476.3335944 -0.362283E-06  0.547E-04   10.46       3.2  T
   6  -3476.3335945 -0.162215E-06  0.189E-04   10.46       9.3  T
     SCC iter.                  ...        5 min, 54.452 sec
     gradient                   ...        3 min, 46.535 sec
 * total energy  : -3427.4032243 Eh     change    :  -0.5704514E-01 Eh
   gradient norm :     0.2426701 Eh/a0  converged?    E=F G=F D=F
   time step     :     0.3025000 fs     power     :   0.1869006E-05
   step length   :     0.2780618 a0     speed     :   0.2223469E-01

........................................................................
.............................. CYCLE    8 ..............................
........................................................................

 iter      E             dE          RMSdq      gap      omega  full diag
   1  -3477.3003041 -0.347730E+04  0.273E-02   10.46       0.0  T
   2  -3477.3006812 -0.377105E-03  0.145E-02   10.46       1.0  T
   3  -3477.3006912 -0.100129E-04  0.533E-03   10.46       1.0  T
   4  -3477.3006934 -0.220963E-05  0.990E-04   10.46       1.8  T
   5  -3477.3006937 -0.323010E-06  0.594E-04   10.46       2.9  T
   6  -3477.3006939 -0.146053E-06  0.170E-04   10.46      10.3  T
     SCC iter.                  ...        5 min, 57.999 sec
     gradient                   ...        3 min, 47.364 sec
 * total energy  : -3427.4431078 Eh     change    :  -0.3988351E-01 Eh
   gradient norm :     0.2370413 Eh/a0  converged?    E=F G=F D=F
   time step     :     0.3327500 fs     power     :   0.9535868E-06
   step length   :     0.3136570 a0     speed     :   0.2280090E-01

........................................................................
.............................. CYCLE    9 ..............................
........................................................................

 iter      E             dE          RMSdq      gap      omega  full diag
   1  -3478.2815910 -0.347828E+04  0.293E-02   10.46       0.0  T
   2  -3478.2818567 -0.265686E-03  0.160E-02   10.46       1.0  T
   3  -3478.2818691 -0.123928E-04  0.444E-03   10.46       1.0  T
   4  -3478.2818711 -0.198093E-05  0.104E-03   10.46       1.7  T
   5  -3478.2818712 -0.196160E-06  0.591E-04   10.46       3.0  T
   6  -3478.2818714 -0.102314E-06  0.122E-04   10.46      14.3  T
     SCC iter.                  ...        6 min,  0.750 sec
     gradient                   ...        3 min, 46.381 sec
 * total energy  : -3427.4663959 Eh     change    :  -0.2328812E-01 Eh
   gradient norm :     0.2494943 Eh/a0  converged?    E=F G=F D=F
   time step     :     0.3660250 fs     power     :   0.2785493E-06
   step length   :     0.3372493 a0     speed     :   0.2228720E-01

........................................................................
.............................. CYCLE   10 ..............................
........................................................................

 iter      E             dE          RMSdq      gap      omega  full diag
   1  -3479.1824897 -0.347918E+04  0.319E-02   10.46       0.0  T
   2  -3479.1826141 -0.124419E-03  0.181E-02   10.46       1.0  T
   3  -3479.1826278 -0.137149E-04  0.281E-03   10.46       1.0  T
   4  -3479.1826292 -0.142078E-05  0.105E-03   10.46       1.7  T
   5  -3479.1826293 -0.557970E-07  0.515E-04   10.46       3.4  T
   6  -3479.1826294 -0.645678E-07  0.607E-05   10.46      28.9  T
     SCC iter.                  ...        5 min, 51.564 sec
     gradient                   ...        3 min, 48.585 sec
 * total energy  : -3427.4773968 Eh     change    :  -0.1100089E-01 Eh
   gradient norm :     0.2469242 Eh/a0  converged?    E=F G=F D=F
   time step     :     0.4026275 fs     power     :  -0.1342657E-06
   step length   :     0.3498105 a0     speed     :   0.2101573E-01

........................................................................
.............................. CYCLE   11 ..............................
........................................................................
 * reset velocities

 iter      E             dE          RMSdq      gap      omega  full diag
   1  -3479.1654094 -0.347917E+04  0.118E-03   10.46       0.0  T
   2  -3479.1654101 -0.763120E-06  0.675E-04   10.46       2.6  T
   3  -3479.1654101 -0.359296E-08  0.262E-04   10.46       6.7  T
     SCC iter.                  ...        2 min, 58.308 sec
     gradient                   ...        3 min, 47.175 sec
 * total energy  : -3427.4796802 Eh     change    :  -0.2283410E-02 Eh
   gradient norm :     0.2398173 Eh/a0  converged?    E=F G=F D=F
   time step     :     0.2013138 fs     power     :   0.1483120E-06
   step length   :     0.0093825 a0     speed     :   0.1127358E-02

........................................................................
.............................. CYCLE   12 ..............................
........................................................................

 iter      E             dE          RMSdq      gap      omega  full diag
   1  -3479.1314047 -0.347913E+04  0.232E-03   10.46       0.0  T
   2  -3479.1314077 -0.295384E-05  0.133E-03   10.46       1.3  T
   3  -3479.1314077 -0.182454E-07  0.516E-04   10.46       3.4  T
   4  -3479.1314077 -0.972295E-08  0.469E-05   10.46      37.3  T
     SCC iter.                  ...        3 min, 56.940 sec
     gradient                   ...        3 min, 46.800 sec
 * total energy  : -3427.4839868 Eh     change    :  -0.4306640E-02 Eh
   gradient norm :     0.2258918 Eh/a0  converged?    E=F G=F D=F
   time step     :     0.2013138 fs     power     :   0.2753563E-06
   step length   :     0.0184950 a0     speed     :   0.2222262E-02

........................................................................
.............................. CYCLE   13 ..............................
........................................................................

 iter      E             dE          RMSdq      gap      omega  full diag
   1  -3479.0814774 -0.347908E+04  0.339E-03   10.46       0.0  T
   2  -3479.0814838 -0.639030E-05  0.195E-03   10.46       1.0  T
   3  -3479.0814838 -0.442974E-07  0.760E-04   10.46       2.3  T
   4  -3479.0814838 -0.249288E-07  0.763E-05   10.46      23.0  T
     SCC iter.                  ...        3 min, 54.240 sec
     gradient                   ...        3 min, 49.012 sec
 * total energy  : -3427.4898278 Eh     change    :  -0.5840961E-02 Eh
   gradient norm :     0.2055902 Eh/a0  converged?    E=F G=F D=F
   time step     :     0.2013138 fs     power     :   0.3668024E-06
   step length   :     0.0270777 a0     speed     :   0.3253522E-02

........................................................................
.............................. CYCLE   14 ..............................
........................................................................

 iter      E             dE          RMSdq      gap      omega  full diag
   1  -3479.0169151 -0.347902E+04  0.436E-03   10.46       0.0  T
   2  -3479.0169258 -0.106219E-04  0.250E-03   10.46       1.0  T
   3  -3479.0169258 -0.767282E-07  0.981E-04   10.46       1.8  T
   4  -3479.0169259 -0.436648E-07  0.101E-04   10.46      17.3  T
     SCC iter.                  ...        3 min, 57.376 sec
     gradient                   ...        3 min, 48.405 sec
 * total energy  : -3427.4965436 Eh     change    :  -0.6715839E-02 Eh
   gradient norm :     0.1796421 Eh/a0  converged?    E=F G=F D=F
   time step     :     0.2013138 fs     power     :   0.4125866E-06
   step length   :     0.0348869 a0     speed     :   0.4191833E-02

........................................................................
.............................. CYCLE   15 ..............................
........................................................................

 iter      E             dE          RMSdq      gap      omega  full diag
   1  -3478.9394232 -0.347894E+04  0.520E-03   10.46       0.0  T
   2  -3478.9394384 -0.151828E-04  0.298E-03   10.46       1.0  T
   3  -3478.9394385 -0.111786E-06  0.117E-03   10.46       1.5  T
   4  -3478.9394386 -0.640171E-07  0.123E-04   10.46      14.2  T
   5  -3478.9394386 -0.176310E-07  0.853E-05   10.46      20.5  T
     SCC iter.                  ...        5 min,  4.872 sec
     gradient                   ...        3 min, 47.717 sec
 * total energy  : -3427.5033837 Eh     change    :  -0.6840028E-02 Eh
   gradient norm :     0.1490192 Eh/a0  converged?    E=F G=F D=F
   time step     :     0.2013138 fs     power     :   0.4080819E-06
   step length   :     0.0417033 a0     speed     :   0.5010855E-02

........................................................................
.............................. CYCLE   16 ..............................
........................................................................

 iter      E             dE          RMSdq      gap      omega  full diag
   1  -3478.8511312 -0.347885E+04  0.587E-03   10.46       0.0  T
   2  -3478.8511507 -0.195171E-04  0.336E-03   10.46       1.0  T
   3  -3478.8511508 -0.131436E-06  0.133E-03   10.46       1.3  T
   4  -3478.8511509 -0.729610E-07  0.131E-04   10.46      13.4  T
   5  -3478.8511509 -0.205273E-07  0.883E-05   10.46      19.8  T
     SCC iter.                  ...        4 min, 58.161 sec
     gradient                   ...        3 min, 47.183 sec
 * total energy  : -3427.5095964 Eh     change    :  -0.6212714E-02 Eh
   gradient norm :     0.1151331 Eh/a0  converged?    E=F G=F D=F
   time step     :     0.2013138 fs     power     :   0.3549157E-06
   step length   :     0.0473362 a0     speed     :   0.5687673E-02

........................................................................
.............................. CYCLE   17 ..............................
........................................................................

 iter      E             dE          RMSdq      gap      omega  full diag
   1  -3478.7440523 -0.347874E+04  0.704E-03   10.46       0.0  T
   2  -3478.7440806 -0.283679E-04  0.403E-03   10.46       1.0  T
   3  -3478.7440808 -0.185363E-06  0.160E-03   10.46       1.1  T
   4  -3478.7440809 -0.101926E-06  0.155E-04   10.46      11.3  T
   5  -3478.7440809 -0.291916E-07  0.103E-04   10.46      17.1  T
     SCC iter.                  ...        5 min,  3.874 sec
     gradient                   ...        3 min, 48.860 sec
 * total energy  : -3427.5149465 Eh     change    :  -0.5350072E-02 Eh
   gradient norm :     0.0766136 Eh/a0  converged?    E=F G=F D=F
   time step     :     0.2214451 fs     power     :   0.2490395E-06
   step length   :     0.0572601 a0     speed     :   0.6254623E-02

........................................................................
.............................. CYCLE   18 ..............................
........................................................................

 iter      E             dE          RMSdq      gap      omega  full diag
   1  -3478.6194599 -0.347862E+04  0.807E-03   10.46       0.0  T
   2  -3478.6194978 -0.378436E-04  0.463E-03   10.46       1.0  T
   3  -3478.6194980 -0.244430E-06  0.185E-03   10.46       1.0  T
   4  -3478.6194982 -0.133070E-06  0.177E-04   10.46       9.9  T
   5  -3478.6194982 -0.385271E-07  0.116E-04   10.46      15.1  T
     SCC iter.                  ...        4 min, 59.352 sec
     gradient                   ...        3 min, 59.149 sec
 * total energy  : -3427.5182970 Eh     change    :  -0.3350502E-02 Eh
   gradient norm :     0.0432819 Eh/a0  converged?    E=F G=F D=F
   time step     :     0.2435896 fs     power     :   0.9653148E-07
   step length   :     0.0667805 a0     speed     :   0.6631407E-02

........................................................................
.............................. CYCLE   19 ..............................
........................................................................

 iter      E             dE          RMSdq      gap      omega  full diag
   1  -3478.4867443 -0.347849E+04  0.842E-03   10.46       0.0  T
   2  -3478.4867864 -0.420913E-04  0.485E-03   10.46       1.0  T
   3  -3478.4867867 -0.273445E-06  0.196E-03   10.46       1.0  T
   4  -3478.4867868 -0.144258E-06  0.186E-04   10.46       9.4  T
   5  -3478.4867869 -0.429532E-07  0.117E-04   10.46      15.0  T
     SCC iter.                  ...        4 min, 56.737 sec
     gradient                   ...        3 min, 47.780 sec
 * total energy  : -3427.5187545 Eh     change    :  -0.4575781E-03 Eh
   gradient norm :     0.0524208 Eh/a0  converged?    E=F G=F D=F
   time step     :     0.2679486 fs     power     :  -0.6372010E-07
   step length   :     0.0728982 a0     speed     :   0.6580825E-02

........................................................................
.............................. CYCLE   20 ..............................
........................................................................
 * reset velocities

 iter      E             dE          RMSdq      gap      omega  full diag
   1  -3478.4878959 -0.347849E+04  0.122E-04   10.46       0.0  T
   2  -3478.4878959 -0.630780E-08  0.790E-05   10.46      22.2  T
   3  -3478.4878959 -0.353930E-08  0.358E-05   10.46      48.9  T
     SCC iter.                  ...        3 min,  0.936 sec
     gradient                   ...        3 min, 46.310 sec
 * total energy  : -3427.5188006 Eh     change    :  -0.4606693E-04 Eh
   gradient norm :     0.0520106 Eh/a0  converged?    E=F G=F D=T
   time step     :     0.1339743 fs     power     :   0.4544344E-08
   step length   :     0.0008822 a0     speed     :   0.1592758E-03
 * RMSD in coord.:     0.0346565 a0     energy gain  -0.5721977E+00 Eh

........................................................................
.............................. CYCLE   21 ..............................
........................................................................

 iter      E             dE          RMSdq      gap      omega  full diag
   1  -3478.4937578 -0.347849E+04  0.554E-04   10.46       0.0  T
   2  -3478.4937579 -0.958535E-07  0.316E-04   10.46       5.6  T
   3  -3478.4937579 -0.811724E-09  0.906E-05   10.46      19.3  T
     SCC iter.                  ...        2 min, 55.068 sec
     gradient                   ...        3 min, 46.356 sec
 * total energy  : -3427.5190399 Eh     change    :  -0.2393139E-03 Eh
   gradient norm :     0.0499904 Eh/a0  converged?    E=F G=F D=F
   time step     :     0.2500000 fs     power     :   0.1244634E-07
   step length   :     0.0046939 a0     speed     :   0.4541611E-03

........................................................................
.............................. CYCLE   22 ..............................
........................................................................

 iter      E             dE          RMSdq      gap      omega  full diag
   1  -3478.5031000 -0.347850E+04  0.899E-04   10.46       0.0  T
   2  -3478.5031003 -0.245004E-06  0.514E-04   10.46       3.4  T
   3  -3478.5031003 -0.384716E-08  0.146E-04   10.46      12.0  T
     SCC iter.                  ...        2 min, 59.817 sec
     gradient                   ...        3 min, 46.873 sec
 * total energy  : -3427.5194086 Eh     change    :  -0.3687211E-03 Eh
   gradient norm :     0.0469062 Eh/a0  converged?    E=F G=F D=F
   time step     :     0.2500000 fs     power     :   0.1891353E-07
   step length   :     0.0076220 a0     speed     :   0.7374711E-03

........................................................................
.............................. CYCLE   23 ..............................
........................................................................

 iter      E             dE          RMSdq      gap      omega  full diag
   1  -3478.5154081 -0.347852E+04  0.121E-03   10.46       0.0  T
   2  -3478.5154085 -0.427646E-06  0.690E-04   10.46       2.5  T
   3  -3478.5154086 -0.904447E-08  0.193E-04   10.46       9.1  T
     SCC iter.                  ...        2 min, 58.513 sec
     gradient                   ...        3 min, 47.648 sec
 * total energy  : -3427.5198725 Eh     change    :  -0.4638992E-03 Eh
   gradient norm :     0.0431267 Eh/a0  converged?    E=F G=F D=F
   time step     :     0.2500000 fs     power     :   0.2346556E-07
   step length   :     0.0103630 a0     speed     :   0.1002673E-02

........................................................................
.............................. CYCLE   24 ..............................
........................................................................

 iter      E             dE          RMSdq      gap      omega  full diag
   1  -3478.5299600 -0.347853E+04  0.146E-03   10.46       0.0  T
   2  -3478.5299606 -0.600540E-06  0.837E-04   10.46       2.1  T
   3  -3478.5299606 -0.150617E-07  0.228E-04   10.46       7.7  T
     SCC iter.                  ...        3 min,  2.153 sec
     gradient                   ...        3 min, 46.120 sec
 * total energy  : -3427.5203935 Eh     change    :  -0.5209452E-03 Eh
   gradient norm :     0.0391904 Eh/a0  converged?    E=F G=F D=F
   time step     :     0.2500000 fs     power     :   0.2599835E-07
   step length   :     0.0128623 a0     speed     :   0.1244495E-02

........................................................................
.............................. CYCLE   25 ..............................
........................................................................

 iter      E             dE          RMSdq      gap      omega  full diag
   1  -3478.5458240 -0.347855E+04  0.166E-03   10.46       0.0  T
   2  -3478.5458247 -0.717047E-06  0.949E-04   10.46       1.8  T
   3  -3478.5458247 -0.210930E-07  0.248E-04   10.46       7.1  T
     SCC iter.                  ...        2 min, 57.330 sec
     gradient                   ...        3 min, 47.688 sec
 * total energy  : -3427.5209373 Eh     change    :  -0.5437812E-03 Eh
   gradient norm :     0.0357681 Eh/a0  converged?    E=F G=F D=F
   time step     :     0.2500000 fs     power     :   0.2683419E-07
   step length   :     0.0150812 a0     speed     :   0.1459185E-02

........................................................................
.............................. CYCLE   26 ..............................
........................................................................

 iter      E             dE          RMSdq      gap      omega  full diag
   1  -3478.5635879 -0.347856E+04  0.197E-03   10.46       0.0  T
   2  -3478.5635888 -0.903482E-06  0.113E-03   10.46       1.6  T
   3  -3478.5635888 -0.308664E-07  0.276E-04   10.46       6.3  T
   4  -3478.5635888 -0.126784E-07  0.643E-05   10.46      27.2  T
     SCC iter.                  ...        4 min,  4.134 sec
     gradient                   ...        3 min, 46.125 sec
 * total energy  : -3427.5215384 Eh     change    :  -0.6010878E-03 Eh
   gradient norm :     0.0333394 Eh/a0  converged?    E=F G=F D=F
   time step     :     0.2750000 fs     power     :   0.2658629E-07
   step length   :     0.0189187 a0     speed     :   0.1664079E-02

........................................................................
.............................. CYCLE   27 ..............................
........................................................................

 iter      E             dE          RMSdq      gap      omega  full diag
   1  -3478.5817226 -0.347858E+04  0.223E-03   10.46       0.0  T
   2  -3478.5817235 -0.958801E-06  0.128E-03   10.46       1.4  T
   3  -3478.5817236 -0.377713E-07  0.279E-04   10.46       6.3  T
   4  -3478.5817236 -0.153982E-07  0.705E-05   10.46      24.8  T
     SCC iter.                  ...        3 min, 56.510 sec
     gradient                   ...        3 min, 46.069 sec
 * total energy  : -3427.5221917 Eh     change    :  -0.6533504E-03 Eh
   gradient norm :     0.0326856 Eh/a0  converged?    E=F G=F D=F
   time step     :     0.3025000 fs     power     :   0.2615447E-07
   step length   :     0.0231728 a0     speed     :   0.1852969E-02

........................................................................
.............................. CYCLE   28 ..............................
........................................................................

 iter      E             dE          RMSdq      gap      omega  full diag
   1  -3478.5978163 -0.347860E+04  0.240E-03   10.46       0.0  T
   2  -3478.5978170 -0.772284E-06  0.138E-03   10.46       1.3  T
   3  -3478.5978171 -0.460791E-07  0.243E-04   10.46       7.2  T
   4  -3478.5978171 -0.168297E-07  0.758E-05   10.46      23.1  T
     SCC iter.                  ...        3 min, 56.758 sec
     gradient                   ...        3 min, 46.289 sec
 * total energy  : -3427.5229215 Eh     change    :  -0.7297538E-03 Eh
   gradient norm :     0.0336413 Eh/a0  converged?    E=F G=F D=F
   time step     :     0.3327500 fs     power     :   0.2691748E-07
   step length   :     0.0278674 a0     speed     :   0.2025782E-02

........................................................................
.............................. CYCLE   29 ..............................
........................................................................

 iter      E             dE          RMSdq      gap      omega  full diag
   1  -3478.6089541 -0.347861E+04  0.248E-03   10.46       0.0  T
   2  -3478.6089545 -0.422377E-06  0.143E-03   10.46       1.2  T
   3  -3478.6089545 -0.510490E-07  0.175E-04   10.46      10.0  T
   4  -3478.6089545 -0.171267E-07  0.774E-05   10.46      22.6  T
     SCC iter.                  ...        3 min, 52.822 sec
     gradient                   ...        3 min, 47.642 sec
 * total energy  : -3427.5237895 Eh     change    :  -0.8680434E-03 Eh
   gradient norm :     0.0347893 Eh/a0  converged?    E=F G=F D=F
   time step     :     0.3660250 fs     power     :   0.2983822E-07
   step length   :     0.0332415 a0     speed     :   0.2196769E-02

........................................................................
.............................. CYCLE   30 ..............................
........................................................................

 iter      E             dE          RMSdq      gap      omega  full diag
   1  -3478.6123752 -0.347861E+04  0.258E-03   10.46       0.0  T
   2  -3478.6123754 -0.202752E-06  0.151E-03   10.46       1.2  T
   3  -3478.6123754 -0.506170E-07  0.132E-04   10.46      13.2  T
   4  -3478.6123754 -0.182567E-07  0.753E-05   10.46      23.3  T
     SCC iter.                  ...        4 min,  4.597 sec
     gradient                   ...        3 min, 46.529 sec
 * total energy  : -3427.5248742 Eh     change    :  -0.1084658E-02 Eh
   gradient norm :     0.0343201 Eh/a0  converged?    E=F G=F D=F
   time step     :     0.4026275 fs     power     :   0.3442658E-07
   step length   :     0.0397993 a0     speed     :   0.2391041E-02

........................................................................
.............................. CYCLE   31 ..............................
........................................................................

 iter      E             dE          RMSdq      gap      omega  full diag
   1  -3478.6063300 -0.347861E+04  0.285E-03   10.46       0.0  T
   2  -3478.6063305 -0.526407E-06  0.168E-03   10.46       1.0  T
   3  -3478.6063306 -0.466416E-07  0.161E-04   10.46      10.9  T
   4  -3478.6063306 -0.209538E-07  0.678E-05   10.46      25.8  T
     SCC iter.                  ...        3 min, 55.218 sec
     gradient                   ...        3 min, 46.470 sec
 * total energy  : -3427.5262144 Eh     change    :  -0.1340268E-02 Eh
   gradient norm :     0.0311149 Eh/a0  converged?    E=F G=F D=F
   time step     :     0.4428903 fs     power     :   0.3839002E-07
   step length   :     0.0481026 a0     speed     :   0.2627164E-02

........................................................................
.............................. CYCLE   32 ..............................
........................................................................

 iter      E             dE          RMSdq      gap      omega  full diag
   1  -3478.5915814 -0.347859E+04  0.334E-03   10.46       0.0  T
   2  -3478.5915830 -0.156306E-05  0.199E-03   10.46       1.0  T
   3  -3478.5915830 -0.512350E-07  0.288E-04   10.46       6.1  T
   4  -3478.5915831 -0.239083E-07  0.684E-05   10.46      25.6  T
     SCC iter.                  ...        3 min, 56.163 sec
     gradient                   ...        3 min, 47.331 sec
 * total energy  : -3427.5277499 Eh     change    :  -0.1535427E-02 Eh
   gradient norm :     0.0260723 Eh/a0  converged?    E=F G=F D=F
   time step     :     0.4871793 fs     power     :   0.3877323E-07
   step length   :     0.0584483 a0     speed     :   0.2902006E-02

........................................................................
.............................. CYCLE   33 ..............................
........................................................................

 iter      E             dE          RMSdq      gap      omega  full diag
   1  -3478.5739316 -0.347857E+04  0.389E-03   10.46       0.0  T
   2  -3478.5739342 -0.254130E-05  0.232E-03   10.46       1.0  T
   3  -3478.5739342 -0.598448E-07  0.378E-04   10.46       4.6  T
   4  -3478.5739343 -0.272216E-07  0.713E-05   10.46      24.6  T
     SCC iter.                  ...        3 min, 54.138 sec
     gradient                   ...        3 min, 47.496 sec
 * total energy  : -3427.5293373 Eh     change    :  -0.1587404E-02 Eh
   gradient norm :     0.0233863 Eh/a0  converged?    E=F G=F D=F
   time step     :     0.5358972 fs     power     :   0.3504829E-07
   step length   :     0.0706093 a0     speed     :   0.3187100E-02

........................................................................
.............................. CYCLE   34 ..............................
........................................................................

 iter      E             dE          RMSdq      gap      omega  full diag
   1  -3478.5665754 -0.347857E+04  0.425E-03   10.46       0.0  T
   2  -3478.5665773 -0.184960E-05  0.254E-03   10.46       1.0  T
   3  -3478.5665773 -0.716304E-07  0.270E-04   10.46       6.5  T
   4  -3478.5665774 -0.277582E-07  0.736E-05   10.46      23.8  T
     SCC iter.                  ...        3 min, 54.770 sec
     gradient                   ...        3 min, 47.020 sec
 * total energy  : -3427.5309239 Eh     change    :  -0.1586609E-02 Eh
   gradient norm :     0.0252531 Eh/a0  converged?    E=F G=F D=F
   time step     :     0.5894869 fs     power     :   0.3182426E-07
   step length   :     0.0835257 a0     speed     :   0.3427369E-02

........................................................................
.............................. CYCLE   35 ..............................
........................................................................

 iter      E             dE          RMSdq      gap      omega  full diag
   1  -3478.5839645 -0.347858E+04  0.463E-03   10.46       0.0  T
   2  -3478.5839649 -0.366432E-06  0.274E-03   10.46       1.0  T
   3  -3478.5839650 -0.100360E-06  0.142E-04   10.46      12.3  T
   4  -3478.5839650 -0.189661E-07  0.819E-05   10.46      21.4  T
     SCC iter.                  ...        3 min, 53.351 sec
     gradient                   ...        3 min, 47.754 sec
 * total energy  : -3427.5326616 Eh     change    :  -0.1737684E-02 Eh
   gradient norm :     0.0253942 Eh/a0  converged?    E=F G=F D=F
   time step     :     0.6484356 fs     power     :   0.3271129E-07
   step length   :     0.0967464 a0     speed     :   0.3608969E-02

........................................................................
.............................. CYCLE   36 ..............................
........................................................................

 iter      E             dE          RMSdq      gap      omega  full diag
   1  -3478.6324625 -0.347863E+04  0.551E-03   10.46       0.0  T
   2  -3478.6324639 -0.141170E-05  0.318E-03   10.46       1.0  T
   3  -3478.6324641 -0.139640E-06  0.257E-04   10.46       6.8  T
   4  -3478.6324641 -0.206742E-07  0.993E-05   10.46      17.6  T
     SCC iter.                  ...        3 min, 57.893 sec
     gradient                   ...        3 min, 46.271 sec
 * total energy  : -3427.5346158 Eh     change    :  -0.1954215E-02 Eh
   gradient norm :     0.0206678 Eh/a0  converged?    E=F G=F D=F
   time step     :     0.7132792 fs     power     :   0.3266864E-07
   step length   :     0.1121614 a0     speed     :   0.3803637E-02

........................................................................
.............................. CYCLE   37 ..............................
........................................................................

 iter      E             dE          RMSdq      gap      omega  full diag
   1  -3478.7009799 -0.347870E+04  0.631E-03   10.46       0.0  T
   2  -3478.7009837 -0.377264E-05  0.360E-03   10.46       1.0  T
   3  -3478.7009838 -0.153376E-06  0.471E-04   10.46       3.7  T
   4  -3478.7009839 -0.340342E-07  0.108E-04   10.46      16.2  T
     SCC iter.                  ...        3 min, 57.186 sec
     gradient                   ...        3 min, 47.487 sec
 * total energy  : -3427.5365475 Eh     change    :  -0.1931770E-02 Eh
   gradient norm :     0.0202202 Eh/a0  converged?    E=F G=F D=F
   time step     :     0.7846071 fs     power     :   0.2753091E-07
   step length   :     0.1305998 a0     speed     :   0.4026294E-02

........................................................................
.............................. CYCLE   38 ..............................
........................................................................

 iter      E             dE          RMSdq      gap      omega  full diag
   1  -3478.7522072 -0.347875E+04  0.584E-03   10.46       0.0  T
   2  -3478.7522084 -0.116497E-05  0.338E-03   10.46       1.0  T
   3  -3478.7522085 -0.123896E-06  0.228E-04   10.46       7.7  T
   4  -3478.7522085 -0.178629E-07  0.829E-05   10.46      21.1  T
     SCC iter.                  ...        3 min, 55.323 sec
     gradient                   ...        3 min, 47.008 sec
 * total energy  : -3427.5385111 Eh     change    :  -0.1963540E-02 Eh
   gradient norm :     0.0233615 Eh/a0  converged?    E=F G=F D=F
   time step     :     0.8630678 fs     power     :   0.2692473E-07
   step length   :     0.1489890 a0     speed     :   0.4175653E-02

........................................................................
.............................. CYCLE   39 ..............................
........................................................................

 iter      E             dE          RMSdq      gap      omega  full diag
   1  -3478.7595328 -0.347876E+04  0.537E-03   10.46       0.0  T
   2  -3478.7595345 -0.169399E-05  0.321E-03   10.46       1.0  T
   3  -3478.7595346 -0.151575E-06  0.227E-04   10.46       7.7  T
   4  -3478.7595347 -0.206328E-07  0.103E-04   10.46      17.0  T
     SCC iter.                  ...        3 min, 55.079 sec
     gradient                   ...        3 min, 46.310 sec
 * total energy  : -3427.5408275 Eh     change    :  -0.2316399E-02 Eh
   gradient norm :     0.0195507 Eh/a0  converged?    E=F G=F D=F
   time step     :     0.9493746 fs     power     :   0.2904705E-07
   step length   :     0.1692637 a0     speed     :   0.4312622E-02

........................................................................
.............................. CYCLE   40 ..............................
........................................................................

 iter      E             dE          RMSdq      gap      omega  full diag
   1  -3478.7377870 -0.347874E+04  0.542E-03   10.47       0.0  T
   2  -3478.7377922 -0.511631E-05  0.325E-03   10.47       1.0  T
   3  -3478.7377924 -0.228442E-06  0.535E-04   10.47       3.3  T
   4  -3478.7377924 -0.533978E-07  0.151E-04   10.47      11.6  T
     SCC iter.                  ...        3 min, 53.849 sec
     gradient                   ...        3 min, 47.385 sec
 * total energy  : -3427.5432801 Eh     change    :  -0.2452589E-02 Eh
   gradient norm :     0.0221145 Eh/a0  converged?    E=F G=F D=F
   time step     :     1.0443120 fs     power     :   0.2680510E-07
   step length   :     0.1947714 a0     speed     :   0.4511386E-02

........................................................................
.............................. CYCLE   41 ..............................
........................................................................

 iter      E             dE          RMSdq      gap      omega  full diag
   1  -3478.7459768 -0.347875E+04  0.568E-03   10.47       0.0  T
   2  -3478.7459776 -0.757361E-06  0.334E-03   10.47       1.0  T
   3  -3478.7459778 -0.202497E-06  0.218E-04   10.47       8.0  T
   4  -3478.7459778 -0.321211E-07  0.130E-04   10.47      13.4  T
     SCC iter.                  ...        3 min, 55.051 sec
     gradient                   ...        3 min, 45.486 sec
 * total energy  : -3427.5462107 Eh     change    :  -0.2930606E-02 Eh
   gradient norm :     0.0205258 Eh/a0  converged?    E=F G=F D=F
   time step     :     1.1487432 fs     power     :   0.3150793E-07
   step length   :     0.2218682 a0     speed     :   0.4671831E-02

........................................................................
.............................. CYCLE   42 ..............................
........................................................................

 iter      E             dE          RMSdq      gap      omega  full diag
   1  -3478.7864977 -0.347879E+04  0.752E-03   10.48       0.0  T
   2  -3478.7865023 -0.460244E-05  0.437E-03   10.48       1.0  T
   3  -3478.7865024 -0.187979E-06  0.467E-04   10.48       3.7  T
   4  -3478.7865025 -0.416153E-07  0.113E-04   10.48      15.5  T
     SCC iter.                  ...        3 min, 59.141 sec
     gradient                   ...        3 min, 48.046 sec
 * total energy  : -3427.5495011 Eh     change    :  -0.3290395E-02 Eh
   gradient norm :     0.0207367 Eh/a0  converged?    E=F G=F D=F
   time step     :     1.2500000 fs     power     :   0.3000903E-07
   step length   :     0.2544417 a0     speed     :   0.4923720E-02
 * RMSD in coord.:     0.0288388 a0     energy gain  -0.3070046E-01 Eh

........................................................................
.............................. CYCLE   43 ..............................
........................................................................

 iter      E             dE          RMSdq      gap      omega  full diag
   1  -3478.7880993 -0.347879E+04  0.117E-03   10.48       0.0  T
   2  -3478.7880994 -0.290552E-07  0.685E-04   10.48       2.6  T
   3  -3478.7880994 -0.787350E-08  0.439E-05   10.48      39.9  T
     SCC iter.                  ...        2 min, 57.897 sec
     gradient                   ...        3 min, 46.893 sec
 * total energy  : -3427.5501319 Eh     change    :  -0.6308594E-03 Eh
   gradient norm :     0.0209697 Eh/a0  converged?    E=F G=F D=F
   time step     :     0.2500000 fs     power     :   0.3302230E-07
   step length   :     0.0494642 a0     speed     :   0.4785929E-02

........................................................................
.............................. CYCLE   44 ..............................
........................................................................

 iter      E             dE          RMSdq      gap      omega  full diag
   1  -3478.7837974 -0.347878E+04  0.111E-03   10.48       0.0  T
   2  -3478.7837975 -0.123052E-06  0.651E-04   10.48       2.7  T
   3  -3478.7837975 -0.864475E-08  0.768E-05   10.48      22.8  T
     SCC iter.                  ...        2 min, 57.236 sec
     gradient                   ...        3 min, 46.803 sec
 * total energy  : -3427.5508105 Eh     change    :  -0.6785827E-03 Eh
   gradient norm :     0.0195717 Eh/a0  converged?    E=F G=F D=F
   time step     :     0.2500000 fs     power     :   0.3543768E-07
   step length   :     0.0484742 a0     speed     :   0.4690140E-02

........................................................................
.............................. CYCLE   45 ..............................
........................................................................

 iter      E             dE          RMSdq      gap      omega  full diag
   1  -3478.7751547 -0.347878E+04  0.127E-03   10.48       0.0  T
   2  -3478.7751551 -0.345955E-06  0.738E-04   10.48       2.4  T
   3  -3478.7751551 -0.113478E-07  0.155E-04   10.48      11.3  T
     SCC iter.                  ...        3 min,  5.194 sec
     gradient                   ...        3 min, 48.628 sec
 * total energy  : -3427.5515090 Eh     change    :  -0.6984681E-03 Eh
   gradient norm :     0.0174424 Eh/a0  converged?    E=F G=F D=F
   time step     :     0.2500000 fs     power     :   0.3601074E-07
   step length   :     0.0480344 a0     speed     :   0.4647583E-02

........................................................................
.............................. CYCLE   46 ..............................
........................................................................

 iter      E             dE          RMSdq      gap      omega  full diag
   1  -3478.7647401 -0.347876E+04  0.142E-03   10.48       0.0  T
   2  -3478.7647406 -0.492442E-06  0.827E-04   10.48       2.1  T
   3  -3478.7647406 -0.134523E-07  0.191E-04   10.48       9.2  T
     SCC iter.                  ...        2 min, 57.434 sec
     gradient                   ...        3 min, 49.194 sec
 * total energy  : -3427.5521946 Eh     change    :  -0.6856070E-03 Eh
   gradient norm :     0.0160934 Eh/a0  converged?    E=F G=F D=F
   time step     :     0.2500000 fs     power     :   0.3496068E-07
   step length   :     0.0480699 a0     speed     :   0.4651024E-02

........................................................................
.............................. CYCLE   47 ..............................
........................................................................

 iter      E             dE          RMSdq      gap      omega  full diag
   1  -3478.7559190 -0.347876E+04  0.146E-03   10.48       0.0  T
   2  -3478.7559195 -0.408084E-06  0.848E-04   10.49       2.1  T
   3  -3478.7559195 -0.128530E-07  0.165E-04   10.49      10.6  T
     SCC iter.                  ...        2 min, 59.792 sec
     gradient                   ...        3 min, 46.572 sec
 * total energy  : -3427.5528554 Eh     change    :  -0.6608587E-03 Eh
   gradient norm :     0.0162600 Eh/a0  converged?    E=F G=F D=F
   time step     :     0.2500000 fs     power     :   0.3375948E-07
   step length   :     0.0482530 a0     speed     :   0.4668735E-02

........................................................................
.............................. CYCLE   48 ..............................
........................................................................

 iter      E             dE          RMSdq      gap      omega  full diag
   1  -3478.7511768 -0.347875E+04  0.153E-03   10.49       0.0  T
   2  -3478.7511770 -0.219447E-06  0.894E-04   10.49       2.0  T
   3  -3478.7511770 -0.119321E-07  0.101E-04   10.49      17.3  T
     SCC iter.                  ...        2 min, 55.760 sec
     gradient                   ...        3 min, 45.730 sec
 * total energy  : -3427.5535701 Eh     change    :  -0.7146832E-03 Eh
   gradient norm :     0.0169898 Eh/a0  converged?    E=F G=F D=F
   time step     :     0.2750000 fs     power     :   0.3351713E-07
   step length   :     0.0531427 a0     speed     :   0.4674400E-02

........................................................................
.............................. CYCLE   49 ..............................
........................................................................

 iter      E             dE          RMSdq      gap      omega  full diag
   1  -3478.7531838 -0.347875E+04  0.163E-03   10.49       0.0  T
   2  -3478.7531838 -0.541163E-07  0.954E-04   10.49       1.8  T
   3  -3478.7531839 -0.118553E-07  0.502E-05   10.49      34.9  T
     SCC iter.                  ...        2 min, 57.453 sec
     gradient                   ...        3 min, 46.469 sec
 * total energy  : -3427.5543649 Eh     change    :  -0.7947604E-03 Eh
   gradient norm :     0.0167912 Eh/a0  converged?    E=F G=F D=F
   time step     :     0.3025000 fs     power     :   0.3412543E-07
   step length   :     0.0584270 a0     speed     :   0.4672007E-02

........................................................................
.............................. CYCLE   50 ..............................
........................................................................

 iter      E             dE          RMSdq      gap      omega  full diag
   1  -3478.7630394 -0.347876E+04  0.187E-03   10.49       0.0  T
   2  -3478.7630395 -0.147335E-06  0.109E-03   10.49       1.6  T
   3  -3478.7630396 -0.157911E-07  0.755E-05   10.49      23.2  T
   4  -3478.7630396 -0.329510E-08  0.311E-05   10.49      56.3  T
     SCC iter.                  ...        3 min, 53.323 sec
     gradient                   ...        3 min, 46.551 sec
 * total energy  : -3427.5552474 Eh     change    :  -0.8825415E-03 Eh
   gradient norm :     0.0151717 Eh/a0  converged?    E=F G=F D=F
   time step     :     0.3327500 fs     power     :   0.3422233E-07
   step length   :     0.0645341 a0     speed     :   0.4691226E-02

........................................................................
.............................. CYCLE   51 ..............................
........................................................................

 iter      E             dE          RMSdq      gap      omega  full diag
   1  -3478.7792869 -0.347878E+04  0.216E-03   10.49       0.0  T
   2  -3478.7792874 -0.459919E-06  0.125E-03   10.49       1.4  T
   3  -3478.7792874 -0.224222E-07  0.154E-04   10.49      11.4  T
   4  -3478.7792874 -0.551245E-08  0.425E-05   10.49      41.3  T
     SCC iter.                  ...        3 min, 55.991 sec
     gradient                   ...        3 min, 49.454 sec
 * total energy  : -3427.5561924 Eh     change    :  -0.9449396E-03 Eh
   gradient norm :     0.0136159 Eh/a0  converged?    E=F G=F D=F
   time step     :     0.3660250 fs     power     :   0.3276187E-07
   step length   :     0.0719319 a0     speed     :   0.4753635E-02

........................................................................
.............................. CYCLE   52 ..............................
........................................................................

 iter      E             dE          RMSdq      gap      omega  full diag
   1  -3478.7960840 -0.347880E+04  0.226E-03   10.49       0.0  T
   2  -3478.7960845 -0.499748E-06  0.132E-03   10.49       1.3  T
   3  -3478.7960845 -0.255695E-07  0.160E-04   10.49      10.9  T
   4  -3478.7960845 -0.607088E-08  0.453E-05   10.49      38.7  T
     SCC iter.                  ...        3 min, 58.831 sec
     gradient                   ...        3 min, 48.140 sec
 * total energy  : -3427.5571764 Eh     change    :  -0.9840769E-03 Eh
   gradient norm :     0.0141808 Eh/a0  converged?    E=F G=F D=F
   time step     :     0.4026275 fs     power     :   0.3091028E-07
   step length   :     0.0805333 a0     speed     :   0.4838238E-02

........................................................................
.............................. CYCLE   53 ..............................
........................................................................

 iter      E             dE          RMSdq      gap      omega  full diag
   1  -3478.8051073 -0.347881E+04  0.211E-03   10.49       0.0  T
   2  -3478.8051075 -0.141895E-06  0.124E-03   10.49       1.4  T
   3  -3478.8051075 -0.229434E-07  0.752E-05   10.49      23.3  T
   4  -3478.8051075 -0.389855E-08  0.373E-05   10.49      47.0  T
     SCC iter.                  ...        3 min, 57.528 sec
     gradient                   ...        3 min, 47.407 sec
 * total energy  : -3427.5582329 Eh     change    :  -0.1056486E-02 Eh
   gradient norm :     0.0149506 Eh/a0  converged?    E=F G=F D=F
   time step     :     0.4428903 fs     power     :   0.3064713E-07
   step length   :     0.0894443 a0     speed     :   0.4885082E-02

........................................................................
.............................. CYCLE   54 ..............................
........................................................................

 iter      E             dE          RMSdq      gap      omega  full diag
   1  -3478.8015505 -0.347880E+04  0.207E-03   10.50       0.0  T
   2  -3478.8015507 -0.212754E-06  0.122E-03   10.50       1.4  T
   3  -3478.8015507 -0.245254E-07  0.840E-05   10.50      20.9  T
   4  -3478.8015507 -0.399405E-08  0.387E-05   10.50      45.2  T
     SCC iter.                  ...        3 min, 54.740 sec
     gradient                   ...        3 min, 45.698 sec
 * total energy  : -3427.5594040 Eh     change    :  -0.1171072E-02 Eh
   gradient norm :     0.0137171 Eh/a0  converged?    E=F G=F D=F
   time step     :     0.4871793 fs     power     :   0.3090805E-07
   step length   :     0.0990885 a0     speed     :   0.4919826E-02

........................................................................
.............................. CYCLE   55 ..............................
........................................................................

 iter      E             dE          RMSdq      gap      omega  full diag
   1  -3478.7874229 -0.347879E+04  0.224E-03   10.50       0.0  T
   2  -3478.7874238 -0.836163E-06  0.132E-03   10.50       1.3  T
   3  -3478.7874238 -0.365158E-07  0.221E-04   10.50       7.9  T
   4  -3478.7874238 -0.819091E-08  0.569E-05   10.50      30.8  T
     SCC iter.                  ...        3 min, 52.310 sec
     gradient                   ...        3 min, 46.696 sec
 * total energy  : -3427.5606667 Eh     change    :  -0.1262678E-02 Eh
   gradient norm :     0.0128927 Eh/a0  converged?    E=F G=F D=F
   time step     :     0.5358972 fs     power     :   0.2979974E-07
   step length   :     0.1106664 a0     speed     :   0.4995160E-02

........................................................................
.............................. CYCLE   56 ..............................
........................................................................

 iter      E             dE          RMSdq      gap      omega  full diag
   1  -3478.7754031 -0.347878E+04  0.213E-03   10.50       0.0  T
   2  -3478.7754037 -0.600153E-06  0.126E-03   10.50       1.4  T
   3  -3478.7754037 -0.422579E-07  0.179E-04   10.50       9.8  T
   4  -3478.7754037 -0.844466E-08  0.626E-05   10.50      28.0  T
     SCC iter.                  ...        3 min, 57.768 sec
     gradient                   ...        3 min, 47.143 sec
 * total energy  : -3427.5620178 Eh     change    :  -0.1351167E-02 Eh
   gradient norm :     0.0142040 Eh/a0  converged?    E=F G=F D=F
   time step     :     0.5894869 fs     power     :   0.2929729E-07
   step length   :     0.1237959 a0     speed     :   0.5079808E-02

........................................................................
.............................. CYCLE   57 ..............................
........................................................................

 iter      E             dE          RMSdq      gap      omega  full diag
   1  -3478.7786639 -0.347878E+04  0.222E-03   10.51       0.0  T
   2  -3478.7786640 -0.133467E-06  0.130E-03   10.51       1.3  T
   3  -3478.7786640 -0.335117E-07  0.987E-05   10.51      17.8  T
   4  -3478.7786640 -0.714726E-08  0.542E-05   10.51      32.3  T
     SCC iter.                  ...        3 min, 57.763 sec
     gradient                   ...        3 min, 47.623 sec
 * total energy  : -3427.5635355 Eh     change    :  -0.1517648E-02 Eh
   gradient norm :     0.0134027 Eh/a0  converged?    E=F G=F D=F
   time step     :     0.6484356 fs     power     :   0.3025303E-07
   step length   :     0.1376235 a0     speed     :   0.5133821E-02

........................................................................
.............................. CYCLE   58 ..............................
........................................................................

 iter      E             dE          RMSdq      gap      omega  full diag
   1  -3478.7980517 -0.347880E+04  0.281E-03   10.51       0.0  T
   2  -3478.7980524 -0.728143E-06  0.162E-03   10.51       1.1  T
   3  -3478.7980525 -0.277751E-07  0.214E-04   10.51       8.2  T
   4  -3478.7980525 -0.101036E-07  0.483E-05   10.51      36.3  T
     SCC iter.                  ...        3 min, 56.263 sec
     gradient                   ...        3 min, 46.480 sec
 * total energy  : -3427.5652106 Eh     change    :  -0.1675084E-02 Eh
   gradient norm :     0.0127336 Eh/a0  converged?    E=F G=F D=F
   time step     :     0.7132792 fs     power     :   0.2980496E-07
   step length   :     0.1542603 a0     speed     :   0.5231302E-02

........................................................................
.............................. CYCLE   59 ..............................
........................................................................

 iter      E             dE          RMSdq      gap      omega  full diag
   1  -3478.8149102 -0.347881E+04  0.267E-03   10.51       0.0  T
   2  -3478.8149105 -0.259217E-06  0.156E-03   10.51       1.1  T
   3  -3478.8149105 -0.329624E-07  0.123E-04   10.51      14.2  T
   4  -3478.8149105 -0.860791E-08  0.542E-05   10.51      32.3  T
     SCC iter.                  ...        3 min, 59.561 sec
     gradient                   ...        3 min, 46.039 sec
 * total energy  : -3427.5670500 Eh     change    :  -0.1839375E-02 Eh
   gradient norm :     0.0136681 Eh/a0  converged?    E=F G=F D=F
   time step     :     0.7846071 fs     power     :   0.3022890E-07
   step length   :     0.1733709 a0     speed     :   0.5344895E-02

........................................................................
.............................. CYCLE   60 ..............................
........................................................................

 iter      E             dE          RMSdq      gap      omega  full diag
   1  -3478.8157006 -0.347882E+04  0.263E-03   10.52       0.0  T
   2  -3478.8157015 -0.817728E-06  0.159E-03   10.52       1.1  T
   3  -3478.8157015 -0.586747E-07  0.195E-04   10.52       9.0  T
   4  -3478.8157015 -0.130935E-07  0.789E-05   10.52      22.2  T
     SCC iter.                  ...        3 min, 58.433 sec
     gradient                   ...        3 min, 45.854 sec
 * total energy  : -3427.5691293 Eh     change    :  -0.2079370E-02 Eh
   gradient norm :     0.0119100 Eh/a0  converged?    E=F G=F D=F
   time step     :     0.8630678 fs     power     :   0.3083116E-07
   step length   :     0.1945313 a0     speed     :   0.5452047E-02

........................................................................
.............................. CYCLE   61 ..............................
........................................................................

 iter      E             dE          RMSdq      gap      omega  full diag
   1  -3478.8193156 -0.347882E+04  0.290E-03   10.53       0.0  T
   2  -3478.8193165 -0.901985E-06  0.176E-03   10.53       1.0  T
   3  -3478.8193165 -0.583295E-07  0.191E-04   10.53       9.2  T
   4  -3478.8193166 -0.142090E-07  0.759E-05   10.53      23.1  T
     SCC iter.                  ...        3 min, 55.619 sec
     gradient                   ...        3 min, 46.352 sec
 * total energy  : -3427.5713954 Eh     change    :  -0.2266106E-02 Eh
   gradient norm :     0.0128982 Eh/a0  converged?    E=F G=F D=F
   time step     :     0.9493746 fs     power     :   0.3042290E-07
   step length   :     0.2206438 a0     speed     :   0.5621721E-02

........................................................................
.............................. CYCLE   62 ..............................
........................................................................

 iter      E             dE          RMSdq      gap      omega  full diag
   1  -3478.8536702 -0.347885E+04  0.404E-03   10.53       0.0  T
   2  -3478.8536709 -0.692534E-06  0.234E-03   10.53       1.0  T
   3  -3478.8536709 -0.474315E-07  0.182E-04   10.53       9.6  T
   4  -3478.8536709 -0.918362E-08  0.556E-05   10.53      31.5  T
     SCC iter.                  ...        3 min, 56.338 sec
     gradient                   ...        3 min, 47.474 sec
 * total energy  : -3427.5739132 Eh     change    :  -0.2517772E-02 Eh
   gradient norm :     0.0109337 Eh/a0  converged?    E=F G=F D=F
   time step     :     1.0443120 fs     power     :   0.3059611E-07
   step length   :     0.2488181 a0     speed     :   0.5763242E-02

........................................................................
.............................. CYCLE   63 ..............................
........................................................................

 iter      E             dE          RMSdq      gap      omega  full diag
   1  -3478.8838201 -0.347888E+04  0.454E-03   10.54       0.0  T
   2  -3478.8838206 -0.553522E-06  0.264E-03   10.54       1.0  T
   3  -3478.8838207 -0.614409E-07  0.165E-04   10.54      10.6  T
   4  -3478.8838207 -0.133487E-07  0.641E-05   10.54      27.3  T
     SCC iter.                  ...        3 min, 54.319 sec
     gradient                   ...        3 min, 47.275 sec
 * total energy  : -3427.5766173 Eh     change    :  -0.2704131E-02 Eh
   gradient norm :     0.0118617 Eh/a0  converged?    E=F G=F D=F
   time step     :     1.1487432 fs     power     :   0.2982850E-07
   step length   :     0.2834939 a0     speed     :   0.5969472E-02

........................................................................
.............................. CYCLE   64 ..............................
........................................................................

 iter      E             dE          RMSdq      gap      omega  full diag
   1  -3478.8698868 -0.347887E+04  0.414E-03   10.55       0.0  T
   2  -3478.8698898 -0.297111E-05  0.249E-03   10.55       1.0  T
   3  -3478.8698899 -0.646314E-07  0.409E-04   10.55       4.3  T
   4  -3478.8698899 -0.262253E-07  0.784E-05   10.55      22.3  T
     SCC iter.                  ...        3 min, 58.924 sec
     gradient                   ...        3 min, 47.186 sec
 * total energy  : -3427.5795083 Eh     change    :  -0.2890935E-02 Eh
   gradient norm :     0.0117795 Eh/a0  converged?    E=F G=F D=F
   time step     :     1.2500000 fs     power     :   0.2859471E-07
   step length   :     0.3169658 a0     speed     :   0.6133629E-02

........................................................................
.............................. CYCLE   65 ..............................
........................................................................

 iter      E             dE          RMSdq      gap      omega  full diag
   1  -3478.8932508 -0.347889E+04  0.474E-03   10.56       0.0  T
   2  -3478.8932515 -0.658755E-06  0.276E-03   10.56       1.0  T
   3  -3478.8932515 -0.515583E-07  0.167E-04   10.56      10.5  T
   4  -3478.8932516 -0.148534E-07  0.599E-05   10.56      29.3  T
     SCC iter.                  ...        3 min, 56.591 sec
     gradient                   ...        3 min, 46.803 sec
 * total energy  : -3427.5823557 Eh     change    :  -0.2847413E-02 Eh
   gradient norm :     0.0103773 Eh/a0  converged?    E=F G=F D=F
   time step     :     1.2500000 fs     power     :   0.2877540E-07
   step length   :     0.3234096 a0     speed     :   0.6258324E-02

........................................................................
.............................. CYCLE   66 ..............................
........................................................................

 iter      E             dE          RMSdq      gap      omega  full diag
   1  -3478.9127234 -0.347891E+04  0.417E-03   10.57       0.0  T
   2  -3478.9127238 -0.395878E-06  0.244E-03   10.57       1.0  T
   3  -3478.9127238 -0.470086E-07  0.141E-04   10.58      12.5  T
   4  -3478.9127239 -0.172104E-07  0.634E-05   10.58      27.6  T
     SCC iter.                  ...        3 min, 54.785 sec
     gradient                   ...        3 min, 46.054 sec
 * total energy  : -3427.5851749 Eh     change    :  -0.2819259E-02 Eh
   gradient norm :     0.0107178 Eh/a0  converged?    E=F G=F D=F
   time step     :     1.2500000 fs     power     :   0.2883698E-07
   step length   :     0.3314327 a0     speed     :   0.6413580E-02

........................................................................
[...]
  3011   6 C     3012   6 C                                       1.5273829
  3012   6 C     3013   6 C                                       1.5257418
  3013   6 C     3014   6 C                                       1.5263145
  3014   6 C     3015   6 C                                       1.5264787
  3015   6 C     3016   6 C                                       1.5240159
  3015   6 C     3017   1 H                                       1.0926989
  3015   6 C     3018   1 H                                       1.0926578
  3014   6 C     3019   1 H                                       1.0926970
  3014   6 C     3020   1 H                                       1.0926118
  3013   6 C     3021   1 H                                       1.0928202
  3013   6 C     3022   1 H                                       1.0915598
  3012   6 C     3023   1 H                                       1.0931533
  3012   6 C     3024   1 H                                       1.0930356
  3011   6 C     3025   1 H                                       1.0928497
  3011   6 C     3026   1 H                                       1.0932444
  3010   6 C     3027   1 H                                       1.0912904
  3010   6 C     3028   1 H                                       1.0925385
  3009   6 C     3029   1 H                                       1.0925892
  3009   6 C     3030   1 H                                       1.0931199
  3008   6 C     3031   1 H                                       1.0929446
  3008   6 C     3032   1 H                                       1.0928271
  3007   6 C     3033   1 H                                       1.0928589
  3007   6 C     3034   1 H                                       1.0897104
  3006   6 C     3035   1 H                                       1.0931371
  3006   6 C     3036   1 H                                       1.0935300
  3005   6 C     3037   1 H                                       1.0934392
  3005   6 C     3038   1 H                                       1.0920774
  3004   6 C     3039   1 H                                       1.0909936
  3004   6 C     3040   1 H                                       1.0927085
  3003   6 C     3041   1 H                                       1.0914479
  3003   6 C     3042   1 H                                       1.0920450
  3002   6 C     3043   1 H                                       1.0925707
  3002   6 C     3044   1 H                                       1.0934854
  3001   6 C     3045   1 H                                       1.0931165
  3001   6 C     3046   1 H                                       1.0943426
  3000   6 C     3047   1 H                                       1.0931824
  3000   6 C     3048   1 H                                       1.0915264
  2999   6 C     3049   1 H                                       1.0921076
  2999   6 C     3050   1 H                                       1.0934584
  2998   6 C     3051   1 H                                       1.0936367
  2998   6 C     3052   1 H                                       1.0929638
  2997   6 C     3053   1 H                                       1.0928082
  2997   6 C     3054   1 H                                       1.0927763
  2996   6 C     3055   1 H                                       1.0937150
  2996   6 C     3056   1 H                                       1.0930550
  2995   6 C     3057   1 H                                       1.0918867
  2995   6 C     3058   1 H                                       1.0924593
  2994   6 C     3059   1 H                                       1.0931930
  2994   6 C     3060   1 H                                       1.0932959
  2993   6 C     3061   1 H                                       1.0920727
  2993   6 C     3062   1 H                                       1.0932908
  2992   6 C     3063   1 H                                       1.0928021
  2992   6 C     3064   1 H                                       1.0933402
  2991   6 C     3065   1 H                                       1.0927464
  2991   6 C     3066   1 H                                       1.0940697
  2990   6 C     3067   1 H                                       1.0926869
  2990   6 C     3068   1 H                                       1.0933714
  2989   6 C     3069   1 H                                       1.0932190
  2989   6 C     3070   1 H                                       1.0938046
  2988   6 C     3071   1 H                                       1.0928872
  2988   6 C     3072   1 H                                       1.0934788
  2987   6 C     3073   1 H                                       1.0933269
  2987   6 C     3074   1 H                                       1.0933308
  2986   6 C     3075   1 H                                       1.0933278
  2986   6 C     3076   1 H                                       1.0936588
  2985   6 C     3077   1 H                                       1.0931644
  2985   6 C     3078   1 H                                       1.0930183
  2984   6 C     3079   1 H                                       1.0935805
  2984   6 C     3080   1 H                                       1.0939344
  2983   6 C     3081   1 H                                       1.0928706
  2983   6 C     3082   1 H                                       1.0926705
  2982   6 C     3083   1 H                                       1.0940256
  2982   6 C     3084   1 H                                       1.0943088
  2981   6 C     3085   1 H                                       1.0927236
  2981   6 C     3086   1 H                                       1.0922173
  2980   6 C     3087   1 H                                       1.0931734
  2980   6 C     3088   1 H                                       1.0941899
  2979   6 C     3089   1 H                                       1.0924967
  2979   6 C     3090   1 H                                       1.0921423
  2978   6 C     3091   1 H                                       1.0942453
  2978   6 C     3092   1 H                                       1.0912108
  2977   6 C     3093   1 H                                       1.0921535
  2977   6 C     3094   1 H                                       1.0921064
  2976   6 C     3095   1 H                                       1.0935383
  2976   6 C     3096   1 H                                       1.0929208
  2975   6 C     3097   1 H                                       1.0908409
  2975   6 C     3098   1 H                                       1.0902874
  2974   6 C     3099   1 H                                       1.0921015
  2974   6 C     3100   1 H                                       1.0910798
  2973   6 C     3101   1 H                                       1.0908325
  2973   6 C     3102   1 H                                       1.0923211
  2972   6 C     3103   1 H                                       1.0928197
  2972   6 C     3104   1 H                                       1.0916718
  2971   6 C     3105   1 H                                       1.0930451
  2971   6 C     3106   1 H                                       1.0934892
  2970   6 C     3107   1 H                                       1.0930714
  2970   6 C     3108   1 H                                       1.0888798
  2969   6 C     3109   1 H                                       1.0922521
  2969   6 C     3110   1 H                                       1.0940367
  2968   6 C     3111   1 H                                       1.0938812
  2968   6 C     3112   1 H                                       1.0934707
  2967   6 C     3113   1 H                                       1.0909539
  2967   6 C     3114   1 H                                       1.0921810
  2966   6 C     3115   1 H                                       1.0932601
  2966   6 C     3116   1 H                                       1.0932789
  2965   6 C     3117   1 H                                       1.0922303
  2965   6 C     3118   1 H                                       1.0928542
  2964   6 C     3119   1 H                                       1.0928614
  2964   6 C     3120   1 H                                       1.0931222
  2963   6 C     3121   1 H                                       1.0925791
  2963   6 C     3122   1 H                                       1.0929863
  2962   6 C     3123   1 H                                       1.0928310
  2962   6 C     3124   1 H                                       1.0931490
  2961   6 C     3125   1 H                                       1.0928465
  2961   6 C     3126   1 H                                       1.0928420
  2960   6 C     3127   1 H                                       1.0928656
  2960   6 C     3128   1 H                                       1.0931820
  2959   6 C     3129   1 H                                       1.0930618
  2959   6 C     3130   1 H                                       1.0927386
  2958   6 C     3131   1 H                                       1.0928628
  2958   6 C     3132   1 H                                       1.0932820
  2957   6 C     3133   1 H                                       1.0932091
  2957   6 C     3134   1 H                                       1.0927036
  2956   6 C     3135   1 H                                       1.0929281
  2956   6 C     3136   1 H                                       1.0933936
  2955   6 C     3137   1 H                                       1.0932949
  2955   6 C     3138   1 H                                       1.0926311
  2954   6 C     3139   1 H                                       1.0930920
  2954   6 C     3140   1 H                                       1.0934219
  2953   6 C     3141   1 H                                       1.0933475
  2953   6 C     3142   1 H                                       1.0925284
  2952   6 C     3143   1 H                                       1.0933064
  2952   6 C     3144   1 H                                       1.0933357
  2951   6 C     3145   1 H                                       1.0934137
  2951   6 C     3146   1 H                                       1.0924272
  2950   6 C     3147   1 H                                       1.0933645
  2950   6 C     3148   1 H                                       1.0931469
  2949   6 C     3149   1 H                                       1.0933799
  2949   6 C     3150   1 H                                       1.0923120
  2948   6 C     3151   1 H                                       1.0930702
  2948   6 C     3152   1 H                                       1.0931082
  2947   6 C     3153   1 H                                       1.0929268
  2947   6 C     3154   1 H                                       1.0922754
  2946   6 C     3155   1 H                                       1.0927439
  2946   6 C     3156   1 H                                       1.0936433
  2945   6 C     3157   1 H                                       1.0920116
  2945   6 C     3158   1 H                                       1.0925738
  2944   6 C     3159   1 H                                       1.0929038
  2944   6 C     3160   1 H                                       1.0940121
  2943   6 C     3161   1 H                                       1.0917453
  2943   6 C     3162   1 H                                       1.0931160
  2942   6 C     3163   1 H                                       1.0933935
  2942   6 C     3164   1 H                                       1.0931899
  2941   6 C     3165   1 H                                       1.0912110
  2941   6 C     3166   1 H                                       1.0925821
  2940   6 C     3167   1 H                                       1.0935917
  2940   6 C     3168   1 H                                       1.0921680
  2939   6 C     3169   1 H                                       1.0902426
  2939   6 C     3170   1 H                                       1.0939942
  2938   6 C     3171   1 H                                       1.0933969
  2938   6 C     3172   1 H                                       1.0903551
  2937   6 C     3173   1 H                                       1.0941814
  2937   6 C     3174   1 H                                       1.0937238
  2936   6 C     3175   1 H                                       1.0916175
  2936   6 C     3176   1 H                                       1.0940864
  2935   6 C     3177   1 H                                       1.0931668
  2935   6 C     3178   1 H                                       1.0903512
  2934   6 C     3179   1 H                                       1.0927328
  2934   6 C     3180   1 H                                       1.0938891
  2933   6 C     3181   1 H                                       1.0938807
  2933   6 C     3182   1 H                                       1.0926723
  2932   6 C     3183   1 H                                       1.0899106
  2932   6 C     3184   1 H                                       1.0922289
  2931   6 C     3185   1 H                                       1.0941394
  2931   6 C     3186   1 H                                       1.0933318
  2930   6 C     3187   1 H                                       1.0924508
  2930   6 C     3188   1 H                                       1.0941217
  2929   6 C     3189   1 H                                       1.0929475
  2929   6 C     3190   1 H                                       1.0919438
  2928   6 C     3191   1 H                                       1.0921145
  2928   6 C     3192   1 H                                       1.0922778
  2927   6 C     3193   1 H                                       1.0927982
  2927   6 C     3194   1 H                                       1.0927278
  2926   6 C     3195   1 H                                       1.0927314
  2926   6 C     3196   1 H                                       1.0937050
  2925   6 C     3197   1 H                                       1.0920333
  2925   6 C     3198   1 H                                       1.0926071
  2924   6 C     3199   1 H                                       1.0932060
  2924   6 C     3200   1 H                                       1.0929998
  2923   6 C     3201   1 H                                       1.0925987
  2923   6 C     3202   1 H                                       1.0923201
  2922   6 C     3203   1 H                                       1.0933542
  2922   6 C     3204   1 H                                       1.0934367
  2921   6 C     3205   1 H                                       1.0927891
  2921   6 C     3206   1 H                                       1.0922723
  2920   6 C     3207   1 H                                       1.0932313
  2920   6 C     3208   1 H                                       1.0933071
  2919   6 C     3209   1 H                                       1.0926475
  2919   6 C     3210   1 H                                       1.0924550
  2918   6 C     3211   1 H                                       1.0929525
  2918   6 C     3212   1 H                                       1.0934224
  2917   6 C     3213   1 H                                       1.0929005
  2917   6 C     3214   1 H                                       1.0925548
  2916   6 C     3215   1 H                                       1.0927339
  2916   6 C     3216   1 H                                       1.0934336
  2915   6 C     3217   1 H                                       1.0931311
  2915   6 C     3218   1 H                                       1.0925228
  2914   6 C     3219   1 H                                       1.0926083
  2914   6 C     3220   1 H                                       1.0934281
  2913   6 C     3221   1 H                                       1.0932950
  2913   6 C     3222   1 H                                       1.0924094
  2912   6 C     3223   1 H                                       1.0925729
  2912   6 C     3224   1 H                                       1.0935679
  2911   6 C     3225   1 H                                       1.0932756
  2911   6 C     3226   1 H                                       1.0922297
  2910   6 C     3227   1 H                                       1.0926533
  2910   6 C     3228   1 H                                       1.0938268
  2909   6 C     3229   1 H                                       1.0926825
  2909   6 C     3230   1 H                                       1.0920472
  2908   6 C     3231   1 H                                       1.0929347
  2908   6 C     3232   1 H                                       1.0939056
  2907   6 C     3233   1 H                                       1.0916910
  2907   6 C     3234   1 H                                       1.0922074
  2906   6 C     3235   1 H                                       1.0926746
  2906   6 C     3236   1 H                                       1.0937159
  2905   6 C     3237   1 H                                       1.0920547
  2905   6 C     3238   1 H                                       1.0942237
  2904   6 C     3239   1 H                                       1.0943977
  2904   6 C     3240   1 H                                       1.0917742
  2903   6 C     3241   1 H                                       1.0926389
  2903   6 C     3242   1 H                                       1.0927929
  2902   6 C     3243   1 H                                       1.0934504
  2902   6 C     3244   1 H                                       1.0916471
  2901   6 C     3245   1 H                                       1.0922640
  2901   6 C     3246   1 H                                       1.0922050
  2900   6 C     3247   1 H                                       1.0939840
  2900   6 C     3248   1 H                                       1.0926583
  2899   6 C     3249   1 H                                       1.0912766
  2899   6 C     3250   1 H                                       1.0924599
  2898   6 C     3251   1 H                                       1.0929946
  2898   6 C     3252   1 H                                       1.0925980
  2897   6 C     3253   1 H                                       1.0881343
  2897   6 C     3254   1 H                                       1.0875929
  2897   6 C     3255   1 H                                       1.0885203
  3016   6 C     3256   1 H                                       1.0879911
  3016   6 C     3257   1 H                                       1.0876346
  3016   6 C     3258   1 H                                       1.0878233

 * 2 distinct bonds (by element types)

   Z      Z             #   av. dist./Å        max./Å        min./Å
   1 H    6 C        2178     1.0926402     1.0946734     1.0860484
   6 C    6 C        1071     1.5269528     1.5352287     1.5216494


optimized geometry written to: xtbopt.xyz


           -------------------------------------------------
          | TOTAL ENERGY            -3427.718408752359 Eh   |
          | GRADIENT NORM               0.000828895521 Eh/α |
          | HOMO-LUMO GAP              11.140785252092 eV   |
           -------------------------------------------------

------------------------------------------------------------------------
 * finished run on 2024/06/20 at 16:08:50.002     
------------------------------------------------------------------------
 total:
 * wall-time:     3 d,  0 h, 50 min,  3.079 sec
 *  cpu-time:    15 d, 18 h, 39 min,  6.624 sec
 * ratio c/w:     5.199 speedup
 SCF:
 * wall-time:     0 d,  0 h,  7 min, 14.256 sec
 *  cpu-time:     0 d,  0 h, 37 min, 21.256 sec
 * ratio c/w:     5.161 speedup
 ANC optimizer:
 * wall-time:     3 d,  0 h, 42 min,  6.566 sec
 *  cpu-time:    15 d, 18 h,  0 min, 48.416 sec
 * ratio c/w:     5.200 speedup

