3536
 energy: -3716.267723382267 gnorm: 0.000785255851 xtb: 6.6.1 (8d0f1dd)
C           58.26673308077147       42.38688805011080       69.94168619680033
C           56.78852068726408       42.16481141523256       70.25292004170294
C           56.54357325100386       40.69033211005177       70.57478711461384
C           55.89020035844978       42.58354644538606       69.08282272427427
C           55.97682129336616       44.05617663794292       68.66675054397174
C           55.59827366845096       44.98101536733282       69.82300771701502
C           55.05989437539085       44.34294731560149       67.46794362253250
C           55.37582066626903       43.56787749796135       66.18333404248091
C           56.83514436188500       43.74716453507722       65.76201759763474
C           54.48390760493668       44.02936185858107       65.02271461353661
C           52.96482904300096       43.85979974198239       65.17806649790779
C           52.58519164031826       42.40622768583177       65.44363659796733
C           52.31748105979251       44.38275313160889       63.88817444321933
C           50.78530738426600       44.38794093228333       63.78680962382845
C           50.42840038455709       44.90711780386247       62.39351685760364
C           50.15169960550414       45.25266662099590       64.88305550697562
C           48.61047145395010       45.28823634041156       64.88789565480627
C           48.11186440857140       46.73117979084560       64.94255889945232
C           48.00572356619589       44.52021368065305       66.07000091126974
C           48.19300602499423       43.00115318120800       66.04027133871139
C           47.42173759790691       42.38345029923875       64.87440522716987
C           47.69815430004415       42.36311752392651       67.34695582884724
C           48.50707237511705       42.67956615565975       68.61215465137943
C           49.94440308166870       42.17960292985658       68.48958083686728
C           47.80063105760483       42.04681868255811       69.81943758707172
C           48.27621897504029       42.52398425522416       71.19940399934291
C           47.72700185317172       41.57548122890309       72.26577642032325
C           47.82687793813982       43.96288122673246       71.48558821196818
C           48.54041389979383       44.62587342231405       72.67922658164582
C           47.52215233625357       45.31782269333975       73.58746909463179
C           49.59640878397632       45.64846091449935       72.23535536274623
C           50.81542253423222       45.07091276813235       71.50725146763436
C           51.64360021935416       44.18016328745124       72.43507842909571
C           51.72458107144005       46.19130870991258       70.97935818209064
C           51.16399619322223       47.06508950698883       69.85172484389901
C           50.72148238475408       46.21905941538442       68.65890027095598
C           52.22168245283505       48.06530202785751       69.36086435116165
C           52.76106105864211       49.06518765609937       70.38951557103655
C           51.64782624361826       49.96795418426039       70.92162101717355
C           53.85251083583056       49.94441755115562       69.76087121232197
C           55.19544842513718       49.25746577332819       69.48168161002343
C           55.95139916329522       48.99648439591975       70.78393542027148
C           56.05145917271281       50.10917495211028       68.52159596679073
C           56.24425847192394       49.52794492946630       67.11162660393292
C           54.90868973505837       49.36125107499254       66.38824873308931
C           57.00980651126432       48.19883666269220       67.10053825915141
C           58.45927061186800       48.25951752388293       67.59728202726112
C           59.31634129398363       49.14797368089442       66.69956391702016
C           59.04185019545429       46.83979416916044       67.65786817739787
C           60.25962468214433       46.70170114084217       68.58104452854570
C           61.04257252730697       45.43921764943481       68.22480324772029
C           59.82961022553120       46.66151695305545       70.05345687972000
C           60.92080010530144       47.10208848211801       71.04039982395409
C           60.63144721270969       46.51740276074359       72.42181450215104
C           61.01327119227436       48.63269913851225       71.08613475091953
C           62.20556241897804       49.17687720789986       71.89509361624548
C           61.74286047484860       49.73857322671213       73.24069493782245
C           62.95491895677780       50.27673379916174       71.13029410059092
C           63.79957243459091       49.78749671716029       69.94720293452102
C           65.08562719432845       49.12160542683083       70.43467542802190
C           64.13723334046497       50.96740180000542       69.02265570824801
C           63.00010590642457       51.34689289620346       68.06070435715043
C           63.02299781700204       50.42744583346384       66.84326576279442
C           63.13736819324664       52.81907213409153       67.65340729955162
C           62.05800431148086       53.37608424900412       66.71166797886161
C           62.44407102761470       54.80452053440430       66.32817989285732
C           60.67370702452688       53.32633095441084       67.36840242207360
C           59.50384496002266       53.82776085019728       66.50938387189345
C           58.24409014959172       53.89059480087892       67.37452636967251
C           59.26369042890835       52.94568003699857       65.26839368071234
C           59.29011668030435       53.70743029406209       63.93810422959494
C           58.13662522611775       54.70745366073242       63.85697765587920
C           59.19191915438481       52.74951045190923       62.74190106215995
C           60.36228753612298       51.78082672396940       62.53969731685232
C           61.68497343265880       52.53103959118562       62.39008226738400
C           60.15354653668579       50.91185774362186       61.28928639659522
C           58.87292589141079       50.07104484057872       61.24369196000256
C           58.73654938670961       49.20001751552066       62.49182029690541
C           58.85663212283536       49.16678267057739       60.00160379133431
C           58.77693086285615       49.87295588709171       58.63936001796043
C           57.44077865718547       50.58823201273615       58.46259749259889
C           58.99377044773392       48.82190203087904       57.54191957872556
C           59.05526070974084       49.31560769421273       56.08749258313047
C           59.32603917576304       48.10662101501444       55.19125177550126
C           60.13472903649838       50.39210943577163       55.92209733944297
C           60.48048894186986       50.81824849188787       54.48794259510057
C           61.65620387109124       51.79287581182609       54.54521447651625
C           59.27919691682157       51.44318976389066       53.77120146752155
C           59.55229592652881       51.79092057800611       52.30819454234272
C           58.28356182609078       52.22341425142912       51.58492014892492
H           58.54302188253346       41.86815542374391       69.02555962578273
H           58.48799297624456       43.44418206101827       69.82095103027955
H           58.88576108662571       42.00393674655955       70.75064605318448
H           57.54516117440006       51.42542811523939       51.59002980230480
H           57.84670891103841       53.09441312650546       52.06773371144966
H           58.49516615132944       52.47822787827034       50.54854047921049
H           58.44281887504980       50.74134691549735       53.80237327550539
H           58.97205123719885       52.34716655517221       54.30382733002999
H           59.82609300220400       51.28680439498233       56.46790211124799
H           61.04970256620134       50.01858314535457       56.39047390622163
H           58.08037948128845       49.73190447620838       55.81337423345274
H           59.19820352872215       48.35297176541837       54.14126859983234
H           60.34050952138588       47.74327132370294       55.34187660888447
H           58.63865410261458       47.29768602177556       55.42916459290119
H           59.93063673821428       48.29947807110859       57.75227873197004
H           58.18826443978539       48.08586026615818       57.61563129565399
H           59.75929871279367       48.54916747555237       60.02049108263824
H           58.00341387612391       48.48710506602741       60.07997930174940
H           60.80303105119756       49.93779191528166       53.92282190131017
H           62.47897205525403       51.35971037924677       55.10964252350774
H           62.02153580559126       52.02557423762142       53.54884793440210
H           61.36002628537481       52.72023846746620       55.03165900444487
H           59.58209891351773       50.60981851989411       58.58185905087795
H           56.61966149537349       49.87442088723102       58.50836028738853
H           57.29112829706380       51.33335851380950       59.23977071003817
H           57.39798433019956       51.09757048836178       57.50320389536134
H           58.00854276470559       50.73970314418386       61.19882207549134
H           59.61770646038529       48.57483720079122       62.61861380518919
H           58.61239456855061       49.80867138416431       63.38364820949742
H           57.86741606538750       48.55157358544569       62.40662354666077
H           60.17248800954905       51.56837160643125       60.41766066593019
H           61.00755919167197       50.23264535792129       61.20678126218659
H           60.44566874352325       51.12134411284445       63.40857979371160
H           61.62018601536890       53.26867919100539       61.59238099802220
H           61.95557124646017       53.04327484708978       63.30849893008374
H           62.48783451576697       51.83731172109648       62.14924228068010
H           58.26963651581737       52.17625215732868       62.85406488072657
H           59.09333419030393       53.34825302160232       61.83236849115838
H           60.22736305753993       54.26881238072525       63.87263744200478
H           57.18054743162954       54.18788295910669       63.89548118851899
H           58.17365642401624       55.41843887564939       64.67868714654041
H           58.18375747574745       55.26735134331528       62.92444794024741
H           60.02068168790407       52.16253358135130       65.23606502494664
H           58.29464730471741       52.44779063062420       65.35747524425891
H           59.73163047873480       54.84737295717449       66.18878435369538
H           57.99137068494176       52.90332393606415       67.75886597818766
H           58.39227769665639       54.55470186537777       68.22441871190921
H           57.39865157550064       54.26053134522518       66.79959741576630
H           60.45632616366985       52.29773084379912       67.66415489034770
H           60.71202315780942       53.92780676357987       68.28105814563139
H           62.04576214216551       52.77250607097516       65.79989476361976
H           62.38509969693865       55.46253468451028       67.19219369693958
H           63.46478555022819       54.83276772939847       65.95005268120433
H           61.79026745587603       55.19534767832422       65.55345457778375
H           63.14494163466566       53.43047300546890       68.56115081201980
H           64.11155624758301       52.94474162149749       67.17268261621930
H           62.04952495058983       51.21291749249443       68.58642449447770
H           63.91809267842909       50.60794152255870       66.25281786357623
H           63.02385770140089       49.38434299631984       67.15189302782264
H           62.15591629911246       50.58929950426219       66.20975368975147
H           64.39676262412371       51.82532390343832       69.64823729193334
H           65.02323918211540       50.72376348864428       68.43103421687638
H           63.22634622560759       49.04510625954458       69.38239977841093
H           65.71442904062376       49.84421882977818       70.95215826686348
H           64.86986823384325       48.30549707344239       71.12017229420611
H           65.64889298487418       48.71474777297895       69.59727573238382
H           62.22126204698888       51.00413162783551       70.77733296380077
H           63.61837587264255       50.80017201237998       71.82417099589409
H           62.90246048968083       48.35568684805632       72.09189500176117
H           62.59687928185350       50.03536519943093       73.84725420963949
H           61.11484135796182       50.61387870440015       73.08523081139109
H           61.17023109405286       49.00225262856072       73.79819858220493
H           61.07999171855061       48.99915867743072       70.06075050047326
H           60.08410297504531       49.02645140724384       71.50505711783372
H           61.88520735438019       46.70836559756324       70.69869439898297
H           59.68152043370535       46.89106937913262       72.80000426222209
H           60.57491657561795       45.43150244527833       72.37055205054818
H           61.41323034590251       46.77804012303098       73.13051552635726
H           58.95570376473613       47.29833637113157       70.20510510647503
H           59.52272960934409       45.63973484936106       70.29109916720908
H           60.91867688347075       47.56142358181661       68.42709385555919
H           60.39210634436935       44.56679725339956       68.26085405828792
H           61.45921496269631       45.51775712657697       67.22399446341967
H           61.86257498652432       45.28053080845241       68.92142559801775
H           58.27343461469953       46.14554254407082       68.00563639301541
H           59.32101166046792       46.53389224366502       66.64685431543057
H           58.46900524951752       48.67757662959137       68.60823188646063
H           59.21433727581628       48.84183314132854       65.65992534771695
H           59.02220789912943       50.19106500216191       66.78221442198605
H           60.36429288207042       49.07439869520077       66.97740465981293
H           56.46656464176866       47.47226024660441       67.70838064780027
H           57.01776991155295       47.81710361840510       66.07553829379623
H           56.82948036559129       50.26080666664987       66.54478724313316
H           55.07305870862918       48.99688222582911       65.37637022810915
H           54.26660414297157       48.65027512125410       66.90173085406775
H           54.38708317047674       50.31436934744062       66.32748477568158
H           55.59687262882210       51.09743824470970       68.41834337663002
H           57.03699093508664       50.26762177748405       68.96278718303486
H           54.99953750943660       48.28897646236873       69.01649708409619
H           56.18313079409786       49.93418218622833       71.28675659749749
H           55.36418317246844       48.38184768392681       71.46249628192705
H           56.88376146346300       48.47211292532863       70.58438199779124
H           53.45886825698366       50.35051403523452       68.82713373727120
H           54.04463653023907       50.78629857025922       70.43041279744817
H           53.19366547846690       48.52012436482921       71.23302410206261
H           50.87234688923579       49.38835185177378       71.41592596071771
H           52.04550450644171       50.67738403544280       71.64523651424335
H           51.19592653419772       50.53081679322698       70.10660557321370
H           53.05696265682617       47.48553995127601       68.96196017889942
H           51.79204462188818       48.63475199218883       68.53207052799186
H           50.29529523617065       47.61912830593198       70.21808404845693
H           49.85790265834176       45.61040686929886       68.91086653665781
H           50.45211176142983       46.85739412728859       67.82065732519808
H           51.52700161061531       45.55877219702740       68.34306572935216
H           51.98916209271177       46.82866356833568       71.82614728212083
H           52.64843302210847       45.73489810037082       70.61431581044621
H           50.47521960396972       44.46240638253390       70.66690303154353
H           51.99209878549951       44.74688142042258       73.29681371520530
H           51.06673895847599       43.33268086581079       72.79618740082175
H           52.51441358704705       43.79037138427049       71.91092762579895
H           49.10584190760339       46.37835653296966       71.58760804551255
H           49.95232369890484       46.18582712329609       73.11954368869380
H           49.03476163078486       43.85391672215557       73.27517490165796
H           48.01497537005003       45.77171052912239       74.44528394041411
H           46.99516699389326       46.09824976327877       73.04366695593968
H           46.79055371089698       44.60223183207686       73.95704931444196
H           47.98124153837311       44.57824353985526       70.59861711093343
H           46.75054486143534       43.94419272014739       71.67421585883591
H           49.36794993415191       42.47940829687871       71.23641447459454
H           48.00507180916608       41.90204975105559       73.26500746407750
H           46.64044020273919       41.53609167241230       72.21164309308851
H           48.11272854526869       40.56846917661743       72.11949469966291
H           46.72815409496440       42.24527891506087       69.74580859723184
H           47.93310447820790       40.96307083394375       69.76084306219947
H           48.52632080706083       43.76342817035675       68.75250166222774
H           49.95855441641826       41.12774338551375       68.20981879583033
H           50.48814606772499       42.74474715295286       67.73794704656517
H           50.47658057946222       42.28681952297352       69.43138830962705
H           46.66379357148576       42.68092586950648       67.50794936247263
H           47.68665455310001       41.27638959299676       67.22061126121119
H           49.25293695535496       42.76913451727773       65.91125231041791
H           47.79170074746489       42.74949616639939       63.92040008961443
H           47.51992382546067       41.29905801774868       64.88118351800908
H           46.36523424655341       42.63229463859048       64.94814986637955
H           48.44203028533640       44.92063792199315       66.98639441196730
H           46.93178282594418       44.72406546044017       66.10382616596632
H           48.23280127023371       44.84679901241444       63.96343212779271
H           48.46154511129177       47.22393998155478       65.84677733166116
H           48.46914104608021       47.29295970364812       64.08479725169009
H           47.02565419074550       46.76422619008531       64.93600030444463
H           50.49387689100270       44.89714939199815       65.85534191262862
H           50.53451389600653       46.26922467542639       64.76372187690588
H           50.41211812356956       43.36258738719143       63.87381065156576
H           49.36053514831983       44.85407263149008       62.20477134183458
H           50.74445187325007       45.94242439219762       62.28268255070947
H           50.93554635684931       44.32029350327532       61.63009125044578
H           52.66188959063816       45.40880030622940       63.73165907473653
H           52.70154297686711       43.78253734557758       63.05762563477071
H           52.62625426000029       44.47258588396451       66.01856907367326
H           52.96056862789519       41.76374030811162       64.64931799850980
H           52.99668605216726       42.05928015944508       66.38859236323870
H           51.50582683052620       42.28892362946955       65.48868492572815
H           54.69385790260984       45.08601378986771       64.83476824335736
H           54.79150391212170       43.47347509055745       64.13218098463507
H           55.19825668255758       42.50182222186399       66.35347052621813
H           57.51517622568410       43.28436186212505       66.47164975112780
H           57.00437038989246       43.28584576904835       64.79105317222134
H           57.08132626231631       44.80409728759641       65.68657341508266
H           54.03171665088109       44.12671594456814       67.76824734039984
H           55.11925688710779       45.41068241110113       67.23907006465568
H           57.00481737900812       44.28446325576556       68.37536001740985
H           55.56551485676730       46.01637617881260       69.49116985691349
H           54.61827655008678       44.71749096631900       70.21688240391427
H           56.32046153581883       44.91780402014512       70.63277618518018
H           56.15268285413705       41.95789217219839       68.22749500150002
H           54.85219365010397       42.35980718525622       69.34658579138572
H           56.52536584496524       42.75030171752840       71.13992167428695
H           55.49679097141307       40.51705224529009       70.81548582407083
H           56.80643951272725       40.06684574885742       69.72225206859412
H           57.14542232318196       40.37748120536143       71.42545670301372
H           60.28560063058708       52.59720211537085       52.24598379196176
H           59.97465907080591       50.91764881928056       51.80488934869405
C           66.64418602491880       45.56154164704277       66.01809460423945
C           66.07812699822101       46.62147477099283       66.95972175088957
C           64.59065222627891       46.36314805915309       67.19397190028563
C           66.27358468354184       48.03722145143976       66.40497358486650
C           67.72713683887953       48.49231208512590       66.23396899856293
C           68.49016686467679       48.44581678437665       67.55910829999617
C           67.79311989014694       49.92595906966605       65.68849449272180
C           67.24559525653954       50.15926185754276       64.27536759792255
C           68.02220116424070       49.35523671193501       63.23364869445130
C           67.32701509066435       51.65343381943004       63.92714090924617
C           66.28106897767948       52.53625992787692       64.61755616481186
C           64.91518805989804       52.35548303820724       63.95920111299578
C           66.66925851566995       54.01958873614892       64.54475738852894
C           67.85607118621249       54.45368313010028       65.41533688667201
C           67.52521718995811       54.33384556533157       66.90125222140466
C           68.22818632239944       55.90008919503509       65.06234958211466
C           69.60496642310204       56.36842158676986       65.54789784738131
C           69.73870216296180       57.87114562103849       65.29384478347727
C           70.75124735756161       55.60610634024678       64.85811477340224
C           71.49950352282363       54.61575682166148       65.75942605295627
C           72.36094769841011       55.36503801064326       66.77528271755902
C           72.39111666547848       53.70175675815428       64.90726443169163
C           71.65036155990032       52.54697758069668       64.21795320947021
C           71.56989385756917       51.34066769923807       65.15120908347090
C           72.33836626486718       52.15910307424424       62.90110205912652
C           72.01752039105597       53.13273342206221       61.75488501637406
C           70.72109864701000       52.69376554450805       61.07100251659437
C           73.14969481012014       53.25326510664748       60.71709165944762
C           74.07789701373837       54.46576117581878       60.90889788369849
C           74.77990209563153       54.78654262941031       59.58999121275697
C           75.09769493890718       54.22627165390767       62.02761708977547
C           75.86806880194074       55.46863980383266       62.49706738890617
C           76.95291548885187       55.03850623278547       63.48533739858488
C           74.93731776636682       56.52245863634153       63.12898057889459
C           74.97662252983143       57.88167690762457       62.41810174279212
C           76.30441908945588       58.58670217720908       62.68782476425790
C           73.79954768444779       58.75993567230748       62.86600925541428
C           73.52475595854349       59.97081968471698       61.95510642672824
C           73.22506173615149       61.21132494606256       62.79925743046317
C           72.34805551746700       59.72596233914376       61.00049348903270
C           72.53311593374605       58.59170167951348       59.98696312298490
C           73.61976116242069       58.93224504578146       58.96645940779907
C           71.23020447221126       58.30692348412337       59.22811379614843
C           70.02842759557892       57.83862452002113       60.05912064624405
C           70.37506226361863       56.63043764890276       60.92448288563427
C           68.87468964944388       57.50110391230453       59.10367938921128
C           67.49466158574114       57.40085607337725       59.78169522251319
C           66.85514812116075       56.03842067465023       59.51436542131596
C           66.56216505416867       58.52334894109050       59.30875174440428
C           66.95219000148742       59.91150089111482       59.83277211886256
C           66.45505693117273       60.09991855847693       61.26374377675437
C           66.38003807169140       61.02333750131719       58.94081661736076
C           67.22822600572535       61.34045615958832       57.70572221389806
C           68.52929517319639       62.03446470476302       58.11290309361042
C           66.48478436145977       62.26146147278371       56.72845822926184
C           65.18317583493926       61.72877314121517       56.11932821941348
C           65.39520454133775       60.37473766110413       55.44106785461112
C           64.62962094001801       62.71753394870201       55.08168461252974
C           64.31891259372641       64.14332375907746       55.56299379750924
C           63.29812306191824       64.13835984869741       56.69692719085626
C           63.83460120813795       64.96631399075878       54.35849175873386
C           63.77355982298891       66.48907774049702       54.57062479415146
C           62.35997709820320       66.95695823184346       54.91490526502105
C           64.24741100641447       67.22920126193925       53.30857990853751
C           65.77062256488861       67.24939138991732       53.13121675457984
C           66.37881571122082       68.37672430076313       53.96593916775868
C           66.16599071099739       67.44655154464886       51.66073216559354
C           65.98288470111288       66.22684855487512       50.74391934183002
C           66.99241964808498       65.13510141360166       51.08736360272166
C           66.14144332959189       66.69175003881546       49.28796556744744
C           65.84655496387671       65.67160167840072       48.17627271622547
C           66.34486376914793       66.25482074336493       46.85312345246123
C           64.34912603717322       65.34837469609057       48.10067603491401
C           63.96762912378058       64.22374553976319       47.11612299960161
C           62.83450009984927       64.68591944603307       46.19811972909820
C           63.55993994942082       62.92673864163666       47.83210715025751
C           64.73430669677022       62.14974363408845       48.43802705292778
C           65.56289010875062       61.50029067168076       47.32944661490796
C           64.28394552103551       61.04219759839398       49.40165054699548
C           63.45051922886491       61.46466010918272       50.61667542084081
C           64.03132858596780       62.68839000208396       51.32045566043246
C           63.36765201445250       60.32460997456898       51.64270456673790
C           62.80996215918244       58.98160753767083       51.15272627666572
C           61.41358081886046       59.14074128598065       50.56307646982881
C           62.81228315823761       58.00688262437474       52.34049816023094
C           62.37373604344727       56.56176825770817       52.06225731588218
C           62.24594856867282       55.82420111394321       53.39454204979472
C           63.35493158290904       55.85361130275974       51.12400565646536
C           62.93528525807605       54.43859194471440       50.73143611696254
C           63.85704838175259       53.87106605358571       49.65945957555603
H           66.18613740542567       45.64735245804825       65.03400018621181
H           67.72063282782173       45.66461189724106       65.90666703505876
H           66.44059981216262       44.56543648446099       66.40558656743642
H           64.88547269875448       53.84887142378810       50.01379003058874
H           63.56549127920153       52.85822847625059       49.39127438853033
H           63.82441135363920       54.48779355273623       48.76272994510654
H           63.45190020621109       56.43966005401709       50.20758077002455
H           64.34000055557819       55.81590576725819       51.59536003242677
H           63.82162233824946       57.97849556865650       52.76267940279183
H           62.15498884535345       58.41883302253710       53.11107828304716
H           63.47054228496689       58.59309615572424       50.37220123601492
H           61.03822455549925       58.18089815276404       50.22029663758212
H           60.72513014054365       59.53983989680644       51.30537638724685
H           61.42669000806956       59.81487159089325       49.71072694754365
H           64.37316850514156       60.15541098027869       52.03922892261654
H           62.74713864467486       60.66714955097774       52.47581228256112
H           63.71482164983024       60.30638389970689       48.82810387144364
H           65.18404802034981       60.54326552503597       49.77000449771533
H           61.38683480281031       56.56698638121930       51.58994457963207
H           61.84844425742501       54.82334192552117       53.25291524850449
H           63.21692604084126       55.74605761839568       53.87899795521929