3536
 energy: -3716.269031103123 gnorm: 0.000695373108 xtb: 6.6.1 (8d0f1dd)
C           55.87459720288300       66.12224233290527       37.42393703815149
C           55.88655268413830       66.60100129204005       38.87388078456005
C           57.04322033749592       67.57760553752928       39.08916707717776
C           56.02189612645765       65.43595494661056       39.86032080967073
C           54.90581786053538       64.38543154787166       39.82985089902851
C           53.53983807513672       65.01175637218951       40.11344596965672
C           55.17182720249064       63.28849148954112       40.87169236175128
C           56.40433120546163       62.40975522771571       40.62885015741487
C           56.26316930632685       61.60730217101604       39.33484738926163
C           56.61983312063721       61.43012605227138       41.79180525938579
C           56.84934785355377       62.05130911136721       43.17453044045120
C           57.98860883229432       63.06948458234594       43.14493543418315
C           57.19436082908515       60.97347166713765       44.21244595761423
C           56.18188532264523       59.83509109519825       44.37625463790403
C           54.78690285861157       60.37377471237603       44.69548985864280
C           56.60345509988489       58.88469230996905       45.50688696025037
C           58.02557039604411       58.31817262532689       45.43357660454323
C           58.28515326004926       57.60376316386618       44.10673727972747
C           58.27678895098053       57.33430193653039       46.58635225393915
C           58.08028936753838       57.88354082643443       48.00351551804214
C           58.93480252839376       59.12770797763084       48.24716892860960
C           58.44474792785047       56.83352926347415       49.06206761435764
C           57.65472830150117       55.51706908674696       49.05009426358320
C           56.17053891130881       55.76276997813456       49.30240993579424
C           58.27018895133951       54.60193398110531       50.11819102874070
C           57.71666606817025       53.17571476182425       50.25168322607371
C           58.45909285053445       52.49269658169964       51.39988161990709
C           57.86057045251082       52.38444800895727       48.94893925275558
C           57.29850996460797       50.95554836996611       48.95439130793770
C           57.52256056235378       50.34051222473384       47.57261682692643
C           55.84066467126826       50.84666282622399       49.43655228927079
C           54.79262351567871       51.76442190441527       48.78661653487391
C           53.67988688734074       52.04642490144894       49.79729173840180
C           54.19418792361270       51.16109275486978       47.50888778966798
C           53.54702001577878       52.19523096807763       46.57400285631473
C           52.62254474837083       51.49105083300036       45.58357267218197
C           54.62978027836229       53.00044505726031       45.84614731473184
C           54.15529272387799       54.16169777519664       44.95896350754470
C           55.38531024856225       54.80542706384779       44.32051201636941
C           53.35590932035337       55.18682490353589       45.76958303943042
C           52.82814013014510       56.41145615250134       45.00636482362965
C           52.16202542410933       57.35415896297383       46.00779113439894
C           51.85870845053275       55.98141362374059       43.89757774033295
C           51.07224610661255       57.09918666657229       43.19598359185305
C           50.09839384565782       56.46219952728474       42.20446056916231
C           52.01854168406612       58.08234528264388       42.49785800595660
C           51.36886605178879       59.33840188843710       41.89863837117807
C           52.39445184610615       60.05156600946270       41.01674999069503
C           50.85833726529361       60.27852535100207       42.99769863378754
C           49.86946787297298       61.34824387290372       42.51553762356686
C           49.65181252995308       62.37471184336047       43.62801884097956
C           48.53133113057932       60.72405304922734       42.07366018229142
C           48.11762425721788       61.07918127208677       40.64144224442408
C           47.74443784328599       62.55895772604726       40.54171145029618
C           46.92531819327913       60.23461616520432       40.16771857470760
C           47.19430654841794       58.75334897450492       39.85980201902174
C           48.17748665654172       58.59566238570136       38.70407143693746
C           45.84548819824237       58.09212949580296       39.53850041727689
C           45.84619081690138       56.59095931532973       39.21296580626544
C           44.45112426688838       56.21498973141318       38.70847404184761
C           46.22708180389595       55.73742077322308       40.42836360824515
C           46.57177499676889       54.28057594374645       40.08467101081023
C           46.49444849123321       53.42619194333849       41.34935855736853
C           47.96037719407453       54.15631566020217       39.42899117129187
C           47.97753082202063       53.34738433504301       38.12520536978395
C           47.52906224092917       51.90711682358581       38.36560229823711
C           49.38540782497165       53.34050382234628       37.51165415538805
C           49.79391943355238       54.64823526904793       36.81781600375234
C           49.30173179114610       54.66319969568207       35.37182942080499
C           51.31751849252111       54.82970633640543       36.87204860428157
C           51.79851221585007       55.29716619671555       38.25481357161350
C           51.74299674173728       56.82016208257549       38.34263023047623
C           53.20030135542416       54.76658430964838       38.57856901667419
C           53.58170179804591       54.91243805705029       40.06373908925294
C           54.60560387242990       56.02974565809884       40.26192342084780
C           54.15986712077727       53.61754713159796       40.64920145921222
C           53.23637394808208       52.39319229668510       40.66767015602578
C           51.91202435471875       52.68132271063187       41.37397236353926
C           53.92363400865589       51.22111666984852       41.38398183105827
C           55.27435223368460       50.77318190831779       40.81657572832420
C           55.17020983813403       50.39718101832819       39.33865253709235
C           55.81978778128052       49.56848812686619       41.59558999632821
C           56.11567579441007       49.79467284162700       43.08350091548766
C           57.09865826421682       50.94437559329374       43.28622682744675
C           56.68728796627614       48.51028780584840       43.70016803870674
C           55.63002781922650       47.44702827253753       44.02188036552872
C           55.02999607929375       47.70336382199584       45.40203558151626
C           56.22398890909329       46.03383660128551       43.97741028032397
C           56.47320382681347       45.48725475372258       42.57086483103219
C           55.19041221492618       45.17107269756326       41.81021394641164
H           55.85970170010319       66.97252245883197       36.74514931127332
H           56.76436883447673       65.53194241488606       37.21298284913612
H           54.99875607251285       65.51232848945168       37.21833593554221
H           55.42207448731927       44.72468183319243       40.84528566192261
H           54.57648537451216       44.46879704296173       42.37027152607838
H           54.60668543086949       46.07053549984487       41.63038531141410
H           57.16545321588764       46.03445069003875       44.53184169881580
H           55.54485786544949       45.35161900879829       44.49349893600805
H           57.43104419561610       48.10081242498366       43.01429161164294
H           57.21185893285228       48.76078285883230       44.62443343845363
H           55.18340739519270       50.03806730569163       43.60276400514583
H           58.00595673471263       50.76693781033241       42.71450950893809
H           56.66966986810085       51.89142377381069       42.96919952468948
H           57.37037576072555       51.02931788758168       44.33605699632085
H           55.10773778162943       48.74533863932338       41.49399840725528
H           56.74827490986555       49.24733133110288       41.11309111433457
H           54.06137771328948       51.50872648721851       42.42799246939309
H           53.24657687732401       50.36185906838288       41.36698950138398
H           54.82305301771094       47.50812366843757       43.28603338228685
H           54.64028825623941       48.71512809637609       45.47504275970042
H           54.21628000998472       47.01109642051788       45.60090846831297
H           55.78711862871065       47.56930206999748       46.17201221237370
H           55.99201970600599       51.59279781764221       40.90535159676190
H           54.91093752548335       51.25843433347543       38.72804624192428
H           56.11992326994428       50.00610381967678       38.97657733404331
H           54.40976868766153       49.63273098541416       39.19468458374588
H           53.00662914223009       52.08911709961345       39.64132292536535
H           52.08596538062584       53.07692505438348       42.37184788762592
H           51.31637591786686       53.39975590094939       40.81768294339898
H           51.32943222640728       51.76765573632354       41.47060983126531
H           55.05894124732269       53.37243489932484       40.07990083435016
H           54.46813070962817       53.82060962046350       41.67759354789688
H           52.68478438605262       55.17627667908711       40.63088634099999
H           54.78316345639785       56.20546540541451       41.32125987967503
H           55.55228905851811       55.75792123145781       39.80135780291343
H           54.26283178205696       56.95943844807547       39.81449395636695
H           53.23519313187840       53.71207261497749       38.30065912024676
H           53.93233200603481       55.28340790904041       37.95335369703242
H           51.10885039892701       54.89032869425893       39.00219563894974
H           52.50448030916841       57.26632220802488       37.70469804808423
H           50.77255761554561       57.18652271265939       38.01672583255928
H           51.90210882706846       57.15823592151591       39.36285814198111
H           51.78625588425319       53.87796079684301       36.60980258609734
H           51.62729651828230       55.55867388609186       36.11986945113630
H           49.33010878922865       55.49261238233525       37.33735893846495
H           48.23026138655185       54.48055657384674       35.32771437297156
H           49.50220745446633       55.62624914698586       34.90635591495919
H           49.80460610368647       53.89178047762601       34.79115842405929
H           50.09770508960179       53.10464557838699       38.30509899644550
H           49.45051043308747       52.53462070351969       36.77565864650064
H           47.28255293288208       53.81159577229781       37.41509591941885
H           46.51077185193133       51.87054238402190       38.74331068949840
H           47.56418689560666       51.33406551417714       37.44063307318485
H           48.18488208267925       51.42926194609409       39.09109929769593
H           48.35132130896342       55.15351763071700       39.22281378046312
H           48.64976025825437       53.68715973225698       40.13517626045894
H           45.81802764885135       53.91016861156769       39.38395515031086
H           46.76357193388116       52.39431461095734       41.13971267174075
H           47.17549244761380       53.81218966038364       42.10539509719133
H           45.48570041971324       53.43650009384439       41.75547877182826
H           47.08278392072559       56.18019926206345       40.93983889659035
H           45.38815845323578       55.74668893978311       41.12886744083126
H           46.55637572700152       56.39915397776897       38.40351841933523
H           44.19513480108458       56.79289310678761       37.82251060835343
H           44.39481880544452       55.16147318393215       38.44739541302311
H           43.70440337982574       56.41705875970603       39.47418482115846
H           45.17506822417572       58.25179754366216       40.38690053885040
H           45.41309686647826       58.62124261076429       38.68399359600276
H           47.61867030762865       58.27693767356099       40.74817024444929
H           49.12495016323441       59.07954697837442       38.92736518974991
H           48.38119614453532       57.54489705578874       38.51607960907737
H           47.77187310730795       59.03591724981224       37.79490555389499
H           46.14632032235506       60.29063788228909       40.93193954893224
H           46.52179570201775       60.69294644861763       39.26005233274013
H           48.96985803719941       60.90232314843441       39.97748047577142
H           48.56759404108932       63.19242953166727       40.86217173382740
H           47.49455793890036       62.82464487620379       39.51618989939831
H           46.88118829032707       62.77510668175194       41.16910223404000
H           48.60201872574050       59.63954378582068       42.15695730785682
H           47.73813471314970       61.04808767780764       42.75152946552320
H           50.31485118717233       61.86998567591468       41.66217756190694
H           50.58881845370090       62.86326015539411       43.88882102184593
H           48.94576787511004       63.14122404360687       43.31661434675134
H           49.26147177040144       61.88987906233606       44.52035248451736
H           50.36461347012646       59.69833421494945       43.77911845852622
H           51.72007085165461       60.77252230046099       43.45450549123574
H           50.53171729828701       59.04101082452080       41.26126943868987
H           53.27169328005332       60.32367212079969       41.60123186863737
H           52.71603945025335       59.40812090454861       40.19992443117951
H           51.97870827826958       60.95795302105430       40.58180285616821
H           52.77855084607793       58.41386965446592       43.20662859027214
H           52.53403849622647       57.54384768823237       41.69934532599574
H           50.48010843971452       57.62959523867749       43.94657067862168
H           49.46742042587422       57.21142639558986       41.73378265958325
H           50.63622486595071       55.93455778123391       41.41970644645511
H           49.45103955941477       55.74897114056509       42.71098648605815
H           52.41936038141676       55.43732155995073       43.13468723751846
H           51.13379911285291       55.28596261571170       44.33151304706644
H           53.67640485603030       56.93805420159403       44.55829334550931
H           51.24729779662780       56.91442741780705       46.39869094479145
H           52.83199479063524       57.54389573455426       46.84399369271101
H           51.91650674972407       58.30874509872308       45.55043035446135
H           52.49585118065399       54.68728818275703       46.21886842323106
H           53.99302334369629       55.53785368011908       46.58630442959634
H           53.52386870390733       53.75845490088891       44.16189457497580
H           55.99837397605273       55.28052678068907       45.08401810342426
H           55.99584630167778       54.05627987946020       43.81960828362003
H           55.10364128418566       55.55766114816214       43.58740209418387
H           55.31902823657823       53.41425329361452       46.58564580861387
H           55.20183652884834       52.30954961182992       45.22051329848977
H           52.94200719783192       52.87339174531241       47.18232235574253
H           51.86931383755649       50.91065334617721       46.11141085696961
H           52.10760286974587       52.20615768273198       44.94781874503681
H           53.18666858267259       50.81220594699852       44.94651125017106
H           54.96274802573710       50.62790165593862       46.95195300941293
H           53.44131677678663       50.42349261654396       47.80014235740826
H           55.26504127983184       52.71621608604986       48.53816335932338
H           53.23620115595531       51.11251236753292       50.13664862168467
H           54.06773600450710       52.57724928597108       50.66479513076772
H           52.89522104629146       52.65410376847127       49.35385018474702
H           55.51805761751661       49.80856934608073       49.31933845783057
H           55.84456128309048       51.05217147121514       50.50981420346719
H           57.88856084774334       50.35812288441597       49.65978419959580
H           58.58911535758418       50.25942301286288       47.36846944554127
H           57.09095688711267       49.34300623186148       47.51967530993982
H           57.07967557105793       50.95593928401203       46.79392506254104
H           57.37369995953629       52.93668580775413       48.14384751402243
H           58.92330601346027       52.32224765532246       48.69545665125386
H           56.65844519110592       53.23586903126243       50.51605644293040
H           58.07413742196268       51.49355099554103       51.58083862954155
H           59.52174484439001       52.41628017284820       51.17436060391154
H           58.35155478825727       53.06916879658940       52.31648706995347
H           59.34419744877592       54.52870162258930       49.92087183957004
H           58.15239860566754       55.09323654807533       51.08769688262467
H           57.77617937902099       55.04623696571068       48.07035496991410
H           55.61748570900742       54.82778123285305       49.33607786593519
H           56.02954058015944       56.27858898979964       50.24949704123264
H           55.74338822604398       56.37428027435267       48.51036736773003
H           59.50538075574859       56.59638835081199       48.95033196135176
H           58.31876548629444       57.29114505619301       50.04657774253266
H           57.03130988638448       58.16083722702150       48.13760068583004
H           59.98470889269280       58.91365374565884       48.05641534607126
H           58.62892935914575       59.94888086175009       47.60452932255145
H           58.83537933963919       59.45645364166533       49.27991483046512
H           57.61239853357786       56.47890699876505       46.44723691022074
H           59.30314814615048       56.96617189707712       46.50407610938500
H           58.74270206477794       59.13847791556796       45.52017449325525
H           58.23430188604117       58.29460064830326       43.26909337851216
H           59.27721014104015       57.15499080116165       44.10658288231915
H           57.55544573558574       56.81376688023762       43.94404318242538
H           56.49653637203541       59.42794990355672       46.44700675763876
H           55.89897451552309       58.04845628049416       45.52866194417872
H           56.12733754661044       59.26558969910918       43.44357512428557
H           54.36777850847089       60.91775199636842       43.85219203325259
H           54.11174543848865       59.55752209482353       44.94232725518098
H           54.82612312008595       61.04704970391329       45.54987892122626
H           58.16082359061672       60.54937819661494       43.93467928361667
H           57.31747117527286       61.46317055844783       45.18321569296756
H           55.93818692933724       62.56540348372819       43.49567693315938
H           57.72782572787589       63.94002844129290       42.54911558656632
H           58.21782893399480       63.40813807849979       44.15381423714472
H           58.88632285811710       62.61985045800521       42.72324813717300
H           55.75128882545392       60.77021936928716       41.83668411849981
H           57.48844074740852       60.80983667861575       41.55243099578757
H           57.29278745669570       63.04012728586875       40.53931160873434
H           56.23441960087618       62.26066218579470       38.46676777303718
H           57.10577073615324       60.92994716155138       39.21537972701683
H           55.34918468212355       61.01661038655358       39.35127732256326
H           55.26398520388555       63.77506350776888       41.84471155523914
H           54.29673576037194       62.63451097338191       40.91442436857047
H           54.86879953022005       63.92788484213117       38.83788248753947
H           53.25845813428110       65.71589532577505       39.33504888515183
H           52.77316212884398       64.24090948176391       40.15910368170397
H           53.55014965646022       65.53839959519070       41.06589095969490
H           56.97543426458099       64.94266278923944       39.65916650881172
H           56.07215825349256       65.85144196218252       40.87053461323248
H           54.95333220340203       67.13698852084588       39.07446704336477
H           57.05694236675314       67.93550164209896       40.11643350745286
H           57.99488343521825       67.09139981350846       38.88223197428888
H           56.94870479637120       68.43686697372213       38.42872435762148
H           57.06427503368197       46.19922414130880       41.99121339750671
H           57.06158198595136       44.56931374813860       42.65495491484072
C           65.67529079878352       41.25346910889883       53.43279903852567
C           66.32568391355099       42.61131941176954       53.18060064004109
C           67.60516455286945       42.42403650311508       52.36487080734796
C           66.66686647052290       43.34379381513941       54.48444955449978
C           65.50070405856791       43.57789825757733       55.45123165534107
C           64.35048142584378       44.32029541096913       54.77249282343328
C           65.95177868526777       44.39337350795356       56.67247532408513
C           67.09212982905315       43.80339688158228       57.51150233140833
C           66.73990076677637       42.40286951880064       58.01255883243078
C           67.39669865605585       44.70764277378563       58.71637321865152
C           68.07769412159145       46.04040124453105       58.37789803924999
C           69.56759617862372       45.82982169810845       58.10799803109957
C           67.90565135798977       47.05489440524967       59.51789925281515
C           66.49066738755218       47.62712647764038       59.66563798927696
C           66.18155021156871       48.59546556888701       58.52585786753537
C           66.32078817102496       48.35053791332896       61.00847293871910
C           66.24160747531381       47.43990704048797       62.23950515823631
C           64.89505806173342       46.72047783383492       62.29745491828556
C           66.44819232595783       48.25723871091713       63.52384276818825
C           67.90398786700666       48.65916907865065       63.79062822681506
C           68.70752115161319       47.46133474297684       64.29965942368231
C           67.99819681798242       49.79128932527290       64.82362964839871
C           67.54537785881598       51.17988396419498       64.35414079814124
C           68.51967959673632       51.75918437856679       63.33211087795345
C           67.43936650953646       52.12629351286844       65.55994059807557
C           66.17463303974553       51.91060220812565       66.40641921622696
C           65.01906649548786       52.72375630709583       65.82993174201347
C           66.43712749386566       52.27798002083992       67.87173668274733
C           65.37178767085854       51.80055684750847       68.86793338675470
C           65.72513346333011       52.31867683306027       70.26265969636121
C           65.24558381909544       50.26519016042130       68.87043602459383
C           63.98571376202120       49.74483660163852       68.15813745164962
C           62.79240690149310       49.82803158230889       69.10763815789321
C           64.21315991118449       48.31596549478191       67.65048050325726
C           63.10116121162527       47.75980636440861       66.75108306772671
C           63.37558803300055       46.28353247768109       66.46118234262899
C           62.96113099148189       48.55201059053968       65.43581330937479
C           61.62944202803624       49.30357119813928       65.30940982390743
C           60.47486264665394       48.32487045964152       65.11634838178406
C           61.67905845684050       50.38864226200828       64.22137931847661
C           61.88933302048110       49.93287666270194       62.76378860909692
C           62.74904394774646       50.96517742629238       62.03580332708538
C           60.54049488330738       49.74106468938700       62.05750035975285
C           60.56222946580488       49.36929293957316       60.56446390717345
C           59.12550097430208       49.05665194100947       60.14551461047113
C           61.50160789099854       48.19305589542044       60.27360358376983
C           61.52238803606090       47.67388598506709       58.82486771218741
C           62.61710365782731       46.61392736625825       58.71249324035561
C           61.74117634298223       48.81336915747096       57.82610177218923
C           61.84169352123364       48.44060784411253       56.33663445472487
C           61.86107940804288       49.74797495334229       55.54849017908679
C           60.68752559605511       47.52808668490434       55.90078459652958
C           60.46851293784538       47.31944199118391       54.39136473029443
C           59.35466904558994       46.28333151378490       54.22647289802182
C           61.73743283113176       46.85766874241764       53.66581573884739
C           61.61929853815266       46.79580379249163       52.12749531903125
C           62.02564566243548       45.40986771485593       51.62403762835492
C           62.47200359705554       47.85890787059990       51.41678049590281
C           61.85040772603475       49.25916795010099       51.33960010715830
C           60.73917164240804       49.29745538813875       50.29379075456392
C           62.92326803293685       50.30128207728067       50.98545426696963
C           63.73101936756542       50.78811572338093       52.19466180601753
C           62.95016869184436       51.86465399904931       52.94615065735633
C           65.11827257711015       51.32516529165383       51.80294957305028
C           66.22788601801176       50.93223839896515       52.79140682772388
C           67.42271565885513       51.86104523843635       52.58465948526463
C           66.62898124632183       49.45868159823289       52.58834128678389
C           66.79554632805849       48.57793192760264       53.83780875114580
C           65.48198549797111       48.44294799890098       54.60685833644879
C           67.90824912259232       49.02545800289068       54.79307639422386
C           69.34650330222109       48.74671872652947       54.33684783740507
C           69.61443050255492       47.24610636729424       54.22407768652473
C           70.32931151261316       49.37899755250429       55.33918904647803
C           70.67253704578756       50.84254160157892       55.02662393269243
C           71.87030053948868       50.90354057173849       54.07850518353120
C           70.96968419000871       51.65361841283291       56.29451869854574
C           69.74944590774764       51.96731785606991       57.16937233805156
C           68.74059976018906       52.84322024959733       56.42714019708074
C           70.16115013784882       52.70004631299700       58.45454354310732
C           71.05990101453696       51.93645000883142       59.43187661270650
C           70.41532142083604       50.61982265666038       59.86657037276627
C           71.35207419156082       52.78975180046266       60.67675791713348
C           72.11366314417005       54.10090522181020       60.44019548821623
C           73.49219382211830       53.84201670036854       59.83339451212852
C           72.26645510636646       54.86861554443705       61.76370938888539
C           71.03282132907178       55.68256044941668       62.17709907428274
C           70.96621178815194       56.98623205770697       61.38178314432189
C           71.06200807949058       55.99782167952904       63.67917349295423
C           70.67210132039845       54.81485021457048       64.56179628259940
C           70.80304469802519       55.14888046005578       66.04280045810796
H           64.70803732272255       41.36327819854165       53.91520827995539
H           65.52292786513638       40.72963032144077       52.49087311079318
H           66.31125548452607       40.63704813948502       54.06597184465905
H           70.19653359913148       56.01623075568870       66.29528048460300
H           70.47522997142376       54.31247348844094       66.65595799677695
H           71.83706251894172       55.37551824435685       66.29518441333676
H           72.06342815712664       56.34216124250064       63.95113356975575
H           70.36900204817456       56.81730118390730       63.88516474309370
H           72.51608863401461       54.15264381559223       62.54912040846714
H           73.11004397398129       55.55896053685473       61.68157398294824
H           71.54781249460800       54.72575834738239       59.74415525128618
H           74.03457589943474       54.77739456904285       59.70976131058684
H           74.07737777924171       53.19082860591711       60.48020732561174
H           73.40969088505629       53.37409930726596       58.85604212978612
H           70.40269976221511       53.01791397530778       61.16658001142805
H           71.93712697082326       52.18298617694137       61.37433350681163
H           70.66861011892588       53.62035023507071       58.16070232652264
H           69.25204942590410       52.98461725109122       58.99021803158939
H           70.12994294018299       55.09891729814064       61.96718767486878
H           70.04633140570466       57.52407019698147       61.60117983520306
H           71.80765331786301       57.62732525332564       61.63973275248343