3795
 energy: -5103.078503484666 gnorm: 0.000931858414 xtb: 6.6.1 (8d0f1dd)
C          117.41484828663756      100.11622489687075      116.94590033473992
C          117.72096957548460      100.23217749298475      115.47093344438326
C          116.06791852971270      100.70921941010413      117.35438733626400
C          115.88159451958302      100.62323790450863      118.86854389781540
H          116.01674798648264      101.75082005496321      117.03321149066845
H          115.26249576998674      100.17065496018725      116.85287869657003
C          114.49073089944464      101.09092294761925      119.30825311129051
H          116.03356420219544       99.59448611321079      119.20020253635334
H          116.63666120366022      101.23811505863839      119.36024425678838
C          113.43195306896155      100.09077620634419      118.87987497125400
H          114.46277721178203      101.19945128068470      120.39322154885303
H          114.26722185824586      102.05402554953967      118.84736253141648
N          113.42561115765724       98.96390895765425      119.59470697242674
O          117.50281368555301      101.42566095910581      114.96989897569361
O          118.15784097377743       99.30637999961907      114.81982637639811
H          117.71649326226637      101.45427255690187      113.98103043319630
H          118.22251707179385      100.62287243004209      117.48081179003944
H          117.46757716522835       99.06074260343208      117.21547189030228
C          112.60945815483461       97.81725437624887      119.27529955304489
H          114.08241575775895       98.83897528361079      120.35996687539637
C          113.44478306656461       96.53527335428782      119.25942653206295
H          111.81147664231985       97.71346471237165      120.02061081873725
H          112.14631634051219       98.00205910744613      118.30366456714528
C          114.66466369281454       96.60239803150445      118.33792567869763
H          113.79313715809607       96.34159940277790      120.27599572945121
H          112.79964699586418       95.70867093841046      118.95649678736787
C          114.31602660749923       96.91746067618720      116.88565797849520
H          115.34893145530926       97.36566607785073      118.71327179227455
H          115.18234046236273       95.64088967342545      118.38394904932734
C          115.53198364173601       96.82429254967815      115.96694828008988
H          113.54889207909910       96.22376872749112      116.53606543021229
H          113.90926915399544       97.92690059673340      116.82306089224365
C          115.20162061345420       97.33796516475688      114.56695219643564
H          116.34999942374193       97.42115926369367      116.37418746307289
H          115.87613609113615       95.78996645813858      115.90221306002981
N          116.36072501944710       97.33945562464071      113.70700000452965
H          114.45401557817981       96.69620530752547      114.09824754994270
H          114.79758792563042       98.35538200855767      114.63157057684251
C          116.38643056606003       96.74121132006898      112.50912625679172
H          117.15007082011944       97.89430300334564      114.01406963682243
O          112.66386393559083      100.30858427526563      117.94849344925035
C          117.67095494270903       96.93266529003077      111.72408092274900
C          118.00788298701320       98.40337906303357      111.46767568868755
H          118.48591920357970       96.46085136665100      112.27816738616453
H          117.55065256145868       96.41323058299788      110.77139370203957
C          116.90655047106404       99.10218473386338      110.67533572636280
H          118.17764086486012       98.92919598577032      112.40761665250453
H          118.93392819902381       98.44169821909546      110.88883786566930
C          117.26874439598839      100.54962757098234      110.31120253871457
H          116.73101042341032       98.54608829710919      109.75264841558061
H          115.97838509487610       99.09600037354878      111.25121331664904
C          117.18509124455517      101.46319373494721      111.51394789259889
H          118.28505655800393      100.57873671990760      109.91337375773018
H          116.57758545470905      100.90882297620608      109.54933929692379
N          116.11919168629906      102.25703778741369      111.53232759468847
C          115.83643748227549      103.24788175031543      112.54863597225086
H          115.47049608674996      102.25293573133006      110.74757177378191
O          115.45227424441525       96.07829428031592      112.07855428425655
C          115.40746764934379      104.55124572916733      111.87926957591640
H          115.03880578095301      102.87552304136484      113.19928904222934
H          116.73884833670719      103.39587451872887      113.14732740450063
C          115.20812993271225      105.70491050496005      112.85938407481483
H          116.16737609011361      104.82615603367098      111.14233637021782
H          114.47783779822718      104.37057000713740      111.33849095641767
C          114.93922895801100      107.00767468818187      112.10646937369503
H          114.36808503363031      105.47957199243217      113.51540561013675
H          116.09786138959035      105.82055689826940      113.48246668373083
C          114.81708555509483      108.22799840763426      113.01759225574308
H          115.75525206930071      107.18615513770713      111.40142464936480
H          114.01871934625871      106.89562039961973      111.53079792580542
C          114.93447810746208      109.52132118600812      112.21374559226487
N          114.57432003467484      110.66279924090129      113.02492502005785
H          115.95962075109261      109.63121594350694      111.83700754424677
H          114.25445074778260      109.49540577513133      111.35826104910971
C          114.14841942791971      111.82999515028631      112.53611792757725
H          114.70623892575601      110.57258253480737      114.02696438335164
O          118.04283964620700      101.45753702282948      112.40580775365525
C          113.72049718835611      112.82336747921822      113.59424910661782
C          114.43307570897329      114.16764828779803      113.45413829712932
H          112.64419608159189      112.95648383011257      113.45857953324139
H          113.89501548302330      112.40281698869241      114.58312244593836
C          115.90109583036990      114.12222807962031      113.88024516531483
H          114.35771802496605      114.49205124972647      112.41568467280956
H          113.92078967585266      114.90642591811638      114.07561982107775
C          116.81307531877130      113.40265131246630      112.88290442396732
H          116.25919267105296      115.14954065145710      113.99501520759038
H          115.98288888017599      113.64402632132493      114.85805176450147
C          118.25730056192631      113.81920139541067      113.05045797137198
H          116.76470643719736      112.32188958427535      113.02976226572613
H          116.50235943431673      113.60505112808899      111.85778871317842
N          119.00629874814973      113.71326047099271      111.94455389676774
C          120.40313209344772      114.08502298803644      111.93220815644543
H          118.56447620735985      113.42643126601558      111.07771917371710
H          113.85635888534607      108.21015787101288      113.53602062451267
H          115.60970866965671      108.20785070251529      113.76793786995376
O          114.07600114722383      112.07869500134244      111.33376924838764
O          118.72080956785481      114.23019473099249      114.11270671981167
C          121.26978751978415      113.11779432761833      111.13145433418374
H          120.51406406663554      115.09821735858981      111.52407174678706
H          120.72820050899281      114.10490459388021      112.97603521781825
C          121.13149674877820      111.68248272086214      111.62866432840758
H          120.98486058105968      113.17357041099905      110.07894281070458
H          122.31045566384665      113.44035212238782      111.21545629500564
C          122.14524536005489      110.73197512362543      110.99438912978181
H          121.27983673105501      111.67100745855745      112.71020529804642
H          120.12106703899630      111.31961666326957      111.43170324104150
C          121.78182227227086      109.28368655435268      111.32047330657755
H          122.16878310699758      110.87303167539027      109.91352712389676
H          123.14206884266616      110.96499179728892      111.37903592444313
C          122.90651706814184      108.29885633228523      111.03282460886503
H          121.53266859837042      109.21711077524719      112.38122181916042
H          120.88667739071644      109.00024472311141      110.76599625591955
N          123.11019947608031      108.08149383088869      109.61698122264630
H          123.83678277848988      108.66603697039349      111.48305761287124
H          122.68646894408427      107.32258938551684      111.47515914908426
C          123.67538046733812      106.96078215196434      109.16094755621133
H          123.00136492711070      108.86994730511869      108.98813025603067
C          123.86864734983003      106.92120969671714      107.65907340187302
C          122.56068931270354      106.60266183505010      106.92337986457342
H          124.22834005448064      107.89756113931981      107.33302743866933
H          124.62051041067602      106.16628049653639      107.43379504644180
C          121.86707056178263      105.33660542203748      107.41869753950721
H          121.87629486088247      107.44566197857810      107.03629520316406
H          122.77659794757061      106.49404730666151      105.85858293880098
C          122.75746614937631      104.09723324440218      107.36868749971057
H          121.53145746627112      105.48280164074417      108.44636697333064
H          120.98100414501044      105.15565916803389      106.80729232480395
C          121.97425379767481      102.85064132122677      107.72779384658027
H          123.15599132816061      103.96219928074119      106.35845108046105
H          123.59423683401972      104.19366871423382      108.05710302070473
N          122.69269082148655      101.86348234575011      108.27466846715261
C          122.04538614888230      100.63341565310721      108.69132850052304
H          123.68924217179460      101.97635012277964      108.41633925167970
O          124.00711110903374      106.03380149771866      109.89712840240453
C          123.02592402061543       99.50662670079166      108.98255396254825
H          121.42689045605283      100.83792318637069      109.57189567192189
H          121.36534503201518      100.32602207345923      107.88814052486532
C          123.86635176122539       99.68171475765203      110.25081658825994
H          122.45168119769130       98.58218181557193      109.05664989903448
H          123.70468355201703       99.40465655695390      108.13302775260598
C          123.07834478554976       99.87946844418255      111.55162098916323
H          124.48884393065754       98.78972069647044      110.35049755913930
H          124.53930532471111      100.53228016911366      110.12247044019121
C          121.92159381526857       98.89452661820538      111.74782570943307
H          123.77886454265541       99.77596005173389      112.38347142124178
H          122.68668718470823      100.89610034000354      111.58581583413392
C          121.50011372324877       98.76066758526659      113.21515008308130
H          121.06351701931776       99.21956559890118      111.15871200456718
H          122.21241694776636       97.90316879428538      111.39780435613501
N          121.44386784499450      100.04298982819162      113.88161664158986
H          120.52542065074218       98.26632937780079      113.27912693637275
H          122.23022025204752       98.16416805188378      113.76800834480962
O          120.76866368276870      102.74467572735126      107.52719848014465
C          121.98053632747782      100.23975195514451      115.09009050787169
H          120.92207098821969      100.77403486662669      113.42466887117644
C          122.01082893770537      101.65637327899270      115.60941027902408
C          120.64751870232577      102.33972926551220      115.68672973729240
H          122.44156701285802      101.61440543514814      116.60875608377600
H          122.69721240339533      102.23799930742317      114.98880734599456
C          120.81326330977893      103.78462331001619      116.15018804370395
H          120.14320917687263      102.32814077314029      114.71849541356305
H          120.02384256098320      101.79185737529173      116.39422401196921
C          119.47032119018861      104.48267911832916      116.37411764632519
H          121.38919838698391      103.80332108462711      117.07589970741627
H          121.38601461006890      104.33269329862367      115.39975241703537
C          119.68524951177046      105.94656945116168      116.72007678640969
H          118.86249894470015      104.42495120413078      115.46915179040741
H          118.92624266237969      103.99224921558371      117.18031411306639
N          120.27006321178541      106.17207868296310      117.89483095590847
O          122.48476907660984       99.31878221138534      115.73270485441118
C          120.68047852221497      107.48387687059494      118.35411778199682
H          120.57830832141873      105.39938461551591      118.48278615186264
C          120.47755112149770      107.61399304860163      119.86192516047777
H          121.74040097554470      107.62781781289317      118.12005501368704
H          120.10244559684733      108.22534964113738      117.79971820104335
C          119.03835154150048      107.93942803488953      120.25989717730857
H          120.78649105252481      106.67445178116874      120.32269342009056
H          121.13351121034094      108.40153498547730      120.23312446394196
C          118.70016780481437      109.41264604670650      120.03889072154332
H          118.35584116326021      107.32174870184649      119.67346938103492
H          118.88861103818138      107.68587293651144      121.31065627738883
C          117.34727143590034      109.79091375870506      120.63305431831404
H          119.47369535137399      110.03776164587197      120.48732722239428
H          118.69377027484344      109.63188491898691      118.96959961675849
C          116.87731213969445      111.15380569608209      120.13233137750508
H          116.59653824695030      109.04465042120049      120.36668540573990
H          117.42339437469900      109.80890461254937      121.72177501914079
N          115.60323923957999      111.49950818940282      120.72525632327145
H          117.59387056571583      111.93964032657338      120.38312086049862
H          116.78181210518549      111.12326630561547      119.04003399866882
C          115.33590773976050      112.69187743523723      121.27287111713377
H          114.90423877991218      110.76430829623450      120.69846513455761
O          119.34673701251455      106.84302303959743      115.94943008300703
C          113.96516613257215      112.84922433335680      121.88798514084667
C          114.11096498479368      113.04165777167216      123.40138982199568
H          113.49562775121716      113.73844176164695      121.46202400098956
H          113.34738108259737      111.97635366646382      121.67829483593620
C          112.76818317579233      113.10868887110085      124.12501131554480
H          114.70008127445531      112.21693308969559      123.81294077061209
H          114.66189824405897      113.96483398522642      123.58374707755767
C          112.00631244569931      114.40433400931056      123.83918314504005
H          112.14686903182680      112.25783889738696      123.83468401426607
H          112.94812003104907      113.04689308468542      125.20057132064986
C          110.66347913663110      114.35616857544485      124.54568143663759
H          112.58841233752818      115.25145636440232      124.20048767010168
H          111.83251247222262      114.52328771769736      122.77031016011111
N          110.71431274423463      114.76400855720938      125.82834162683920
C          109.56201353327872      114.81670022927020      126.69770980261107
H          111.61830714964114      114.95142145177158      126.24529255474044
O          116.16276234793231      113.59775214459742      121.30199079972948
C          109.40761399585817      116.20707776395089      127.32104181864599
H          108.69180408796213      114.55195434018118      126.09305187268492
H          109.66605855715494      114.07118321785859      127.49650300634991
C          108.20348403855276      116.30933517939964      128.26003628650093
H          110.31570882788364      116.42486709907023      127.88589740827059
H          109.32814659363862      116.95172011410342      126.52902075966516
C          106.87833892612116      116.64473653915331      127.57011892564171
H          108.08852472755999      115.35914905267433      128.78502720609711
H          108.41145490167041      117.06654215011446      129.01792817512717
C          106.73218119150977      118.12313338586172      127.20295352153035
H          106.76874015327711      116.03447990006038      126.67332047946699
H          106.06860246775562      116.37415288084316      128.25010372564137
C          105.29444060886797      118.45386815422870      126.79763010772616
H          107.01244459286951      118.74703325925273      128.05480687401436
H          107.39609178009195      118.37644317526519      126.37519720095275
N          105.16941871952368      119.81931098299941      126.34424781139158
H          104.97862180742203      117.77427072424150      125.99760048578197
H          104.61580062875342      118.32421775790397      127.64463247164767
C          104.23713055852092      120.67276353278780      126.77046777844745
H          105.80578945037833      120.11875688564569      125.60669889201797
O          109.64552112969051      113.96616886118800      124.00213879170825
C          104.33795284162466      122.05897497429112      126.16087627171970
C          103.25249560642374      122.25830982360357      125.09539987268332
H          104.20940829673013      122.80064009637930      126.94957186836304
H          105.32092369686058      122.17895493255688      125.70883014927595
C          101.86769073202349      122.45493588009667      125.71009873204079
H          103.50230960505480      123.11831461524014      124.47291926446555
H          103.23643468037677      121.38400467227342      124.44314635646357
C          100.76577906650176      122.32305675262819      124.66354002729513
H          101.71984055353128      121.73936920297588      126.52196245146320
H          101.80620750443801      123.45495282792470      126.14734106052481
C          100.68089529076326      120.98676119930902      123.94940173007262
H           99.78808923457052      122.49010807060118      125.12538823743455
H          100.89425059097569      123.08747486291783      123.89396009271381
N          101.03680583098394      119.89623826293865      124.64040285591125
O          103.35724343194856      120.36379497980005      127.57543588671044
C          100.84080484501966      118.55654417438053      124.12447538033925
H          101.40803538996977      119.97908202944761      125.57291597573878
C          100.52612606780838      117.57464594773171      125.24803308850454
H          100.01023704850724      118.60833269088261      123.41595830155644
H          101.72764708721071      118.21213433251130      123.58015873066891
C          101.77625018099151      117.19360649057704      126.03981486554720
H           99.76787348096624      118.00065145198688      125.90912382779857
H          100.11033986696351      116.67200812402108      124.79743726718941
C          101.47611112151611      116.13471623896979      127.10025217048749
H          102.50538838597176      116.80616361120504      125.32862469982781
H          102.20540014051362      118.07306571449931      126.52355901031765
C          102.73133629463977      115.56339440607057      127.76274573326721
H          100.83642418343970      116.57315586835250      127.86960431890611
H          100.91994270382439      115.31494338009797      126.63873087333072
C          103.58820097985641      114.78512530292811      126.77304915579026
H          103.32064218265295      116.37207178715555      128.19748603162111
H          102.43273843207389      114.89307344284758      128.57191094409518
N          104.63109404750216      114.03212178003459      127.43749622595774
H          102.96516324317622      114.07991089398993      126.21071600265934
H          104.04595875042429      115.46492350063475      126.04935855145403
C          105.38142336288418      113.15029774229684      126.76665746763916
H          104.83909191681202      114.24348640758892      128.40654349168761
O          100.26980748501643      120.91625576008005      122.79827426329004
C          106.36860269948902      112.39424814537614      127.64133745315242
C          105.59904953632518      111.38016291655340      128.49215481469793
H          107.09995364461652      111.89519968224380      127.00708752535013
H          106.87820312432073      113.10520783122354      128.29233275827306
C          106.49388328639176      110.52431617888284      129.39077622299652
H          104.90425267575952      111.92889565626206      129.13086115709547
H          105.01254299734337      110.73054823096598      127.83868215219485
C          107.32826376634937      109.48146575440947      128.62213530494893
H          107.14848118424953      111.18947588283109      129.95712136828465
H          105.85195125072667      110.00839764601412      130.10775394768854
C          108.80359096426079      109.82356903082496      128.53341863803894
H          107.24901738392531      108.50699688057544      129.11043520294405
H          106.94572130484846      109.37417419007730      127.60664180879053
N          109.40910485361462      109.99918573726956      129.71794344612383
C          110.79073320863074      110.41811832008260      129.84512315065047
H          108.89712871402739      109.82785503763309      130.56748133336717
O          105.24784624435659      112.94484530976442      125.56726909816928
C          111.11358859100091      110.85742940411666      131.27092872428636
H          111.45420800358404      109.59162582309136      129.56243704617245
H          110.96335296459692      111.22848551464230      129.13169806052753
C          110.16128547088901      111.90925304407726      131.84729277489774
H          111.09515081559761      109.98046197014213      131.92311840069456
H          112.13294182157496      111.24640127390863      131.27577144336092
C          110.11356622176436      113.20768826125969      131.04352038188949
H          109.15458395900430      111.49391141108826      131.91713115967255
H          110.48560942487595      112.13393713545027      132.86611126119243
C          109.21892004777072      114.26507621888886      131.69285672221034
H          111.12708836024063      113.60393952843842      130.94867332139248
H          109.74480706280696      113.00635746643643      130.03629026477674
C          107.74552962750414      113.85252626440034      131.69397209591750
H          109.53851230653908      114.44314704244609      132.72184270533975
H          109.32016868173542      115.20665529649418      131.15018746216893
N          106.87394639808741      114.97785014420106      131.92745530058659
H          107.46316720770615      113.44338351079985      130.71960040092512
H          107.56191517119893      113.08932511690593      132.45980444623115
C          105.86562807883861      115.29428922237578      131.10630412201920
H          107.07534398991875      115.57268037632618      132.72064882698734
O          109.40577085209721      109.91172912848631      127.47486465314002
C          105.14193722559514      116.57069867152313      131.47590605617117
C          106.04611282645354      117.78159230131821      131.22497492922182
H          104.23222561680409      116.63856958484941      130.87887985822513
H          104.87008904229582      116.53583058009636      132.53202975446516
C          105.39640023196770      119.09721999538819      131.64529498744821
H          106.97218478269698      117.64367411396755      131.78498419969830
H          106.29672109380067      117.82361188605250      130.16453853729288
C          104.32511098328825      119.57196930768842      130.67040217190558
H          104.94986390075042      118.99427029842143      132.63523060523863
H          106.16159887120835      119.87185750047996      131.71744133196913
C          103.64150884557255      120.83481517803531      131.17417778547454
H          104.75395016492361      119.76745037044091      129.68661027772052
H          103.54994941972210      118.81232858880826      130.54942684108173
N          102.84011072569828      121.40640749325178      130.25653799681626
O          105.56125699015308      114.61164734096215      130.13432704853358
C          102.07481587057130      122.59631984647054      130.54036447082063
H          102.83080476084263      121.04441657307440      129.30792435607742
C          102.37798990839686      123.72562341449043      129.55779898187546
H          101.00366082481237      122.36121742089274      130.50435534107973
H          102.33312693741071      122.89420736508482      131.56010400975654
C          103.85375272866975      124.11568851136705      129.56252800289485
H          102.09173003687899      123.40658025481623      128.55378957944566
H          101.76703462693855      124.59060318582897      129.82336990301786
C          104.12155017477808      125.30498692219653      128.64246709981305
H          104.15960207724029      124.36398257417882      130.58063976870920
H          104.45171415161354      123.25996480132493      129.24213367129803
C          105.61247166389265      125.53511467808583      128.41230152122185
H          103.63515689352710      125.13842863615737      127.67798713801417
H          103.67790004230825      126.20311142904538      129.07878907207359
C          105.86708706750488      126.83886511013283      127.65979256133218
H          106.12855379382692      125.56419908178120      129.37434179447268
H          106.02640830192978      124.70515728630087      127.83554073975999
N          107.25049077099857      126.90334622322140      127.19746783433412
H          105.22248269263299      126.88374367889783      126.77848319863729
H          105.59707547858908      127.68523399826883      128.31173642322636
H          107.42267310681095      127.80940433597121      126.76385198470007
H          107.87250867198235      126.83111227283177      127.99768759009386
O          103.78316673002720      121.26416778424164      132.30470085835799
C          101.66314187923322      127.38162423369947      116.30024223135673
C          102.66426264496288      126.25746924101878      116.44591657719270
C          102.01710074626948      128.52671562024682      117.25568378721671
C          101.84374560015286      128.12619930539390      118.71807224231550
H          103.05370118876978      128.82319962646142      117.07729899084109
H          101.37985471957394      129.38547757537327      117.03365858046863
C          102.33786075866890      129.22448707774242      119.65219600827378
H          100.79400064939441      127.92127871848183      118.93212857872055
H          102.39956727849297      127.20960773794150      118.91840537717265
C          102.13177504970781      128.87337350651359      121.11994240756530
H          103.39285808316424      129.43673543809447      119.47720930430022
H          101.77664907295498      130.14439546838562      119.46401794467040
N          103.03954258853715      129.46137889703166      121.92182217787681
O          103.82223596299630      126.52427917424326      115.88044111244743
O          102.43107211455147      125.22418675732816      117.03165076816940
H          104.45856247032941      125.73134768968228      115.95943671501870
H          100.66822078678216      126.99881745902499      116.52645852407080
H          101.69485792403424      127.73952881927123      115.27014258634283
C          103.03395666291370      129.36630925773594      123.36078832949396
H          103.81626805693391      129.95335769347125      121.49910820332644
C          104.33812474508110      128.75972783348394      123.88330900610323
H          102.89574004961551      130.37072899499066      123.78184196571225
H          102.17841846728727      128.74715060781637      123.64048157781157
C          104.36006419687065      127.23800712695660      123.76010065703119
H          105.16802402711780      129.18645785184879      123.31545600619613
H          104.46864480220550      129.03989908773264      124.93157615624330
C          105.77020862543874      126.66698286559998      123.90653621976882
H          103.70937879380801      126.81112858192181      124.52650457577005
H          103.95119428474131      126.94298372843828      122.79340729320512
C          105.72830305853506      125.16324113337926      124.17050212666099
H          106.32781774578912      126.85946974095867      122.98861774927487
H          106.29428114095687      127.17333219176703      124.71851985625884
C          107.09490338700118      124.50328877141172      124.07695496154598
H          105.31046365274901      124.97863828782882      125.16150651736933
H          105.07141884899497      124.69493488387927      123.43519630344549
N          108.01609588122786      125.00213015336402      125.07757361883246
H          106.98809116232675      123.41862483095591      124.19892259011503
H          107.54028094870588      124.68231925269876      123.09395271804307