3795
 energy: -5103.049730368473 gnorm: 0.000916238238 xtb: 6.6.1 (8d0f1dd)
C          129.04766294680161      121.48116143841011      130.32633389998995
C          128.33713951853616      122.69202491801353      129.78565495886687
C          129.02562152227947      120.38175924373770      129.25588639649422
C          129.67264804952239      119.09444267456024      129.75796907040504
H          127.98945318980616      120.18819602865608      128.97211367892999
H          129.55321848339213      120.73538286471035      128.36944916413898
C          129.47633113128509      117.95637300239751      128.75735834051474
H          130.73961042661600      119.25771588989628      129.92116340800285
H          129.23166026557035      118.80232856965748      130.71198895358924
C          130.00493545883324      116.64397024970867      129.30407790813189
H          128.40517472179212      117.82665182375148      128.58304886711747
H          129.96605603678898      118.18394980070791      127.81210540642608
N          130.85597880395923      116.00889753180196      128.48965761278146
O          129.11014602810891      123.47178441570587      129.07421265413475
O          127.15160098268770      122.90744726798943      129.96770248676896
H          128.61352040429719      124.24213083524660      128.66262798785095
H          128.53493888437731      121.13667496476189      131.22463647411826
H          130.07738839357822      121.74574863795817      130.56497578901016
C          131.51940162499463      114.77877235119138      128.85558774310445
H          131.12526635402980      116.45023153920360      127.61714332189520
C          131.47653027256976      113.74206984370662      127.73390373538652
H          132.56605510331391      114.99095732572958      129.10826573914142
H          131.02388297920584      114.39899251745337      129.75247264242245
C          132.24582426339003      112.48447877040448      128.13780442693923
H          130.43813823573925      113.49630992863416      127.50606324532411
H          131.93546044566588      114.17966789026381      126.84340655785668
C          132.54370503438028      111.53017870797754      126.98078559422112
H          133.19856160691526      112.79442040927044      128.57411295521817
H          131.69026082405563      111.95148126827898      128.91115191811653
C          131.32929742270545      110.76058141493583      126.46531167316616
H          133.00134373614580      112.08753404462379      126.15927301414054
H          133.28295963479263      110.80383212165306      127.32546654024003
C          131.75805085085670      109.73196129555276      125.42594283091429
H          130.84340044732082      110.24167417947696      127.29324624891875
H          130.59855667901346      111.43716846308700      126.02244291187110
N          130.66599283587550      108.85990323371851      125.04822474302587
H          132.12342376725599      110.21931973441863      124.51603181333682
H          132.58514023763854      109.12947681088460      125.82670536968409
C          130.78598402945113      108.04760606347784      123.97742592015777
H          129.93059028891702      108.73529527423337      125.73358307680655
O          129.65774016089071      116.20117362903581      130.39203976059241
C          129.65657214086616      107.04745075478628      123.79632087422250
C          129.65363124872141      105.99724458255029      124.90789598205693
H          128.70244089806090      107.57194762627142      123.79394551940072
H          129.79297583591983      106.56131580555477      122.83107646199757
C          128.42072774546105      105.09362121214582      124.86745509752735
H          130.55720381528866      105.38870523231989      124.82522355032857
H          129.67476202263688      106.49378759042270      125.88080719751621
C          128.28503869455008      104.28277780953783      123.57250776816245
H          128.49725480656343      104.39166512362063      125.70100996569593
H          127.52537273075258      105.69343069752719      125.03096105575527
C          127.58343099449384      104.98303514073442      122.42080041549923
H          129.27027329475098      103.96877481135483      123.22379617435020
H          127.69816113160310      103.38485934243181      123.78325647202895
N          126.33887625698075      105.39284828617855      122.68579591698432
C          125.46083304007527      105.96584594902187      121.68582695794937
H          125.94969117395091      105.27667426495437      123.61382153190930
O          131.72744508093226      108.12648130552073      123.20836556811444
C          124.31811643786469      106.71322524626314      122.36021540003935
H          126.04874178779967      106.63496774297521      121.04945799552831
H          125.06443755135068      105.16438464588843      121.05064461168756
C          123.28915176181619      107.27617699708107      121.37842092908714
H          123.82715432047168      106.03334431464062      123.05563249556508
H          124.74183162036904      107.52695621888759      122.94926974165915
C          122.37643445016980      106.23021355007660      120.73570749431268
H          122.65775499719844      107.99277300213497      121.90866422615274
H          123.80548213769205      107.82161992061916      120.58529147175443
C          121.52677281270121      105.47693795091639      121.75954766097497
H          121.71901261493521      106.75140888996950      120.03750064759393
H          122.97055754075963      105.51709631971339      120.16089692962265
C          120.42970806468593      104.64406969483674      121.10845685907402
N          119.40210891119521      105.49781627945342      120.55268107235077
H          120.83257291770668      104.02899991597948      120.29977693174543
H          119.98788443524529      103.97210393262289      121.85311730779964
C          118.56277257708270      105.09977877326483      119.59583587853494
H          119.29551104156765      106.41300028941559      120.98262570463930
O          128.09723207711255      105.09883121669687      121.31228266092765
C          117.58267106426460      106.16081615758279      119.13049087064965
C          117.76756648006872      106.43026930012330      117.63307341640642
H          116.56682019643907      105.80132609880739      119.30851371506961
H          117.73838013934150      107.06905289375671      119.71161981657521
C          119.22036837118473      106.74611704630264      117.28508032192352
H          117.45557833956921      105.54624850247635      117.07487276801132
H          117.11894971176098      107.25516266759647      117.32953203159343
C          119.44607014440251      106.77987893299665      115.77107271792438
H          119.53293112301108      107.69523088452370      117.72491593691679
H          119.85804305065430      105.96404242405198      117.70165943576293
C          118.86593971296317      108.01958578677431      115.13705540197580
H          120.51698852677788      106.78882082335033      115.57784766599444
H          119.01564824972696      105.89457249443993      115.30644436826751
N          117.72103751309314      107.83617483111884      114.47568777084960
C          117.06413536646683      108.88877456809080      113.72924513392798
H          117.35805515976058      106.89932603419025      114.37911192494519
H          122.15563541595894      104.80770451911182      122.34851344083755
H          121.05769908667354      106.19244910737405      122.43841296346453
O          118.58889899337382      103.96960692864066      119.11090040982897
O          119.39555730493501      109.12571692425730      115.24089676676967
C          115.78005551387295      108.37071532179499      113.09921978679938
H          116.84621845519975      109.72450179442353      114.40570809341071
H          117.74425170408337      109.26018227174529      112.95347047285800
C          114.75813150534400      107.98828907851914      114.16617055751367
H          115.36390137997515      109.14100770437321      112.44654312271400
H          116.02171612473106      107.50046074922008      112.48868704805516
C          113.41416115301715      107.56181942776982      113.58610268061058
H          115.15782372554069      107.17061440418014      114.76436942362237
H          114.60375634229140      108.84305977155284      114.82643195865052
C          113.53389382761779      106.31745859910434      112.71436342750151
H          112.72838201226462      107.35065903633605      114.40774890947236
H          112.98333988484742      108.37592973109017      112.99937717401949
C          112.17117646077843      105.71269128397303      112.40348223107380
H          114.01496463872489      106.57279849850059      111.77165072184003
H          114.15498136976336      105.57655520591317      113.21720597007877
N          112.29616618871273      104.72899166996912      111.35021626313906
H          111.74840127270484      105.21317650922337      113.27967946269506
H          111.47586088950838      106.50739645219355      112.10504543433103
C          111.55305910550489      103.62212431046810      111.29920817124933
H          112.98219401790006      104.93701835939393      110.62686726599325
C          111.88637317649679      102.66628026600502      110.17678901903400
C          112.56908750313598      101.42737125702533      110.76304490469141
H          110.95748115390707      102.37095235218503      109.68815650775680
H          112.53356056264805      103.14849776947264      109.44573529590822
C          112.81827964626260      100.36077410312660      109.70162390600140
H          113.51794069744538      101.72128671891245      111.21980256944184
H          111.93320238530309      101.01116899952503      111.54638615649063
C          113.56447980048462       99.15788313810872      110.27581693287888
H          111.86131838349932      100.02483758676297      109.30054697364659
H          113.39834787568712      100.78807886149339      108.87997232124842
C          112.78963152383956       98.46734567343579      111.38592486261206
H          113.72144890839009       98.41826844669870      109.48603776722311
H          114.53850591310886       99.45770396147303      110.66093442535343
N          113.54846187463069       98.10930236826557      112.42943487009849
C          113.04416836538509       97.32897092147182      113.53153185299887
H          114.55487301540916       98.23839920860074      112.38907538699523
O          110.68447056221848      103.37404507889930      112.13218093164548
C          113.41072693788902       97.92098933453602      114.89201429991999
H          111.95935274624605       97.28546241135396      113.41140758189842
H          113.44724051693073       96.30961469641247      113.46740263461156
C          112.75130362051122       99.27546919552586      115.17444920715461
H          113.09367225950733       97.20788086870915      115.65596019967396
H          114.49547603718253       98.01276853058418      114.95933957111696
C          112.54482759432757       99.46971420805953      116.67729697962348
H          113.36603664782061      100.07869676291799      114.76623048163914
H          111.78506862600376       99.31863011850086      114.66855408921657
C          111.79848747701071      100.75289324209317      117.04782784411906
H          111.96411390998168       98.62462086505354      117.05541450763079
H          113.51159042746876       99.44968246627984      117.18515792691937
C          111.41680513585808      100.69857152841936      118.52718162426414
H          112.42140752354054      101.62872870668092      116.85405848070906
H          110.89645615355721      100.84319808893791      116.43974734039378
N          110.54555288026926      101.77078577427623      118.96173593627559
H          110.91709604823787       99.74319945498796      118.72350862517499
H          112.31767939272382      100.75910305788990      119.13966689296193
O          111.58541846516322       98.25169040743064      111.32519127493487
C          110.80528051623676      102.53311916253755      120.03953330198063
H          109.61662524431613      101.79572569133892      118.56828403326523
C          109.64636928815436      103.38879981963170      120.51878027125150
C          109.52324103502333      103.22609287962483      122.03706977673055
H          109.85693410302304      104.43396695116665      120.27741073912220
H          108.71782903188421      103.11117522321059      120.02112304658509
C          108.26660905666162      103.86969430885827      122.60965824194599
H          109.51900867568101      102.16119228412657      122.28362175656315
H          110.40072579964877      103.67214935056995      122.50717276363680
C          108.28798525676926      103.82343780878367      124.14464298142434
H          108.21145898351917      104.90729480099670      122.28244220640092
H          107.38550828086476      103.35028837011275      122.22643005734425
C          107.13166973550324      104.63088449644206      124.69518147276587
H          108.22649522413793      102.78851905038850      124.48459299483000
H          109.22328573309269      104.25423592923730      124.50517922633453
N          105.96251173897669      103.96840313109924      124.71486530226986
O          111.88677557990769      102.52693422156021      120.61152268267770
C          104.68969397222790      104.59965889311977      124.98565473346946
H          105.93082299742949      103.03723134180929      124.33079794758413
C          103.89108631758943      104.83539798664725      123.70149330104631
H          104.12200386140934      103.96930788175131      125.67651937780165
H          104.91160892026529      105.55329413278513      125.46845615527147
C          103.48737295749247      103.52373697150529      123.02989170799859
H          103.00221212820452      105.42075645229757      123.94327686195827
H          104.50920002585100      105.42637410633237      123.02476157215720
C          102.62193845170933      103.72099387549127      121.78597686565911
H          104.37323085827657      102.95667238719061      122.74170563542405
H          102.92617945287206      102.91596037330737      123.74358854994034
C          103.26803288604810      104.58173168397501      120.69893568653762
H          102.40552103687182      102.73475505973173      121.37175873854625
H          101.67333280399593      104.17940004190125      122.07350596448033
C          104.66676459689604      104.11295953116748      120.31413213569601
H          102.63314940889396      104.54460178796653      119.81097101016327
H          103.31236211942438      105.62351672980635      121.02211257202978
N          105.07669813344204      104.72900665680646      119.06857917294418
H          105.39070943620382      104.38161677781503      121.09269543552097
H          104.69704587434087      103.02572886125297      120.20228490592778
C          106.19349513423768      104.38465872379587      118.41719288332145
H          104.52078526820711      105.49716932876180      118.71369918678771
O          107.24326519290643      105.78879650702908      125.07210351742214
C          106.45273990018586      105.22464617238646      117.18099753378677
C          107.94200817584306      105.34178122311233      116.86942696665504
H          105.92782581231158      104.77263487030766      116.33639705625497
H          106.02442737491953      106.21311993508081      117.34220161763693
C          108.23481872894712      106.55885718149983      115.99859298359674
H          108.50092064639986      105.43808560541608      117.80231559831336
H          108.28537813088231      104.43706969620369      116.36895848741069
C          109.69505217081677      106.53956973015741      115.53170248640133
H          107.56624701913090      106.57394122343909      115.13860494667229
H          108.04979838073095      107.45594336258529      116.59214345729113
C          110.21273199823841      107.92256107124140      115.19972805037247
H          110.30606997340109      106.12381337432109      116.33409442617796
H          109.78604224584788      105.91092555585534      114.64515120935323
N          110.82130432944550      108.53806535433417      116.22530627271549
C          111.58095736722322      109.76525101882194      116.07921560367816
H          110.66314018900007      108.18733181733923      117.16658462127948
O          106.93826638671491      103.48726962633705      118.79187906125128
C          112.66495002120672      109.81370948484130      117.15372792971645
H          112.02451738179406      109.75114695016832      115.07988017425255
H          110.93134467217646      110.64349392141723      116.14693899593746
C          113.80283437636653      110.79116125703895      116.85831527954410
H          112.20619908800695      110.05454656463435      118.11228610428194
H          113.10002862734471      108.81544160541776      117.23884167444378
C          113.40224506177520      112.25585669861540      116.69303511233602
H          114.52707514047877      110.71244990257426      117.67125187132733
H          114.30630718416748      110.47678884485732      115.94200510864250
C          112.89188456674349      112.89123031899506      117.98070315178727
H          114.28403002214563      112.81232941109108      116.36484619004376
H          112.64057488214394      112.34488492552327      115.91766811867673
C          112.51893399555401      114.35286595318945      117.76249188785317
H          112.00811251567580      112.36330333490859      118.34037939003008
H          113.66227653795029      112.82661677494065      118.75179999148418
N          111.81495321717533      114.88015060603821      118.91094860811860
H          113.40562225038711      114.96924189520038      117.59291210798784
H          111.87362910103678      114.43337767926575      116.87771964610896
C          112.03199694170627      116.09524490910249      119.41459154172665
H          111.23222944045118      114.21828196376731      119.41650047889497
O          110.11420803548536      108.43157316922670      114.08835074932865
C          111.11292943017901      116.47456013370106      120.55833306057720
C          110.20531050213550      117.62386923665645      120.10737476855361
H          110.51567779901136      115.61115941989867      120.84740577686061
H          111.70998239742686      116.78132108004729      121.41654282007084
C          109.10531024394689      117.92636550310952      121.12056618381534
H          110.80880371904989      118.51674468827562      119.94142925628849
H          109.74544626566788      117.35953330621798      119.15277658154237
C          108.14277993647192      119.00153420584036      120.60879549298144
H          108.53969977868037      117.01253165272689      121.31679174059634
H          109.54092113704699      118.25903968535296      122.06466488783140
C          108.83367518520376      120.34449500153177      120.46295522468121
H          107.72194679271310      118.70456925882726      119.64846057306147
H          107.33130918022455      119.12612834066262      121.32808941648685
N          108.99916247447625      120.75670384294803      119.20438596128821
O          112.86019472497345      116.87533184442731      118.94723337926496
C          109.50862252067691      122.06375463720184      118.84179269756916
H          108.64035279432332      120.18504533822436      118.44531988587464
C          110.16704440746706      122.01619247530680      117.46851887973094
H          108.68273555842744      122.78564402943745      118.83285763806933
H          110.22110932077929      122.37955459433242      119.60810603788703
C          110.38392866777423      123.40418972276707      116.87228300826148
H          111.12728331898668      121.50337739515471      117.53045238852511
H          109.51803006952852      121.44296176376626      116.80275044518187
C          110.99439283373977      123.28837739466066      115.47586033222295
H          109.42641297259534      123.92655459900496      116.82114186588883
H          111.04175792905136      123.98142782711264      117.52201400197521
C          110.94206459553759      124.57809534458090      114.65807535770327
H          112.02631040861228      122.94462741133432      115.56376272027569
H          110.44040339998696      122.52471641348123      114.92205046504004
C          111.92487207738304      125.65981575071569      115.08898486427873
H          111.15588631122364      124.33493719103859      113.61491452999235
H          109.93327065723281      124.98944770121508      114.69590044360088
N          111.50413622775677      126.34436229330734      116.29530689784710
H          112.91562452544312      125.23448862939682      115.27987653188086
H          112.03045288463321      126.37984365263704      114.26669390007507
C          112.34410758550987      127.10836938613119      116.99480426551614
H          110.51955592481124      126.30841227834186      116.56506709519563
O          109.21845678262811      120.98787950305460      121.43599690519162
C          111.81211622173849      127.63463883682293      118.30790883198731
C          111.64217510468289      129.15741287392652      118.31066429378681
H          110.86205193355488      127.15803606396473      118.53384695582810
H          112.54410650210184      127.36220478834210      119.06922856132628
C          110.32202180039562      129.58436370882927      117.67905545077571
H          111.67067949195615      129.51086092275918      119.34364205854128
H          112.47628868138013      129.61694871224674      117.77700157072542
C          110.05902221852519      131.07804671820838      117.88807815308407
H          110.31848560136774      129.35730607355509      116.61279753729282
H          109.50707262451957      129.01033689141758      118.12344564604996
C          108.67210974694382      131.42148798022887      117.38483077182016
H          110.13845559267916      131.32583955040565      118.94488805167094
H          110.79881186009750      131.66146578045655      117.33561792073604
N          107.81880959075527      131.84265994763771      118.31754311552051
C          106.42093974867599      132.10597404714395      118.06023951437875
H          108.11183005811685      131.93247994355221      119.28843080393013
O          113.49518444773912      127.34732016067549      116.62634187519987
C          105.57823579180358      131.71375405283811      119.27108392762268
H          106.27737075692589      133.17431352745513      117.85035730794083
H          106.12905018536446      131.54341935846506      117.16902243765213
C          105.70576909664346      130.23779816300092      119.64870886338311
H          105.91132554770168      132.31464575964372      120.11931014182839
H          104.53372436908573      131.95747952557863      119.06818762762381
C          105.02157170787117      129.28501403619811      118.67067673519765
H          106.76361878937833      129.98858102517218      119.73078519236186
H          105.25945035181422      130.09969532479664      120.63599408782879
C          105.17875274046220      127.82377821662733      119.10133869878071
H          103.95985832898326      129.53636425409303      118.61963899541651
H          105.43971129675076      129.40660930932719      117.67025870925896
C          106.52275500569587      127.23040331564337      118.70098235788254
H          105.06904430984935      127.75002584527047      120.18404232297101
H          104.39502628813557      127.21352225250691      118.65162658988146
N          106.57390889340937      127.04079191987202      117.26386208848007
H          107.34301597720132      127.89568993542933      118.98234541984566
H          106.67751847726868      126.26862108666569      119.20360947870618
C          107.68961929110371      126.74941861492837      116.60197473055274
H          105.68510703609157      126.94098467782297      116.78988876427938
O          108.36469000350930      131.28959188669728      116.20219228435838
C          107.49893445852675      126.47217342445501      115.11945572135978
C          108.28070299783380      127.46568464971567      114.25390700943358
H          107.86646048183580      125.45948236237962      114.93586352129792
H          106.43940430385175      126.49457434695815      114.87018529520036
C          107.55309550433061      128.79949427073018      114.08477527542787
H          109.25613009796592      127.64153401664029      114.71186323101244
H          108.45088302880281      127.02760631040178      113.26637332629814
C          108.39480919690186      129.76151613376018      113.24043784209435
H          106.59165528883518      128.62408033194052      113.59741515488486
H          107.36799333316293      129.24148370925641      115.06410475340846
C          107.63820220650300      130.97578521333412      112.74280787611785
H          109.23029864536497      130.11479558364698      113.84527765230010
H          108.77744714661175      129.23575558212613      112.36292822513238
N          107.11617379093897      131.75140828700393      113.69454268732147
O          108.79966339465135      126.71422707641095      117.13232219816477
C          106.43329139876853      132.98980368117998      113.38920127397432
H          107.36647002501243      131.57437844749916      114.66298314123823
C          106.73469812322354      134.07513806399137      114.41658404212653
H          106.75450073980298      133.30793883898889      112.39227436057112
H          105.35019629785839      132.81264769054258      113.35017265313982
C          108.22939109257339      134.35548780127613      114.57343256750174
H          106.22124788017383      134.98664360111468      114.10282826627054
H          106.32463116920849      133.77760011717876      115.38382153761810
C          108.46202670621614      135.61839817113730      115.40100384898221
H          108.70118310109227      133.50102525326443      115.05870321591028
H          108.68939783501001      134.48008854001350      113.59046926593537
C          109.93819844763716      135.88418550740710      115.69954180006025
H          108.05025227856795      136.47088289284855      114.85507265039152
H          107.91696524762349      135.53949596262609      116.34515011362028
C          110.47092753939879      135.04228463721881      116.86675183767836
H          110.53373151934998      135.68768134014218      114.80371854678560
H          110.06623621448117      136.94003521642330      115.95694968090650
N          111.86172319657655      135.29618591665619      117.20707463641267
H          109.87333116280534      135.24658059627134      117.76092788648556
H          110.37349591872122      133.97891284662575      116.63937783038303
H          111.98661952641578      136.28716158682388      117.39305256859024
H          112.46406527982037      135.06364240846875      116.42238393970507
O          107.51784187832867      131.21812422718560      111.54306648808530
C           99.02435333009083      114.71984653039381      102.57795150259334
C          100.50630343518469      114.93701450705485      102.37349209487463
C           98.47176828701875      115.74085457029057      103.58722693656263
C           98.43630411389594      117.15761067324628      103.01815525509221
H           97.45586246922902      115.44423341124048      103.85566773016659
H           99.07682198620232      115.70968963789082      104.49498278027750
C           97.75925611366586      118.15605275470725      103.96776685443605
H           99.44958947836527      117.49082151822959      102.78779356741866
H           97.87564245481190      117.14276866305686      102.08016597343031
C           98.63057430749015      118.45435473822852      105.17263464145240
H           97.58330529786569      119.09257141207861      103.43496239264279
H           96.80389182443660      117.75179776644349      104.30065742580516
N           98.39895678186289      117.66929186298597      106.22135400018128
O          101.23748554270412      114.04240877787606      103.01961707802838
O          100.98238015350678      115.84091201609951      101.72698019957546
H          102.20073214205577      114.29075712766333      103.01886544434012
H           98.87566736952017      113.71078369592564      102.96048496175796
H           98.51016360081464      114.83492006217635      101.62279948913239
C           99.10152247087201      117.75489550146703      107.48296236345342
H           97.59477257591460      117.04948522115311      106.18044276434294
C           98.11891429830268      117.99612537863717      108.63051009220814
H           99.65497057958287      116.82353217910303      107.63573554592278
H           99.81348714573713      118.58174715239271      107.41315956595477
C           98.80414963743115      118.25714194290714      109.97703845132091
H           97.51888001260652      118.87052299607886      108.36802740102922
H           97.43697123431824      117.14844270759895      108.71783488507640
C           98.91737817528087      117.05151334392863      110.91306591223885
H           99.79638198770473      118.67438059518641      109.79435789838732
H           98.22296484229491      119.01088358287838      110.51158684697580
C           99.91622034240589      115.96502324878811      110.50612057998947
H           99.22516352780021      117.43527268129696      111.88586304390940
H           97.93009708934460      116.60417431137634      111.03763955916261
C           99.27302329430337      114.82416643851880      109.71972777725075
H          100.72702672862891      116.40598048591659      109.92413310728332
H          100.35507725166630      115.52647605297520      111.40668166230172
N          100.19293696681602      113.72285464745788      109.55011239330554
H           98.38104368134304      114.47109003330654      110.24678049278529
H           98.98675020685411      115.14702778780585      108.71863005336651