3864
 energy: -5104.228883526718 gnorm: 0.000895644335 xtb: 6.6.1 (8d0f1dd)
C           33.97226606593345       56.59286040053107       36.20929596369666
C           33.47567671253889       57.88594217951803       36.09137523779472
C           33.77812607835136       58.60446631794674       34.94210224668645
C           34.55366888634674       58.05089912194900       33.93848093270053
C           35.04774895171101       56.76622565531151       34.07405734632351
C           34.75532465064006       56.03799737750886       35.21416105334190
C           32.63257597103777       58.50676645634059       37.17796366833447
C           31.34558119366777       57.70505491116018       37.39275215043744
C           33.41522223343527       58.62404870640866       38.49292388694040
C           34.73294276589457       59.41514652822440       38.33801879948314
C           34.71639575725245       60.68633964561353       39.14624394894430
C           34.51943466411047       60.65150874068816       40.52159992508497
C           34.53259380592413       61.81252938956335       41.27139192153295
C           34.73635755497278       63.03495326034119       40.65466472639375
C           34.91793679500623       63.08527068447630       39.28329062568856
C           34.90733303313416       61.91934573345472       38.53706441837252
C           35.92862011752516       58.53769938286841       38.73496385941996
C           37.28522720812509       59.23786672898679       38.57076684553937
C           37.48847250312827       59.71935516938431       37.15853082724010
C           37.75795990132312       61.06060179260989       36.91328655311348
C           37.93998340626180       61.52573250949396       35.62339987509779
C           37.85347827203494       60.65225003199799       34.55240841354589
C           37.58793305286401       59.31414010796572       34.78503934100316
C           37.40896170310047       58.85186065328460       36.07575447382872
C           38.39547337966092       58.26704474870500       38.99649857955175
C           39.82524254723880       58.80116673521729       38.83325515564581
C           39.99470998611173       60.17753292238994       39.42102528482447
C           40.55133384862999       61.19915612957134       38.66259059396873
C           40.72069158906779       62.46817059815312       39.18834440649753
C           40.32407584336552       62.73853800160935       40.48599624043329
C           39.76504482966850       61.72940342897586       41.25052044260375
C           39.60822422118883       60.45957284792630       40.72684684916135
C           40.80457866255468       57.81216765005980       39.48940349210982
C           42.25982969020711       58.01236010625831       39.04226269043085
C           42.42652989770745       57.59771774588273       37.60114673023451
C           42.32115563672539       56.26422561547621       37.21829217272249
C           42.46552264425423       55.88929589666062       35.89451221411088
C           42.71003282404563       56.84466149243423       34.92361255450837
C           42.80768605978064       58.17606350142970       35.28838752835456
C           42.67447791466090       58.54537142344698       36.61607561708223
C           43.20379990355982       57.22552321442056       39.96140353981244
C           44.67572269260812       57.39399049099173       39.56609075577735
C           45.12963571999098       58.81891819046763       39.74562832434184
C           45.06322735820921       59.44642049913958       40.98580876050860
C           45.52052470460959       60.74006013757472       41.15253692041414
C           46.05457439166129       61.43277640986752       40.07831615348773
C           46.12340786066918       60.82310015706669       38.83794493969815
C           45.66051622957253       59.52860966902863       38.67622937136073
C           45.55883333295811       56.41742051041478       40.35821278769772
C           47.04212375965817       56.48388479958688       39.94550175461199
C           47.66602845607421       55.11072700152869       39.91006046314781
C           48.33679608105104       54.66790801467194       38.77704580580786
C           48.90185273305242       53.40436964720857       38.72957787615132
C           48.80356626835355       52.56119815153060       39.82198693504852
C           48.14896543704818       52.99579183224421       40.96348044838697
C           47.58816416658656       54.25942701157635       41.00671644620100
C           47.82765037220930       57.39942835650260       40.89755268424451
C           49.26485863649454       57.69680915546856       40.42935857003377
C           50.06592023472807       58.15962854085720       41.62450452667328
C           50.43679577631039       59.47756187354509       41.85349315885248
C           51.11844039826698       59.83367118964166       43.00726196563088
C           51.42434580468687       58.88301374854294       43.96285114147980
C           51.05814210313225       57.56485425280163       43.74978407002964
C           50.39816856006907       57.21088403721876       42.59013909305182
C           49.23041798557311       58.67457201447469       39.25375413671349
C           50.54240357806835       58.79985485233444       38.45997534638841
C           50.36922562995284       59.91742709193828       37.46183699243394
C           49.46497494602589       59.80950376377321       36.40964161826396
C           49.30124225745357       60.84299523454067       35.50610620664352
C           50.03395938472537       62.01044763268486       35.64002804952879
C           50.92710260568476       62.13615907126346       36.68981145746987
C           51.08960636874054       61.09805405373817       37.59102865301841
C           50.88173405238236       57.47452942270132       37.76778551793051
C           52.03642713717000       57.55146168435149       36.75591453569093
C           53.35445133764269       57.72171433097718       37.46671384660093
C           53.94975616355796       56.66252107423885       38.14261644391781
C           55.15275195066177       56.83067971723170       38.80580916093170
C           55.78416445129283       58.06201730595333       38.80733980737801
C           55.20590244024918       59.12209858705862       38.12995690508884
C           54.00414420400833       58.95031330102148       37.46524993537082
C           52.02142774600874       56.27806952342937       35.89756045361025
C           50.93104399644098       56.31406950442845       34.80884836084584
C           51.51368753408641       56.83002315278333       33.51911734862803
C           51.12661775831366       58.06655248222725       33.01799676854893
C           51.67041559788270       58.55991983940195       31.84490009265996
C           52.61598689134080       57.82240929217691       31.15328395957771
C           53.02216047784277       56.59627658280642       31.65158524756171
C           52.47920927175373       56.10957182351976       32.82555063536014
C           50.28242631248675       54.93111761635733       34.65512186836378
C           49.10614116746192       54.89916197365372       33.66490072038263
C           48.07240597448246       55.92420125267685       34.05323915426352
C           47.31639487612050       55.78877017957152       35.21205306055176
C           46.41591283470774       56.76843907563480       35.58858403650849
C           46.25830386940204       57.90622977949126       34.81658491771525
C           46.99294258193313       58.04492966804540       33.65154133640528
C           47.88912065433470       57.06026410590383       33.27388508433757
C           48.53281192637559       53.47577605633118       33.61968585334171
C           47.40451847704601       53.28802252773237       32.59574338109530
C           47.90319534000105       53.64430609451084       31.21791593854806
C           47.45421189622117       54.78809856722446       30.57049595071540
C           47.92257338385670       55.12237651493023       29.31175104868242
C           48.84757231135384       54.31150068227676       28.67655511163038
C           49.29736495965941       53.16468470839363       29.30867367328085
C           48.83013750454256       52.83626587675489       30.56791320785639
C           46.87824115335935       51.83767471645226       32.61541356576534
C           45.56377497450673       51.63063495729123       33.38499093051760
C           45.67884834478763       52.00015242749976       34.84088880219546
C           45.02310688125058       53.12182862799828       35.33238253760697
C           45.08963682996598       53.45578340147448       36.67479164002217
C           45.82361143597453       52.67415489984315       37.54916861899321
C           46.49498676676339       51.56350221074236       37.06700525546294
C           46.41825922132955       51.22539640089420       35.72838792815303
C           45.12294512847141       50.16848213246411       33.20698431154806
C           43.81651683933124       49.82763910591135       33.93583470590558
C           42.69461480676436       50.71008032823709       33.44964593985956
C           42.05058238151592       51.58159777554255       34.31930528678862
C           41.02872118178881       52.40344587124471       33.87675367135009
C           40.63564749222622       52.36765464686081       32.55033099224190
C           41.26513421482139       51.49935787021387       31.67451124304790
C           42.28096635106765       50.67394496940562       32.12270355062494
C           43.46200601408415       48.33329563121762       33.76096946133201
C           43.74372184243239       47.50922466689669       35.02435519552192
C           45.21715664232323       47.47807287334221       35.35826361243568
C           45.67357452655602       47.92404786704742       36.59149603137817
C           47.01942695901043       47.88801676190619       36.91540611643369
C           47.93723153455598       47.38749820152815       36.00990801716114
C           47.49282661308233       46.91814249975222       34.78536920647277
C           46.14970107712423       46.96894104005530       34.45909545906585
C           43.25530623389243       46.05257097707774       34.92717147174714
C           41.78805479196234       45.82956543072291       34.51951447714540
C           41.52415383652327       44.34378971530452       34.56436326611703
C           41.34578386170485       43.62536498394697       33.38908950756947
C           41.13762108448539       42.25695775877460       33.41479680580802
C           41.10564846924296       41.58257033951134       34.62293874504496
C           41.28397507416601       42.28605394137829       35.80166545689256
C           41.49285812302690       43.65173852366569       35.76968461885470
C           40.78455526456732       46.60873814286367       35.37744756260392
C           39.33729352351954       46.44772240294526       34.88415145978781
C           39.24367616753455       46.72932950919916       33.40596503590854
C           39.55212882714371       47.98276911960944       32.88752029632718
C           39.46938943821155       48.22682558534614       31.52883966489184
C           39.07712942908990       47.22169697634715       30.66096789794093
C           38.76756178666619       45.96941565410210       31.16386278864018
C           38.85120119414169       45.72932312452781       32.52413765734677
C           38.40784241326401       47.38284976135688       35.67147852685616
C           36.93931545087980       47.25825643679674       35.23591236921481
H           32.35578743576217       59.51829440308543       36.85745810713806
H           32.77627214283713       59.11741290516703       39.22678583114337
H           33.62778855038034       57.62243657003026       38.86883335310527
H           34.86080494382964       59.68541071394397       37.28432642314517
H           35.82141484262620       58.23213987796859       39.77770673301156
H           35.91013563675285       57.64232773507952       38.11022009036972
H           37.30795349332010       60.10987222893783       39.23367199021864
H           38.23054154379908       57.99598017319243       40.04200748873759
H           38.31248824964182       57.36456105208041       38.38873057300851
H           40.04804785293285       58.85880678174150       37.76112222233539
H           40.49909561848257       56.79321743838742       39.24436899759905
H           42.50498211340648       59.07785325625763       39.12920983916563
H           43.05915027416229       57.56441105240894       40.98727858578646
H           42.94597403032737       56.16554401387676       39.93526524390816
H           44.76762981662636       57.14145882423846       38.50292859084123
H           45.46187076953202       56.62361069903470       41.42459447012109
H           45.17829550731009       55.40930721470298       40.17819509181399
H           47.09005633453799       56.89713742275789       38.93310185869595
H           47.30073131562239       58.34686985561915       41.01631382242484
H           47.86421199528952       56.92182080727385       41.87735819672599
H           49.69955974013160       56.75051977331763       40.09264581122956
H           51.35903133153990       59.06116049034629       39.14229778489224
H           51.14582580173637       56.73473633813183       38.52515584775869
H           49.99052329183240       57.11710848044850       37.24960947234182
H           51.88516934905458       58.41607515611116       36.09935839684668
H           52.99715072600566       56.13871389471718       35.43012225519678
H           51.84837422161331       55.42653175674435       36.55397924826312
H           50.14571375799490       57.01187251906379       35.11644100348924
H           51.03338899549450       54.20901564286432       34.33233487054369
H           49.91436711534362       54.61741320400319       35.63482729825856
H           49.48717658629477       55.15776339933470       32.66956836445821
H           49.34775011770446       52.79309005110665       33.36955122261790
H           48.15142021097186       53.20588253016934       34.60571272564095
H           46.58759776554995       53.97050948830515       32.85449183187485
H           46.69811892206295       51.52630717764961       31.58337483877667
H           47.64146321513229       51.17454049426473       33.02694096981268
H           44.80114212171505       52.27496196242451       32.92975721581609
H           44.99768290127023       49.97690843009752       32.13838123199270
H           45.90812848691822       49.50255195819455       33.56929123581131
H           43.96550628871591       50.03217122982807       35.00059251427424
H           42.40140748083870       48.25215977259439       33.51945521454186
H           44.02037837873390       47.92067208125779       32.92116159042750
H           43.21451271179951       47.98670731015933       35.85330741621700
H           43.87215691279652       45.51872910941702       34.20113673938503
H           43.43043207633524       45.58009290049391       35.89734883135666
H           41.66712204076556       46.15703912456922       33.48161372916594
H           40.83756789623035       46.27019659495808       36.41166602898754
H           41.04138691338758       47.66807334426608       35.35810249237852
H           33.73724398953991       56.00590478091932       37.08483577083041
H           35.13706568774919       55.03269239891124       35.31881967515483
H           35.66015688441207       56.33091259679934       33.29820713785437
H           34.77199858359749       58.62753300315536       33.05049021433302
H           33.40012023418956       59.61200813723330       34.82749647147124
H           34.33948442893234       59.70568276247719       41.00987961526516
H           34.37394509872725       61.76575213679803       42.33896578233947
H           34.74879413585505       63.94431799440559       41.23844126838276
H           35.06924694641813       64.03644047823111       38.79171581761388
H           35.05406711984726       61.96662826205429       37.46630379562658
H           37.82435650936049       61.74939787746995       37.74462513692477
H           38.14721022001710       62.57337246804901       35.45253972520842
H           37.99104491307994       61.01452855474157       33.54306473226091
H           37.51608338371183       58.62268830442114       33.95836248196307
H           37.20102887526620       57.80290198106713       36.22551723387887
H           40.84408179246802       61.00243479639767       37.63991727930967
H           41.15728657817430       63.24939878216626       38.58080593236129
H           40.44958263396850       63.72922425035488       40.89962170587482
H           39.45216692216572       61.94026581875114       42.26242215343970
H           39.16830931428797       59.68637763798555       41.33976115365248
H           40.74551036988841       57.92125324460294       40.57395113559745
H           42.12353524576577       55.50601915227968       37.96166003183819
H           42.37506028098507       54.85035725689951       35.61183036992140
H           42.82046706303588       56.55440868972870       33.88831697439150
H           42.98695928594493       58.93125630779665       34.53445160704510
H           42.76914489502931       59.58700460806239       36.89420451590456
H           44.67159540849555       58.91416280257354       41.84057014327602
H           45.46650384589851       61.20887582859167       42.12493680546225
H           46.41899818542235       62.44256005112963       40.20893300355971
H           46.54745145949914       61.35348099545033       37.99579563036799
H           45.71922520539997       59.06349513244548       37.70149881925474
H           48.41560560137910       55.32372545725704       37.92093240157620
H           49.41627651100964       53.07609813267864       37.83669456059445
H           49.24360944487376       51.57448492027322       39.79610137981227
H           48.08572496389803       52.34807862079501       41.82745038993222
H           47.08310187275551       54.59427894861841       41.90104341425386
H           50.19807886009313       60.24980749516498       41.13719089145656
H           51.40323068997941       60.86607051388666       43.16359167345298
H           51.94527297271042       59.16685098171951       44.86548892651909
H           51.28300545697878       56.81805232930569       44.49681635751489
H           50.13105171521493       56.17649112074469       42.42403414343275
H           48.45506349136906       58.35238998377302       38.55727413753594
H           48.92352022424133       59.66218415919579       39.60736837148996
H           48.87739597638722       58.91121291269935       36.28460911059863
H           48.59637262884898       60.73663247549154       34.69300503180942
H           49.90819075457429       62.81793679989708       34.93289717884117
H           51.50029129865106       63.04555982165624       36.80562342884393
H           51.79085206324689       61.20440026709697       38.40794729948794
H           53.47993887906085       55.68982222943306       38.14657654599141
H           55.59590236357825       55.98965825033255       39.31852939300864
H           56.71997774625309       58.19796741472670       39.33083210519957
H           55.69496166870449       60.08636780969066       38.11565551864509
H           53.56178528776444       59.78202064788915       36.93240581699290
H           50.39322191449231       58.65366351523315       33.55460463177630
H           51.35626031224835       59.52418460720793       31.46954786464180
H           53.03869743434676       58.20533050746942       30.23506080488001
H           53.76788519568797       56.01520930490220       31.12764347033482
H           52.82109028189161       55.15653760917183       33.20097464873229
H           47.42046388918104       54.90804113786968       35.82738008561670
H           45.83119977838579       56.64363182644444       36.48871315188769
H           45.56146490341063       58.67588668820992       35.11608085479827
H           46.86902720510282       58.92435148348519       33.03368011929020
H           48.46263369608855       57.17667946132696       32.36400951969167
H           46.73135068806000       55.42647336647156       31.06022250389315
H           47.56394492786726       56.01799737600232       28.82368052297354
H           49.21322315134413       54.57176617283851       27.69337646262501
H           50.01882726919646       52.52315993080055       28.82264221260676
H           49.19053881532496       51.93568122581441       31.04318040764306
H           44.44790897040205       53.74033071765174       34.65603414593160
H           44.56643676732991       54.33051691036626       37.03371991259915
H           45.87662846109975       52.92937937135201       38.59683690844000
H           47.08406795609174       50.95710534464184       37.73847490840647
H           46.92892715665726       50.34179058590617       35.37574989237673
H           42.35596943926546       51.61543690535998       35.35504121234463
H           40.53253947808319       53.07889031805246       34.55885045801507
H           39.84183420537368       53.01428360360832       32.20499922683095
H           40.96540242278584       51.46920467402722       30.63515363713180
H           42.75507464508257       49.99348768337671       31.42963674865646
H           44.96681477327239       48.30742481794024       37.31219039730962
H           47.35192520622103       48.24621282225960       37.87924366447199
H           48.99095504025450       47.36606184116434       36.24776788338151
H           48.20002366476128       46.49951370455796       34.08264699729107
H           45.82971988142895       46.60478890007758       33.49168314439898
H           41.36435668705289       44.14280331189789       32.43899339108152
H           41.00127648843249       41.71571007031518       32.48822733944689
H           40.94386804722159       40.51389477843061       34.64486912638056
H           41.25606784362449       41.76618434287226       36.74848257428079
H           41.63730532647941       44.18028113143391       36.69980571132941
H           38.61565449822204       44.74600277801844       32.90909806296963
H           38.46160476522552       45.17744935958358       30.49414418924613
H           39.01319531296932       47.41127651036472       29.59888233070644
H           39.71483652689361       49.20765487873815       31.14848007034374
H           39.86358967277940       48.78332287518839       33.54281553485479
H           30.70895898425448       58.20066796426117       38.12285517563191
H           30.79421849085955       57.61790118807067       36.45867775768374
H           31.56666303408241       56.70423345779371       37.75579546120220
H           39.02208236074509       45.41152983690674       35.05605460941334
H           38.49133465744969       47.15769394395611       36.73587719256204
H           38.74064412994362       48.41102065604567       35.52585399732190
C           36.12467156305807       48.50399313316831       35.61314316906025
C           36.30266810125198       46.02859720619284       35.83427074475226
C           35.96095715617771       45.98151918457582       37.18242495162939
C           35.33256645482944       44.87065444659994       37.71529866563673
C           35.05023125188212       43.77544452249261       36.91619609763277
C           35.40044246999776       43.80358175236781       35.57784198146048
C           36.01464595738420       44.92379754807728       35.04316579888516
H           36.16869985640033       46.82682709905134       37.82213032374676
H           35.05363291398300       44.85888858447361       38.75782498902542
H           34.56213695769848       42.90754735223146       37.33624173826732
H           35.18653927352249       42.95309572386245       34.94442356598659
H           36.26526779562722       44.94571985419069       33.99104617408326
C           36.38801535620217       49.70970339987657       34.70394434776314
H           35.06375292394331       48.25620209361912       35.53373885080948
H           36.33142704807916       48.78275543262686       36.64700974125779
C           35.37664144842698       50.78211091189219       34.99322080730331
C           35.43558380624222       51.49149444925860       36.18742296972361
C           34.48476539497168       52.44617024632542       36.49854730674135
C           33.46643006000202       52.72134158480243       35.60096792726060
C           33.39506893229231       52.02139771390186       34.40921631809476
C           34.33739232729020       51.05094865894777       34.11324095704447
H           36.24147161858094       51.28220517336766       36.87653922726437
H           34.53371899618451       52.97667144718736       37.43872974482758
H           32.73553392062688       53.48426033011251       35.82557257028825
H           32.60135277713157       52.23052002677344       33.70592624098237
H           34.26611232729767       50.49888721367114       33.18587384331266
H           36.91108711627169       47.15888485707540       34.14460612670843
H           37.39687649883335       50.09428163909985       34.86931759560451
H           36.31275054343568       49.40016563866200       33.65909671534828
C           34.34202644556947       60.08751916654217       56.84362264865430
C           32.95507608142861       59.98817345157805       56.82007698696428
C           32.28931952463847       59.73402318920937       58.01239741952526
C           32.98657314243329       59.57577562562871       59.19761774122315
C           34.36749465577288       59.66445861624683       59.20558927586657
C           35.04260488948173       59.92112038315595       58.02435047957091
C           32.17695082014000       60.15743261047390       55.53919111158370
C           32.22344354088546       61.62022471866407       55.08799663675267
C           32.70294747068151       59.23954278714826       54.42916351654522
C           32.74681998909757       57.76949793334931       54.86080599552937
C           31.36424144628423       57.24682195321537       55.16352771932338
C           30.38312854066490       57.18265141868451       54.18023716774889
C           29.13026704120801       56.66879133071331       54.46114074970616
C           28.83266413136197       56.21402403526506       55.73428747218598
C           29.79859423223090       56.27702335157175       56.72361619438534
C           31.05326713301153       56.78590093260665       56.43679464213510
C           33.39471426641759       56.87641286804627       53.79276473854306
C           34.90541026984472       57.07808804286610       53.58086089757909
C           35.29035912534721       56.29407089163971       52.34878426553696
C           35.33941046354308       54.90506507533223       52.36594825000945
C           35.62553605952315       54.19184253788465       51.21533043673473
C           35.85533445461019       54.85664617237379       50.02414597159304
C           35.80662194046071       56.23856800895769       49.99342044431817
C           35.53190731808787       56.95067189330167       51.14814291038082
C           35.70339359037710       56.65699879086593       54.82102710174188
C           37.22023959176816       56.69518133032020       54.58671558680148
C           37.63108813956318       58.08741144757546       54.16530527362028
C           38.04535653133411       58.33968787044306       52.86221716731023
C           38.40210577226069       59.61631831759672       52.46442429920623
C           38.35796303753526       60.66657834852845       53.36354134416692
C           37.94661934693804       60.42877234796206       54.66385141072923
C           37.58468410970861       59.15305379259224       55.05774335170513
C           38.02130787165457       56.27063177547944       55.82843668301303
C           37.69492053673955       54.88268484429997       56.40672465631877
C           38.31664713425953       54.78256740502175       57.77917196576597
C           37.52342897681090       54.57338272738280       58.90002933085783
C           38.08089230655580       54.48480588463907       60.16362880944474
C           39.44815996070919       54.61686446667539       60.32695785001486
C           40.25052416615380       54.83928097487401       59.22093884398137
C           39.68828990355506       54.91855745683593       57.95995754732993
C           38.16753328662238       53.73330183365668       55.50720225921940
C           37.60771646113077       52.37042305862857       55.96226879496388
C           36.15518544666229       52.25128166602828       55.57542998578503
C           35.76936679991904       52.02457122062125       54.25817923019047
C           34.43220280690964       51.92414274044943       53.91429218918756
C           33.45116296884019       52.07149684983467       54.87985537672172
C           33.82003074272206       52.30555115951767       56.19333912941761
C           35.15936141844156       52.38469359040973       56.53561982453959
C           38.45492090394898       51.23359237210661       55.37776545071098
C           37.92308534353141       49.82877234735786       55.70176512806786
C           37.94807431321870       49.58788525851515       57.18840723622338
C           39.14556228460403       49.40576451964726       57.86805253435923
C           39.16165459993554       49.21921386620622       59.23750011920261
C           37.97724453357642       49.19204680531610       59.95272511961386
C           36.77603762689326       49.35792155819529       59.28531238914345
C           36.76556533737086       49.56035512442237       57.91701075162539
C           38.74531380465281       48.77430600605732       54.94386389239875
C           38.28865640996079       48.59657047862257       53.48432978893033
C           37.07814027297510       47.69842001000935       53.44080640890942
C           37.22115076113905       46.31624413008755       53.43848454196651
C           36.11896674988359       45.48309105898107       53.40131719735579