3536
 energy: -3716.264962775066 gnorm: 0.000691926679 xtb: 6.6.1 (8d0f1dd)
C           60.83305527157192       38.13719186859469       46.66387216426763
C           62.20343761097314       38.10027856432335       47.33934886184566
C           63.27704704554247       37.74016999958995       46.31510171807345
C           62.17108426955276       37.10385397439897       48.50399026048333
C           63.41599315096692       37.06173703625905       49.40378884721751
C           63.27417050942770       35.89858684349075       50.38573572387175
C           63.58823304530564       38.39246096002740       50.14328709893974
C           64.77318530559030       38.50380256928985       51.11439157098661
C           64.70392899331293       39.87227970734847       51.78901714952322
C           66.10558767692558       38.30738111216694       50.38028139589841
C           67.38273345857654       38.51095661003297       51.21088296083972
C           68.58865233900245       38.47202233754884       50.27105243657360
C           67.50830685088050       37.44524319279211       52.30641613080681
C           68.56919381529885       37.72222224136068       53.38466979125227
C           68.86497757747421       36.43079539833446       54.14700026394389
C           68.08561729051634       38.82113973656794       54.33714082709557
C           69.07553174256148       39.29292390664945       55.41455019846916
C           68.39472527654695       40.37786253572799       56.24826384991657
C           70.37016058205600       39.80227276319881       54.76686251220423
C           71.33731413048635       40.59845521472873       55.65667656478209
C           72.50766780293974       41.06013055295356       54.78740988549029
C           71.82126226878371       39.75808951601663       56.84183095991106
C           72.78752769813961       40.43849673876688       57.82393179045538
C           73.33461760009905       39.37267870206776       58.77890288017849
C           72.13859279599303       41.56641065253645       58.64875035887898
C           72.25356324258429       42.99215977310853       58.09229539892736
C           73.71338041045350       43.41641902968644       57.91705965609152
C           71.59066341491044       44.01205973276988       59.03385678157246
C           70.11338856489476       43.79936936943348       59.38697834760856
C           69.23709509310341       43.73606621436318       58.14048251665324
C           69.64355040444332       44.94527327606438       60.29883010162282
C           68.40785122529573       44.60584705964486       61.15230200176663
C           67.39005243206188       45.74428833635682       61.09375507228255
C           68.77947200687446       44.34423907720942       62.61801082626964
C           69.72073110988713       43.15784683825562       62.85502372782063
C           68.98415067930705       41.83467610475268       62.65176935937812
C           70.30403515380003       43.18595108210613       64.27541481234597
C           71.33764794997549       44.28746444457244       64.55359896121206
C           72.65322332177224       43.98930129827436       63.83777850153785
C           71.54661418794403       44.40683279357531       66.06963704952152
C           72.34891945305441       45.62864866147505       66.53706501461471
C           72.68067759354935       45.46714983259579       68.02170495944752
C           71.59115146115118       46.94689281159344       66.28547633028128
C           72.37186892169845       47.96771341502543       65.44788289032516
C           73.54011370569528       48.54337458951301       66.24661964488841
C           71.44923748279307       49.10182501363622       64.97762864176181
C           70.60210640997228       48.74570110406390       63.74886998029134
C           71.43321362434064       48.88152686529888       62.47251787451719
C           69.36254563133834       49.64403140258514       63.64377546722144
C           68.25785106078305       49.37548193898569       64.67245653260392
C           67.67525411474578       47.97298514469294       64.50494682227250
C           67.11262000347027       50.38802580597572       64.52616322946737
C           67.45025007442469       51.85870661522772       64.79120835813707
C           67.97095252772976       52.06549335891930       66.21331640436738
C           66.21049721952305       52.74150099419972       64.58042902304054
C           65.62296429817235       52.73707764577557       63.16390218052408
C           66.68893448168939       53.09624426064264       62.12881890791063
C           64.45628870763929       53.72887245644065       63.04032589173961
C           63.24460445735326       53.47461598864704       63.94475390023447
C           62.65805365460157       52.08330516529690       63.70343824933508
C           62.14710281477806       54.52550072408193       63.70505459796059
C           62.52848620307817       55.98511757844042       63.97452341865478
C           63.02285090308688       56.17795424721242       65.40850289847636
C           61.34518369516542       56.93358955943967       63.72302664507593
C           60.80007489844910       57.01254556571362       62.28862821077477
C           61.91940764567825       57.21881017617985       61.26984322534025
C           59.79122161027250       58.16962913852858       62.17262987845748
C           58.39623303276323       57.87419089408783       62.73876331036487
C           57.58427791274814       57.05480854373331       61.73575621786145
C           57.62381085223989       59.16458227605070       63.05435873440863
C           58.12258998864714       59.97155953295341       64.25708283955467
C           58.05750200282409       59.15073160164960       65.54544377224740
C           57.29394630599734       61.24900117135491       64.46356772831490
C           57.26754972123653       62.27401926378074       63.32239822310709
C           58.67241834902657       62.75349924219511       62.96646103307518
C           56.38638734553318       63.46608869998562       63.73522786269798
C           54.88790088824017       63.23996341681779       63.48456803429557
C           54.54834555734239       63.58870967261578       62.03835775495205
C           54.05046283466233       64.07132164905352       64.46483261895236
C           52.52954969010817       63.85347726560067       64.41048860734497
C           51.85606760281429       64.86294325207624       65.34003592126508
C           52.17458392230783       62.41372321982993       64.80005173591422
C           50.68170132202941       62.04898617970400       64.83684691115776
C           50.56141811361820       60.57916402935653       65.24216129242932
C           50.02514351607815       62.31891262838976       63.47741210483981
C           48.59135450535005       61.80713596969660       63.28234806562077
C           48.15862535343320       62.10408197251324       61.84650632866229
C           47.62197540490866       62.43069163084364       64.29145461587964
C           46.21619108713931       61.83539677093022       64.23021358263654
C           45.33869263276209       62.33966415047153       65.36971500197852
H           60.57490536224773       37.15565033479014       46.26977159304342
H           60.06432876754912       38.43750779407649       47.37285366539249
H           60.83285274728575       38.84581627748442       45.83772119064534
H           44.34078895722071       61.91188143293407       65.30250388851066
H           45.76499017850910       62.06551202785032       66.33282940415579
H           45.25023712193428       63.42360792885370       65.33278583748542
H           48.00888729784756       62.27700489057113       65.30082054469169
H           47.56757359236484       63.50944759170898       64.12179286834250
H           50.02369839403757       63.39598023258365       63.29547363182720
H           50.64775807368326       61.85584036574987       62.70787286004991
H           50.19128001576414       62.65547709383997       65.60444706946127
H           50.95750637551251       59.93605852979615       64.45878243711878
H           51.12699424722857       60.39304073204394       66.15344286134862
H           49.52726820436052       60.30188527820967       65.42866833957039
H           52.65915664419116       61.73142950475027       64.09854208960087
H           52.59616728124569       62.21936456169767       65.79056249421616
H           54.38435341417212       63.85637787970848       65.48307809174010
H           54.25364511121361       65.12900072812975       64.27260775886745
H           48.57911923049762       60.72106674560668       63.41856996326996
H           48.89170474219900       61.71633287662137       61.14347643588219
H           47.20147092383836       61.64170746076451       61.62337252956449
H           48.07057262540558       63.17744797928364       61.68868362071381
H           52.18486802250807       64.04873309875059       63.39169277984678
H           52.16804911236967       65.87526457848918       65.09059122077338
H           50.77359370637181       64.81700358460260       65.25449290254579
H           52.12853240908785       64.66712874095356       66.37550603742578
H           54.67465788509237       62.18033808926754       63.65240879006564
H           53.54079547901142       63.27391574552006       61.78437003524120
H           54.62185225316681       64.66415498408023       61.88451228614370
H           55.23791382589948       63.09866095914163       61.35550598143045
H           56.55322028280717       63.66924234227701       64.79497189477804
H           56.69738423108380       64.35806826876511       63.18731034165796
H           56.82562977402485       61.81325262890669       62.43358245512081
H           59.17411316587835       63.14201168866633       63.84968609888684
H           59.26991154806731       61.94401681433866       62.55551447440436
H           58.62780654324654       63.54485191143666       62.22076614335298
H           56.26545704646629       60.95542272233346       64.68937601479141
H           57.68466271593866       61.75461296244801       65.35215581200796
H           59.16604161116068       60.25707389716689       64.09426891564934
H           58.74270263237558       58.30875285580417       65.51673891548290
H           58.32509092912746       59.76690830955877       66.40197033926144
H           57.04996220131313       58.76911439615434       65.70128453350451
H           57.65206722773716       59.79655861861996       62.16425795216539
H           56.57735147077076       58.90380190362623       63.23512730645797
H           58.49667760284144       57.28589288084593       63.65373897259801
H           58.13449374992354       56.17371147949890       61.41563368094649
H           56.64295262559946       56.73043472956640       62.17402088866072
H           57.35970673818794       57.65034517652455       60.85303673113445
H           60.21750565190690       59.03908841867590       62.67640515705342
H           59.67398742983882       58.43538466228517       61.11838175973262
H           60.28744666906255       56.07479189749333       62.05019566569890
H           62.50501406373466       58.09977924142568       61.52157778179063
H           62.58324079911611       56.35981754698626       61.23052919987955
H           61.50483614052058       57.35660211929709       60.27370081737116
H           60.52829101907312       56.64996645204251       64.39146818043547
H           61.66361720669751       57.93845893708895       64.01386607757752
H           63.34089504074886       56.27364444350253       63.30314201112268
H           63.94704234562751       55.63106957557216       65.58056806473694
H           63.21780154950943       57.22990987365401       65.60658258233393
H           62.27974978107505       55.83231973580126       66.12300666609430
H           61.81469499087634       54.43587550590601       62.66826799343725
H           61.29420909274643       54.27712837932756       64.34357394066743
H           63.55718552965897       53.53311226184887       64.99158840001414
H           61.75468368899840       51.94310247100390       64.29365584977035
H           62.40349782244510       51.95387688581170       62.65362394673086
H           63.36309036514604       51.30491677148701       63.98449116659701
H           64.84945421811247       54.72636882789904       63.24213640466954
H           64.10878867463938       53.71724229949417       62.00260117759571
H           65.24902472979099       51.73551006711618       62.93587728206153
H           67.20796826130973       54.00481946933915       62.42391573457072
H           67.42130120264638       52.30064470978858       62.02104338811994
H           66.23531452487093       53.26556130074897       61.15470558032157
H           65.44393854449881       52.41669286786554       65.28744415646561
H           66.47866210002618       53.77046326026743       64.83671693506363
H           68.22946051222168       52.18681621752792       64.09860636133625
H           68.91674321910700       51.55123123282510       66.36539492945305
H           68.12950029349790       53.12425727712659       66.40763128265232
H           67.25482351363920       51.69019558665128       66.94197535010103
H           66.72168862354069       50.29226091740969       63.51168638003600
H           66.31224775786544       50.09937351246607       65.21351677186775
H           68.67157762693184       49.44932802572259       65.68218928002003
H           66.83749970449151       47.83373502712703       65.18502238907026
H           67.31698363061381       47.82703902965481       63.48841025475517
H           68.40966801537326       47.20349750253283       64.72428139859467
H           69.69696004065145       50.67925147519966       63.73458582858000
H           68.93116002923173       49.52637356059540       62.64595229763233
H           70.28177975211159       47.70358431023951       63.82615089009389
H           70.86961487719172       48.53829145171083       61.60768009865349
H           71.70997845930896       49.92136574514328       62.30864319135446
H           72.34555268856808       48.29310501433049       62.53630557260896
H           70.80061876560656       49.37813065116030       65.81079557389216
H           72.05143631614233       49.98088220691600       64.73486808287083
H           72.77733215483767       47.45606487366246       64.56794457602584
H           73.17202859595031       49.08852886368005       67.11396284424644
H           74.20357552884002       47.75470845045754       66.59298627318054
H           74.12176062955120       49.22927775403888       65.63372957066119
H           70.64846847057746       46.73086527092608       65.78180635169038
H           71.33665839223880       47.40942738372898       67.24201085390018
H           73.29438290757761       45.65177741992490       65.98690917888979
H           73.24134643514572       46.32374387510109       68.38826654704910
H           71.76701461875446       45.37898634923942       68.60702869215297
H           73.27817100035300       44.57263007744293       68.18799209412060
H           70.57010446771831       44.44162238221429       66.56067901122729
H           72.05061988473739       43.50100226365045       66.41810623980696
H           70.95624363998945       45.24117562623600       64.17751438626499
H           73.37199538782291       44.79083706918874       63.98937424217690
H           73.08891457217597       43.06366199290100       64.20986306269040
H           72.49428241438855       43.88628144297912       62.76722114957607
H           69.47380547411504       43.28923384668563       64.97696239506377
H           70.77779158536943       42.22135719589456       64.47828810876638
H           70.54397377754950       43.20584919220349       62.13833863458243
H           68.53475490111009       41.78295614824245       61.66394965635551
H           69.66669187028074       40.99424340591049       62.75939209771919
H           68.19171999875169       41.72508275816544       63.38953152797594
H           69.24006009361368       45.25465123362414       63.00668998503317
H           67.86286991108967       44.17738606143217       63.18935154006740
H           67.92733216747506       43.71102731239048       60.74554729391369
H           66.52574913854770       45.52200967121199       61.71630822799162
H           67.83973062470288       46.66959851469672       61.44872765436931
H           67.04857485413885       45.89629517057540       60.07252595809331
H           70.45996771862050       45.24202022868518       60.96090766297460
H           69.42347043416500       45.80860113477532       59.66680669392351
H           70.01495749200069       42.85748606254539       59.93413699826873
H           68.18565391155083       43.69620108993607       58.41499633399906
H           69.39674663259545       44.61941167808424       57.52624725934519
H           69.46375717864056       42.85880331848256       57.54222152609616
H           72.16529480914090       44.02822090476881       59.96544946620824
H           71.68995876947338       45.00243648825117       58.57919338831746
H           71.76540352312874       43.04392106078401       57.11634726057736
H           74.22479527472717       42.82062217174386       57.16588537538211
H           73.76717680043646       44.45739963805579       57.60389193992430
H           74.25370571894470       43.31466973824885       58.85655436806859
H           71.08350248893338       41.32314925648335       58.78441403388010
H           72.59633683988739       41.57301311441942       59.64197814167301
H           73.63670742867849       40.83217290303641       57.26297178868745
H           73.79654561391771       38.55740454963834       58.22561741588440
H           74.08527944343872       39.79897667394544       59.44122178313312
H           72.53510892075431       38.95802410439075       59.38984650774462
H           70.95417153330463       39.41054951944987       57.40624450765050
H           72.31859102450009       38.87026228231333       56.43915570026503
H           70.81723899943671       41.48305504845334       56.03028134999067
H           73.12620543909850       40.21177535522481       54.49924543360155
H           72.14081133644174       41.53412142901185       53.87915388974841
H           73.13086225982350       41.78032410503808       55.30905015352541
H           70.91782467398018       38.95019322946754       54.35677213276112
H           70.09121639211543       40.44511067898919       53.92657109402101
H           69.30883486358960       38.44988892828933       56.07252870435013
H           67.39412100269513       40.06485199416150       56.53656283118926
H           68.95163998284804       40.58522086177787       57.15754734602405
H           68.30756076629895       41.29872292717269       55.67644806868039
H           67.80091970513190       39.69417598206933       53.74508470629450
H           67.18642710550827       38.45466492042682       54.83938955057350
H           69.48999717657527       38.04734072516246       52.89339065149967
H           69.18809384176737       35.64810920193325       53.46317954174346
H           69.65301583442057       36.58079091063775       54.88047735862200
H           67.97338779617331       36.08372623904247       54.66608720729733
H           66.54505909214512       37.33167071025812       52.80634694303052
H           67.73738505475963       36.49109945668236       51.82346682042255
H           67.35147529445297       39.50265494936347       51.66780629568814
H           69.51571599745573       38.64313692654255       50.81221259752071
H           68.65636049056849       37.50505763631546       49.77533143912991
H           68.50095960299868       39.24106788873330       49.50626984734659
H           66.13644066660795       37.29797968663851       49.96322671531883
H           66.13253829244354       39.00927848112873       49.54196250702061
H           64.66389063856641       37.73881879920588       51.88779142298625
H           63.71304265075322       40.03281695567745       52.20740250092506
H           65.42383980621803       39.94975501975428       52.59720199387817
H           64.90394790505918       40.66038522929983       51.06540787453222
H           63.69176541468605       39.19196285792045       49.40727014030863
H           62.67064104874311       38.58035061403476       50.70760198291434
H           64.29273604892919       36.87485114503315       48.77737701014847
H           64.18437491833879       35.75722937706861       50.96223458292368
H           62.45406726948863       36.08655324590334       51.07645700615917
H           63.06695959174887       34.97175324773193       49.85402111763317
H           61.30627423237389       37.33550623260889       49.13182077171843
H           62.00990525250095       36.10509071727824       48.08785453465516
H           62.41120051436819       39.10269206460335       47.72681224734414
H           64.27167252590151       37.78908529193296       46.75150592536959
H           63.11810497759438       36.73220305269074       45.93637449553772
H           63.24446774792348       38.42820567505214       45.47213626375584
H           45.74191168115047       62.08937178835980       63.28115717298272
H           46.28831920847340       60.74674325248034       64.28614862881413
C           44.86721181896228       59.21018173170162       60.82198896031766
C           45.32713692892624       58.90400381295029       59.39799873328274
C           45.82164310524789       57.46261119902046       59.30994992106414
C           46.42230768254985       59.89289767358023       58.98264292429586
C           46.65812122837509       59.99939082811984       57.46955145620855
C           48.04303771085725       60.59213076815308       57.21993973987907
C           45.56306786877893       60.85628568636741       56.82417007606531
C           45.50023568317982       60.82097314198028       55.29166753379801
C           44.42430084226957       61.80039442756026       54.81968894781149
C           45.20351612900234       59.41327197859019       54.74432962928823
C           46.41118800762794       58.69132370704664       54.13364471175436
C           46.81684461148755       59.35036022623387       52.81642850426574
C           46.08193023337383       57.21752992436194       53.86071146435055
C           45.98040592794467       56.30861942542251       55.09055996236524
C           47.34843900680428       56.07496208520566       55.72869407832685
C           45.34762198176907       54.95880973934589       54.70785029822592
C           44.46439134183099       54.35433460897639       55.80995708425024
C           44.30883840987060       52.85197879453529       55.58798257374892
C           43.10005954215478       55.05587112226245       55.81089712716759
C           42.11995717455682       54.66577845053904       56.92686577393442
C           40.76737633031373       55.32129383967173       56.64495384964817
C           42.66454673669315       55.07710965795017       58.29910396682709
C           41.76260983752360       54.79839747836129       59.51204492488299
C           42.45757697876439       55.34475266012891       60.76003921689956
C           41.47090290391763       53.29816992062894       59.63421208053529
C           40.58990037159462       52.86906368567293       60.81506760711150
C           40.68846123135813       51.35366806653008       60.98804704632998
C           39.12878980661238       53.28662552464949       60.60342963936547
C           38.30191100504467       53.32276255734872       61.89652643812162
C           36.81085953121380       53.25202674092323       61.56977527586589
C           38.61795548019047       54.58938924669796       62.70249798869512
C           38.32307058155602       54.49788008682820       64.20560266648377
C           38.34639274556048       55.89903019253529       64.81592379736631
C           39.25230930512223       53.52458348571803       64.95237669848099
C           40.75739442180823       53.85289294958375       64.95085308283031
C           41.56078568586388       52.56389662667582       64.77863797901369
C           41.17426367214016       54.57809976612772       66.23839513117574
C           42.51634421961867       55.32419534908995       66.16533937697018
C           42.96929106705893       55.67284527147142       67.58286304400922
C           42.38912603085296       56.58850022567265       65.30799612725117
C           43.71377363875726       57.27223846890666       64.94125395682113
C           43.40308344906187       58.65579617749135       64.36709812800008
C           44.54485915190885       56.43641391109634       63.94948293140013
C           46.01993698479007       56.27536411528164       64.33937079163522
C           46.74841868340776       57.61778207131964       64.33959460015510
C           46.72571201488852       55.30031368689072       63.38233744292567
C           46.57072284197541       53.82080889006988       63.75654998916031
C           47.48316931667292       53.47369046391906       64.93230130058087
C           46.92386966196879       52.90926015470898       62.57120316183805
C           45.86249091961650       52.81654448696049       61.47101300943368
C           44.60935839730195       52.11446892380733       61.99252868423714
C           46.37707829969122       52.03823416340377       60.24917241619272
C           47.61449419263735       52.60105483290487       59.53919786048224
C           47.46464629544602       54.09253583168057       59.24205327942959
C           47.87497224470486       51.86183508530111       58.21627782551256
C           48.10809299910823       50.34802885451668       58.30891951345425
C           49.26131878933602       50.03894808053534       59.26205808961976
C           48.41558692430280       49.75562671964132       56.92134316272848
C           47.21062843719965       49.67341008516885       55.97403060741306
C           46.26186676124038       48.55619375421730       56.41011811604066
C           47.60259641748411       49.41745145787009       54.50714951151485
C           48.62283134050843       50.37644490472165       53.88355514095650
C           48.23201097970772       51.83707762848402       54.11068925601521
C           48.76636700196452       50.15090374058859       52.36784780526590
C           49.11123156969708       48.73551227693204       51.88992458199377
C           50.32647050628582       48.16227591217065       52.61772018051732
C           49.43988944429582       48.72903590233648       50.38774566637915
C           48.38059006813678       49.25023174799725       49.40633451248929
C           47.09579830346352       48.43228181690939       49.49437669195257
C           48.98942602110662       49.18693084714884       47.99695614036487
C           48.20020346314739       49.83429339607119       46.84972601905325
C           48.85879091014476       49.42752767203986       45.53016945568252
C           48.15642111413855       51.36071207059060       46.98201775132582
C           47.25967467269957       52.06129190222842       45.94161877529656
C           48.08674056948328       52.97653038126649       45.03807442069851
C           46.14407616875279       52.87782882406475       46.60615411297511
C           45.06417516849974       52.02812496950644       47.28667170960311
C           44.11096781754099       51.43755314474754       46.24736152061325
C           44.26056764041498       52.85890102773923       48.29822346920554
C           45.00436838013953       53.18251636188002       49.59799363166124
C           45.18320015359797       51.92996274318858       50.45554727174073
C           44.26633007801068       54.24047437874854       50.43040666066163
C           44.13046032951944       55.63853986819564       49.81302219834674
C           45.49723461567752       56.21343039381345       49.44677736391841
C           43.42592482909106       56.57878950258225       50.80258789642685
C           41.90793458124343       56.38779853791667       50.90606014642463
C           41.18573727694110       57.08611832816411       49.75522939281429
C           41.38164037592460       56.85484071101549       52.27199209229117
C           41.64218963260161       58.32333027092900       52.60141574062588
C           41.18729774975334       58.65937604380145       54.01656281536821
H           44.44400188217035       60.21079059817860       60.88851838681245
H           44.10789294701768       58.50076495409833       61.14431564109996
H           45.70803774941130       59.14957743609342       61.51032799008151
H           41.72707997755306       58.05377171233397       54.74132534602102
H           41.37013984947576       59.70841076446621       54.23942263111257
H           40.12323709251095       58.46422756501708       54.13460817253505
H           40.30446542454271       56.67059695757266       52.31647684156888
H           41.84766381016524       56.24144806176203       53.04804993104607
H           43.87234746187898       56.42776627805079       51.78765490994045
H           43.62182104649639       57.61242974948133       50.50961235185590
H           43.52360880937275       55.57939100588558       48.90346241581895
H           46.16101383044844       56.18883118953247       50.30870689187999
H           45.94812192962765       55.64983444557051       48.63453605281489
H           45.40344233286050       57.24634698926231       49.11718718665699
H           43.26960586351554       53.85632362619122       50.66209643432300
H           44.80109148305331       54.34765536386694       51.37864364568813
H           43.96302389184675       53.78732599427749       47.80642511020957
H           43.34409089389604       52.31907611767511       48.55247554197010
H           41.68464855049373       55.31649720628377       50.83623352654823
H           41.50843319097367       56.68080676039050       48.79893626132746
H           40.10974570592153       56.94521730321204       49.83684954459240