      -----------------------------------------------------------      
     |                   =====================                   |     
     |                           x T B                           |     
     |                   =====================                   |     
     |                         S. Grimme                         |     
     |          Mulliken Center for Theoretical Chemistry        |     
     |                    University of Bonn                     |     
      -----------------------------------------------------------      

   * xtb version 6.6.1 (8d0f1dd) compiled by 'stahn@M-Bot' on 2023-08-01

   xtb is free software: you can redistribute it and/or modify it under
   the terms of the GNU Lesser General Public License as published by
   the Free Software Foundation, either version 3 of the License, or
   (at your option) any later version.
   
   xtb is distributed in the hope that it will be useful,
   but WITHOUT ANY WARRANTY; without even the implied warranty of
   MERCHANTABILITY or FITNESS FOR A PARTICULAR PURPOSE.  See the
   GNU Lesser General Public License for more details.
   
   Cite this work as:
   * C. Bannwarth, E. Caldeweyher, S. Ehlert, A. Hansen, P. Pracht,
     J. Seibert, S. Spicher, S. Grimme, WIREs Comput. Mol. Sci., 2020, 11,
     e01493. DOI: 10.1002/wcms.1493
   
   for GFN2-xTB:
   * C. Bannwarth, S. Ehlert and S. Grimme., J. Chem. Theory Comput., 2019,
     15, 1652-1671. DOI: 10.1021/acs.jctc.8b01176
   for GFN1-xTB:
   * S. Grimme, C. Bannwarth, P. Shushkov, J. Chem. Theory Comput., 2017,
     13, 1989-2009. DOI: 10.1021/acs.jctc.7b00118
   for GFN0-xTB:
   * P. Pracht, E. Caldeweyher, S. Ehlert, S. Grimme, ChemRxiv, 2019, preprint.
     DOI: 10.26434/chemrxiv.8326202.v1
   for GFN-FF:
   * S. Spicher and S. Grimme, Angew. Chem. Int. Ed., 2020, 59, 15665-15673.
     DOI: 10.1002/anie.202004239
   
   for ALPB and GBSA implicit solvation:
   * S. Ehlert, M. Stahn, S. Spicher, S. Grimme, J. Chem. Theory Comput.,
     2021, 17, 4250-4261. DOI: 10.1021/acs.jctc.1c00471
   
   for DFT-D4:
   * E. Caldeweyher, C. Bannwarth and S. Grimme, J. Chem. Phys., 2017,
     147, 034112. DOI: 10.1063/1.4993215
   * E. Caldeweyher, S. Ehlert, A. Hansen, H. Neugebauer, S. Spicher,
     C. Bannwarth and S. Grimme, J. Chem. Phys., 2019, 150, 154122.
     DOI: 10.1063/1.5090222
   * E. Caldeweyher, J.-M. Mewes, S. Ehlert and S. Grimme, Phys. Chem. Chem. Phys.
     2020, 22, 8499-8512. DOI: 10.1039/D0CP00502A
   
   for sTDA-xTB:
   * S. Grimme and C. Bannwarth, J. Chem. Phys., 2016, 145, 054103.
     DOI: 10.1063/1.4959605
   
   in the mass-spec context:
   * V. Asgeirsson, C. Bauer and S. Grimme, Chem. Sci., 2017, 8, 4879.
     DOI: 10.1039/c7sc00601b
   * J. Koopman and S. Grimme, ACS Omega 2019, 4, 12, 15120-15133.
     DOI: 10.1021/acsomega.9b02011
   
   for metadynamics refer to:
   * S. Grimme, J. Chem. Theory Comput., 2019, 155, 2847-2862
     DOI: 10.1021/acs.jctc.9b00143
   
   for SPH calculations refer to:
   * S. Spicher and S. Grimme, J. Chem. Theory Comput., 2021, 17, 1701-1714
     DOI: 10.1021/acs.jctc.0c01306
   
   with help from (in alphabetical order)
   P. Atkinson, C. Bannwarth, F. Bohle, G. Brandenburg, E. Caldeweyher
   M. Checinski, S. Dohm, S. Ehlert, S. Ehrlich, I. Gerasimov, C. Hölzer
   A. Katbashev, J. Koopman, C. Lavigne, S. Lehtola, F. März, M. Müller,
   F. Musil, H. Neugebauer, J. Pisarek, C. Plett, P. Pracht, F. Pultar,
   J. Seibert, P. Shushkov, S. Spicher, M. Stahn, M. Steiner, T. Strunk,
   J. Stückrath, T. Rose, and J. Unsleber
   
 * started run on 2024/06/20 at 18:05:30.401     

           -------------------------------------------------
          |                Calculation Setup                |
           -------------------------------------------------

          program call               : /home/abt-grimme/AK-bin/xtb input.xyz --input input.inp --opt --gbsa water
          hostname                   : boar061.thch.uni-bonn.de
          coordinate file            : input.xyz
          omp threads                :                     8

   ID    Z sym.   atoms
    1    6 C      1-90, 273-362, 545-634, 817-906, 1089-1178, 1361-1450,
                  1633-1722, 1905-1994, 2177-2266, 2449-2538, 2721-2810,
                  2993-3082, 3265-3354
    2    1 H      91-272, 363-544, 635-816, 907-1088, 1179-1360, 1451-1632,
                  1723-1904, 1995-2176, 2267-2448, 2539-2720, 2811-2992,
                  3083-3264, 3355-3536

molecular fragmentation (1/2 indicates fragments):
111111111111111111111111111111111111111111111111111111111111111111111111
111111111111111111111111111111111111111111111111111111111111111111111111
111111111111111111111111111111111111111111111111111111111111111111111111
111111111111111111111111111111111111111111111111111111112222222222222222
222222222222222222222222222222222222222222222222222222222222222222222222
222222222222222222222222222222222222222222222222222222222222222222222222
222222222222222222222222222222222222222222222222222222222222222222222222
222222222222222222222222222222222222222222222222222222222222222222222222
222222222222222222222222222222222222222222222222222222222222222222222222
222222222222222222222222222222222222222222222222222222222222222222222222
222222222222222222222222222222222222222222222222222222222222222222222222
222222222222222222222222222222222222222222222222222222222222222222222222
222222222222222222222222222222222222222222222222222222222222222222222222
222222222222222222222222222222222222222222222222222222222222222222222222
222222222222222222222222222222222222222222222222222222222222222222222222
222222222222222222222222222222222222222222222222222222222222222222222222
222222222222222222222222222222222222222222222222222222222222222222222222
222222222222222222222222222222222222222222222222222222222222222222222222
222222222222222222222222222222222222222222222222222222222222222222222222
222222222222222222222222222222222222222222222222222222222222222222222222
222222222222222222222222222222222222222222222222222222222222222222222222
222222222222222222222222222222222222222222222222222222222222222222222222
222222222222222222222222222222222222222222222222222222222222222222222222
222222222222222222222222222222222222222222222222222222222222222222222222
222222222222222222222222222222222222222222222222222222222222222222222222
222222222222222222222222222222222222222222222222222222222222222222222222
222222222222222222222222222222222222222222222222222222222222222222222222
222222222222222222222222222222222222222222222222222222222222222222222222
222222222222222222222222222222222222222222222222222222222222222222222222
222222222222222222222222222222222222222222222222222222222222222222222222
222222222222222222222222222222222222222222222222222222222222222222222222
222222222222222222222222222222222222222222222222222222222222222222222222
222222222222222222222222222222222222222222222222222222222222222222222222
222222222222222222222222222222222222222222222222222222222222222222222222
222222222222222222222222222222222222222222222222222222222222222222222222
222222222222222222222222222222222222222222222222222222222222222222222222
222222222222222222222222222222222222222222222222222222222222222222222222
222222222222222222222222222222222222222222222222222222222222222222222222
222222222222222222222222222222222222222222222222222222222222222222222222
222222222222222222222222222222222222222222222222222222222222222222222222
222222222222222222222222222222222222222222222222222222222222222222222222
222222222222222222222222222222222222222222222222222222222222222222222222
222222222222222222222222222222222222222222222222222222222222222222222222
222222222222222222222222222222222222222222222222222222222222222222222222
222222222222222222222222222222222222222222222222222222222222222222222222
222222222222222222222222222222222222222222222222222222222222222222222222
222222222222222222222222222222222222222222222222222222222222222222222222
222222222222222222222222222222222222222222222222222222222222222222222222
222222222222222222222222222222222222222222222222222222222222222222222222
22222222
# atoms in fragment 1/2:   272  3264
 fragment masses (1/2) :     1264.41    15172.94
CMA distance (Bohr)    :  17.863
constraining FC (au)   :  0.0500

           -------------------------------------------------
          |                 G F N 2 - x T B                 |
           -------------------------------------------------

        Reference                      10.1021/acs.jctc.8b01176
      * Hamiltonian:
        H0-scaling (s, p, d)           1.850000    2.230000    2.230000
        zeta-weighting                 0.500000
      * Dispersion:
        s8                             2.700000
        a1                             0.520000
        a2                             5.000000
        s9                             5.000000
      * Repulsion:
        kExp                           1.500000    1.000000
        rExp                           1.000000
      * Coulomb:
        alpha                          2.000000
        third order                    shell-resolved
        anisotropic                    true
        a3                             3.000000
        a5                             4.000000
        cn-shift                       1.200000
        cn-exp                         4.000000
        max-rad                        5.000000

      * Solvation model:               GBSA
        Solvent                        water
        Parameter file                 internal GFN2-xTB/GBSA
        Dielectric constant                8.0200E+01
        Reference state                gsolv [1 M gas/solution]
        Free energy shift                  1.8574E-03 Eh       1.1656E+00 kcal/mol
        Temperature                        2.9815E+02 K
        Density                            1.0000E+00 kg/L
        Solvent mass                       1.8000E+01 g/mol
        Interaction kernel             Still
        Born radius scaling (c1)           1.5524E+00
        Born radii integrator          GBOBC
        Born offset                        2.4628E-02 a0       4.6540E-02 AA
        H-bond correction              true
        Ion screening                  false
        Surface tension                    1.0000E-05 Eh       1.5569E+01 dyn/cm
        Grid points                               230 per atom
q/qsh data taken from xtbrestart
CAMM data taken from xtbrestart

          ...................................................
          :                      SETUP                      :
          :.................................................:
          :  # basis functions                7046          :
          :  # atomic orbitals                7046          :
          :  # shells                         4706          :
          :  # electrons                      7046          :
          :  max. iterations                   250          :
          :  Hamiltonian                  GFN2-xTB          :
          :  restarted?                       true          :
          :  GBSA solvation                   true          :
          :  PC potential                    false          :
          :  electronic temp.          300.0000000     K    :
          :  accuracy                    1.0000000          :
          :  -> integral cutoff          0.2500000E+02      :
          :  -> integral neglect         0.1000000E-07      :
          :  -> SCF convergence          0.1000000E-05 Eh   :
          :  -> wf. convergence          0.1000000E-03 e    :
          :  Broyden damping             0.4000000          :
          ...................................................

 iter      E             dE          RMSdq      gap      omega  full diag
   1  -3764.2381548 -0.376424E+04  0.373E-05   10.37       0.0  T
   2  -3764.2381548 -0.785349E-09  0.278E-05   10.37      60.4  T
   3  -3764.2381548 -0.994987E-09  0.141E-05   10.37     119.3  T

   *** convergence criteria satisfied after 3 iterations ***

         #    Occupation            Energy/Eh            Energy/eV
      -------------------------------------------------------------
         1        2.0000           -0.6179650             -16.8157
       ...           ...                  ...                  ...
      3517        2.0000           -0.3751904             -10.2095
      3518        2.0000           -0.3748024             -10.1989
      3519        2.0000           -0.3746972             -10.1960
      3520        2.0000           -0.3739019             -10.1744
      3521        2.0000           -0.3734936             -10.1633
      3522        2.0000           -0.3710982             -10.0981
      3523        2.0000           -0.3705918             -10.0843 (HOMO)
      3524                          0.0105548               0.2872 (LUMO)
      3525                          0.0112553               0.3063
      3526                          0.0142455               0.3876
      3527                          0.0147809               0.4022
      3528                          0.0159005               0.4327
       ...                                ...                  ...
      7046                          0.3779180              10.2837
      -------------------------------------------------------------
                  HL-Gap            0.3811466 Eh           10.3715 eV
             Fermi-level           -0.1800185 Eh           -4.8986 eV

 SCC (total)                   0 d,  0 h,  8 min, 54.106 sec
 SCC setup                      ...        0 min,  1.979 sec (  0.371%)
 Dispersion                     ...        0 min,  4.209 sec (  0.788%)
 classical contributions        ...        0 min,  0.163 sec (  0.031%)
 integral evaluation            ...        0 min,  7.210 sec (  1.350%)
 iterations                     ...        3 min, 47.323 sec ( 42.561%)
 molecular gradient             ...        4 min, 42.474 sec ( 52.887%)
 printout                       ...        0 min, 10.746 sec (  2.012%)

         :::::::::::::::::::::::::::::::::::::::::::::::::::::
         ::                     SUMMARY                     ::
         :::::::::::::::::::::::::::::::::::::::::::::::::::::
         :: total energy           -3715.349801234055 Eh    ::
         :: total w/o Gsasa/hb     -3715.239327475160 Eh    ::
         :: gradient norm              0.664945449585 Eh/a0 ::
         :: HOMO-LUMO gap             10.371526733814 eV    ::
         ::.................................................::
         :: SCC energy             -3764.238154784924 Eh    ::
         :: -> isotropic ES            0.440074766448 Eh    ::
         :: -> anisotropic ES          1.493523742671 Eh    ::
         :: -> anisotropic XC          2.299452198649 Eh    ::
         :: -> dispersion             -4.710990917692 Eh    ::
         :: -> Gsolv                  -0.048145230901 Eh    ::
         ::    -> Gelec                0.062328527995 Eh    ::
         ::    -> Gsasa               -0.105972707876 Eh    ::
         ::    -> Ghb                 -0.006358494146 Eh    ::
         ::    -> Gshift               0.001857443127 Eh    ::
         :: repulsion energy          48.152735173852 Eh    ::
         :: add. restraining           0.000000000000 Eh    ::
         :: total charge              -0.000000000006 e     ::
         :::::::::::::::::::::::::::::::::::::::::::::::::::::

      ----------------------------------------------------------- 
     |              Fast Inertial Relaxation Engine              |
      ----------------------------------------------------------- 

          ...................................................
          :                      SETUP                      :
          :.................................................:
          :   energy convergence        0.5000000E-05 Eh    :
          :   grad. convergence         0.1000000E-02 Eh/a0 :
          :   optimization log               true           :
          :   writing optlog all                1     steps :
          :   Hessian reset                    20     steps :
          :   time step scaling                 5     steps :
          :   maximium step len.        1.0000000     a0    :
          :   initial time step         0.2500000     fs    :
          :   maximum time step         1.2500000     fs    :
          :   power reset thr           0.0000000     au    :
          :   alpha parameter           0.1000000           :
          :   BFGS update                   false           :
          :   preconditioning               false           :
          ...................................................

........................................................................
.............................. CYCLE    1 ..............................
........................................................................

 iter      E             dE          RMSdq      gap      omega  full diag
   1  -3764.5002118 -0.376450E+04  0.761E-03   10.39       0.0  T
   2  -3764.5002557 -0.439515E-04  0.414E-03   10.39       1.0  T
   3  -3764.5002564 -0.694135E-06  0.180E-03   10.39       1.0  T
   4  -3764.5002570 -0.566177E-06  0.452E-04   10.39       3.7  T
   5  -3764.5002573 -0.289450E-06  0.179E-04   10.39       9.4  T
     SCC iter.                  ...        6 min, 11.302 sec
     gradient                   ...        4 min, 43.172 sec
 * total energy  : -3715.4001767 Eh     change    :  -0.5037545E-01 Eh
   gradient norm :     0.6322686 Eh/a0  converged?    E=F G=F D=F
   time step     :     0.2500000 fs     power     :   0.2606668E-05
   step length   :     0.0779302 a0     speed     :   0.7540164E-02

........................................................................
.............................. CYCLE    2 ..............................
........................................................................

 iter      E             dE          RMSdq      gap      omega  full diag
   1  -3764.8866169 -0.376489E+04  0.112E-02   10.41       0.0  T
   2  -3764.8867113 -0.943873E-04  0.607E-03   10.40       1.0  T
   3  -3764.8867129 -0.155151E-05  0.264E-03   10.40       1.0  T
   4  -3764.8867141 -0.123639E-05  0.672E-04   10.40       2.5  T
   5  -3764.8867147 -0.634093E-06  0.279E-04   10.40       6.0  T
   6  -3764.8867148 -0.553559E-07  0.135E-04   10.40      12.4  T
     SCC iter.                  ...        7 min, 26.047 sec
     gradient                   ...        4 min, 41.615 sec
 * total energy  : -3715.4700217 Eh     change    :  -0.6984497E-01 Eh
   gradient norm :     0.5858528 Eh/a0  converged?    E=F G=F D=F
   time step     :     0.2500000 fs     power     :   0.3561741E-05
   step length   :     0.1148901 a0     speed     :   0.1111623E-01

........................................................................
.............................. CYCLE    3 ..............................
........................................................................

 iter      E             dE          RMSdq      gap      omega  full diag
   1  -3765.3875020 -0.376539E+04  0.144E-02   10.42       0.0  T
   2  -3765.3876563 -0.154321E-03  0.782E-03   10.41       1.0  T
   3  -3765.3876588 -0.256440E-05  0.337E-03   10.41       1.0  T
   4  -3765.3876609 -0.201089E-05  0.863E-04   10.41       1.9  T
   5  -3765.3876619 -0.104436E-05  0.362E-04   10.41       4.7  T
   6  -3765.3876620 -0.904583E-07  0.172E-04   10.41       9.8  T
   7  -3765.3876620 -0.465352E-07  0.114E-04   10.41      14.8  T
     SCC iter.                  ...        8 min, 38.497 sec
     gradient                   ...        4 min, 41.482 sec
 * total energy  : -3715.5527346 Eh     change    :  -0.8271294E-01 Eh
   gradient norm :     0.5273893 Eh/a0  converged?    E=F G=F D=F
   time step     :     0.2500000 fs     power     :   0.4146763E-05
   step length   :     0.1491238 a0     speed     :   0.1442853E-01

........................................................................
.............................. CYCLE    4 ..............................
........................................................................

 iter      E             dE          RMSdq      gap      omega  full diag
   1  -3765.9901746 -0.376599E+04  0.172E-02   10.42       0.0  T
   2  -3765.9903892 -0.214563E-03  0.932E-03   10.42       1.0  T
   3  -3765.9903928 -0.358685E-05  0.396E-03   10.42       1.0  T
   4  -3765.9903954 -0.268736E-05  0.101E-03   10.42       1.7  T
   5  -3765.9903969 -0.141864E-05  0.423E-04   10.42       4.0  T
   6  -3765.9903970 -0.105199E-06  0.188E-04   10.42       8.9  T
   7  -3765.9903970 -0.526034E-07  0.124E-04   10.42      13.6  T
     SCC iter.                  ...        8 min, 38.730 sec
     gradient                   ...        4 min, 41.837 sec
 * total energy  : -3715.6407541 Eh     change    :  -0.8801949E-01 Eh
   gradient norm :     0.4607376 Eh/a0  converged?    E=F G=F D=F
   time step     :     0.2500000 fs     power     :   0.4323855E-05
   step length   :     0.1798020 a0     speed     :   0.1739681E-01

........................................................................
.............................. CYCLE    5 ..............................
........................................................................

 iter      E             dE          RMSdq      gap      omega  full diag
   1  -3766.6792310 -0.376668E+04  0.195E-02   10.43       0.0  T
   2  -3766.6794960 -0.265051E-03  0.105E-02   10.43       1.0  T
   3  -3766.6795007 -0.466561E-05  0.439E-03   10.43       1.0  T
   4  -3766.6795039 -0.322155E-05  0.112E-03   10.43       1.5  T
   5  -3766.6795056 -0.170814E-05  0.486E-04   10.43       3.5  T
   6  -3766.6795058 -0.131393E-06  0.207E-04   10.43       8.1  T
   7  -3766.6795058 -0.619375E-07  0.137E-04   10.42      12.3  T
     SCC iter.                  ...        8 min, 43.919 sec
     gradient                   ...        4 min, 40.373 sec
 * total energy  : -3715.7265295 Eh     change    :  -0.8577546E-01 Eh
   gradient norm :     0.3912006 Eh/a0  converged?    E=F G=F D=F
   time step     :     0.2500000 fs     power     :   0.4107258E-05
   step length   :     0.2062139 a0     speed     :   0.1995230E-01

........................................................................
.............................. CYCLE    6 ..............................
........................................................................

 iter      E             dE          RMSdq      gap      omega  full diag
   1  -3767.5195736 -0.376752E+04  0.235E-02   10.44       0.0  T
   2  -3767.5199367 -0.363170E-03  0.127E-02   10.44       1.0  T
   3  -3767.5199438 -0.703902E-05  0.513E-03   10.44       1.0  T
   4  -3767.5199480 -0.418944E-05  0.129E-03   10.44       1.3  T
   5  -3767.5199502 -0.219536E-05  0.594E-04   10.44       2.8  T
   6  -3767.5199504 -0.179432E-06  0.235E-04   10.43       7.2  T
   7  -3767.5199504 -0.772920E-07  0.158E-04   10.43      10.6  T
     SCC iter.                  ...        8 min, 29.308 sec
     gradient                   ...        4 min, 42.456 sec
 * total energy  : -3715.8109833 Eh     change    :  -0.8445373E-01 Eh
   gradient norm :     0.3201407 Eh/a0  converged?    E=F G=F D=F
   time step     :     0.2750000 fs     power     :   0.3492470E-05
   step length   :     0.2529190 a0     speed     :   0.2224662E-01

........................................................................
.............................. CYCLE    7 ..............................
........................................................................

 iter      E             dE          RMSdq      gap      omega  full diag
   1  -3768.5072390 -0.376851E+04  0.274E-02   10.45       0.0  T
   2  -3768.5076834 -0.444425E-03  0.147E-02   10.45       1.0  T
   3  -3768.5076937 -0.103279E-04  0.567E-03   10.45       1.0  T
   4  -3768.5076984 -0.471415E-05  0.139E-03   10.44       1.2  T
   5  -3768.5077007 -0.228824E-05  0.701E-04   10.44       2.4  T
   6  -3768.5077009 -0.225377E-06  0.249E-04   10.44       6.8  T
   7  -3768.5077010 -0.836731E-07  0.172E-04   10.44       9.8  T
     SCC iter.                  ...        8 min, 36.275 sec
     gradient                   ...        4 min, 41.173 sec
 * total energy  : -3715.8847223 Eh     change    :  -0.7373905E-01 Eh
   gradient norm :     0.2640758 Eh/a0  converged?    E=F G=F D=F
   time step     :     0.3025000 fs     power     :   0.2538138E-05
   step length   :     0.3008530 a0     speed     :   0.2405714E-01

........................................................................
.............................. CYCLE    8 ..............................
........................................................................

 iter      E             dE          RMSdq      gap      omega  full diag
   1  -3769.6072925 -0.376961E+04  0.305E-02   10.46       0.0  T
   2  -3769.6077527 -0.460176E-03  0.163E-02   10.46       1.0  T
   3  -3769.6077673 -0.146234E-04  0.580E-03   10.46       1.0  T
   4  -3769.6077716 -0.431010E-05  0.136E-03   10.45       1.2  T
   5  -3769.6077731 -0.150666E-05  0.774E-04   10.45       2.2  T
   6  -3769.6077734 -0.252378E-06  0.235E-04   10.45       7.2  T
   7  -3769.6077734 -0.711771E-07  0.170E-04   10.45       9.9  T
     SCC iter.                  ...        8 min, 42.611 sec
     gradient                   ...        4 min, 43.109 sec
 * total energy  : -3715.9397233 Eh     change    :  -0.5500098E-01 Eh
   gradient norm :     0.2429445 Eh/a0  converged?    E=F G=F D=F
   time step     :     0.3327500 fs     power     :   0.1454327E-05
   step length   :     0.3445403 a0     speed     :   0.2504593E-01

........................................................................
.............................. CYCLE    9 ..............................
........................................................................

 iter      E             dE          RMSdq      gap      omega  full diag
   1  -3770.7370143 -0.377074E+04  0.323E-02   10.47       0.0  T
   2  -3770.7373910 -0.376645E-03  0.174E-02   10.47       1.0  T
   3  -3770.7374094 -0.184480E-04  0.537E-03   10.47       1.0  T
   4  -3770.7374129 -0.350559E-05  0.130E-03   10.47       1.3  T
   5  -3770.7374135 -0.567406E-06  0.759E-04   10.47       2.2  T
   6  -3770.7374137 -0.224750E-06  0.182E-04   10.47       9.3  T
     SCC iter.                  ...        7 min, 26.424 sec
     gradient                   ...        4 min, 42.231 sec
 * total energy  : -3715.9736598 Eh     change    :  -0.3393648E-01 Eh
   gradient norm :     0.2520467 Eh/a0  converged?    E=F G=F D=F
   time step     :     0.3660250 fs     power     :   0.5456541E-06
   step length   :     0.3764429 a0     speed     :   0.2487731E-01

........................................................................
.............................. CYCLE   10 ..............................
........................................................................

 iter      E             dE          RMSdq      gap      omega  full diag
   1  -3771.7840089 -0.377178E+04  0.331E-02   10.49       0.0  T
   2  -3771.7842502 -0.241329E-03  0.184E-02   10.48       1.0  T
   3  -3771.7842660 -0.157531E-04  0.470E-03   10.48       1.0  T
   4  -3771.7842742 -0.818306E-05  0.144E-03   10.48       1.2  T
   5  -3771.7842752 -0.106737E-05  0.812E-04   10.48       2.1  T
   6  -3771.7842754 -0.141862E-06  0.146E-04   10.48      11.6  T
   7  -3771.7842754 -0.249684E-07  0.111E-04   10.48      15.2  T
     SCC iter.                  ...        8 min, 31.469 sec
     gradient                   ...        4 min, 41.987 sec
 * total energy  : -3715.9904593 Eh     change    :  -0.1679948E-01 Eh
   gradient norm :     0.2617687 Eh/a0  converged?    E=F G=F D=F
   time step     :     0.4026275 fs     power     :  -0.3980414E-07
   step length   :     0.3943078 a0     speed     :   0.2368902E-01

........................................................................
.............................. CYCLE   11 ..............................
........................................................................
 * reset velocities

 iter      E             dE          RMSdq      gap      omega  full diag
   1  -3771.7653964 -0.377177E+04  0.105E-03   10.48       0.0  T
   2  -3771.7653973 -0.851818E-06  0.646E-04   10.48       2.6  T
   3  -3771.7653973 -0.118152E-07  0.273E-04   10.48       6.2  T
     SCC iter.                  ...        3 min, 40.121 sec
     gradient                   ...        4 min, 41.345 sec
 * total energy  : -3715.9930313 Eh     change    :  -0.2572035E-02 Eh
   gradient norm :     0.2554764 Eh/a0  converged?    E=F G=F D=F
   time step     :     0.2013138 fs     power     :   0.1674900E-06
   step length   :     0.0099466 a0     speed     :   0.1195132E-02

........................................................................
.............................. CYCLE   12 ..............................
........................................................................

 iter      E             dE          RMSdq      gap      omega  full diag
   1  -3771.7281194 -0.377173E+04  0.211E-03   10.48       0.0  T
   2  -3771.7281226 -0.319783E-05  0.130E-03   10.48       1.3  T
   3  -3771.7281226 -0.294503E-07  0.527E-04   10.48       3.2  T
   4  -3771.7281227 -0.861446E-07  0.138E-04   10.48      12.2  T
     SCC iter.                  ...        4 min, 58.407 sec
     gradient                   ...        4 min, 41.348 sec
 * total energy  : -3715.9979313 Eh     change    :  -0.4900031E-02 Eh
   gradient norm :     0.2432162 Eh/a0  converged?    E=F G=F D=F
   time step     :     0.2013138 fs     power     :   0.3149990E-06
   step length   :     0.0196539 a0     speed     :   0.2361512E-02

........................................................................
.............................. CYCLE   13 ..............................
........................................................................

 iter      E             dE          RMSdq      gap      omega  full diag
   1  -3771.6733947 -0.377167E+04  0.304E-03   10.48       0.0  T
   2  -3771.6734019 -0.720267E-05  0.187E-03   10.48       1.0  T
   3  -3771.6734020 -0.109761E-06  0.794E-04   10.48       2.1  T
   4  -3771.6734022 -0.195474E-06  0.211E-04   10.48       8.0  T
     SCC iter.                  ...        5 min,  0.679 sec
     gradient                   ...        4 min, 43.526 sec
 * total energy  : -3716.0046993 Eh     change    :  -0.6767961E-02 Eh
   gradient norm :     0.2254640 Eh/a0  converged?    E=F G=F D=F
   time step     :     0.2013138 fs     power     :   0.4289699E-06
   step length   :     0.0288937 a0     speed     :   0.3471726E-02

........................................................................
.............................. CYCLE   14 ..............................
........................................................................

 iter      E             dE          RMSdq      gap      omega  full diag
   1  -3771.6026597 -0.377160E+04  0.392E-03   10.48       0.0  T
   2  -3771.6026717 -0.120458E-04  0.241E-03   10.48       1.0  T
   3  -3771.6026719 -0.190917E-06  0.103E-03   10.48       1.6  T
   4  -3771.6026723 -0.326669E-06  0.275E-04   10.48       6.1  T
   5  -3771.6026724 -0.954601E-07  0.751E-05   10.48      22.4  T
     SCC iter.                  ...        6 min,  5.020 sec
     gradient                   ...        4 min, 41.721 sec
 * total energy  : -3716.0127102 Eh     change    :  -0.8010899E-02 Eh
   gradient norm :     0.2029925 Eh/a0  converged?    E=F G=F D=F
   time step     :     0.2013138 fs     power     :   0.4996005E-06
   step length   :     0.0374529 a0     speed     :   0.4500147E-02

........................................................................
.............................. CYCLE   15 ..............................
........................................................................

 iter      E             dE          RMSdq      gap      omega  full diag
   1  -3771.5178577 -0.377152E+04  0.469E-03   10.48       0.0  T
   2  -3771.5178751 -0.173878E-04  0.289E-03   10.48       1.0  T
   3  -3771.5178754 -0.280869E-06  0.123E-03   10.48       1.4  T
   4  -3771.5178758 -0.455103E-06  0.329E-04   10.48       5.1  T
   5  -3771.5178760 -0.136322E-06  0.893E-05   10.48      18.8  T
     SCC iter.                  ...        6 min, 16.697 sec
     gradient                   ...        4 min, 42.633 sec
 * total energy  : -3716.0212436 Eh     change    :  -0.8533370E-02 Eh
   gradient norm :     0.1768578 Eh/a0  converged?    E=F G=F D=F
   time step     :     0.2013138 fs     power     :   0.5218654E-06
   step length   :     0.0451401 a0     speed     :   0.5423802E-02

........................................................................
.............................. CYCLE   16 ..............................
........................................................................

 iter      E             dE          RMSdq      gap      omega  full diag
   1  -3771.4214964 -0.377142E+04  0.533E-03   10.48       0.0  T
   2  -3771.4215190 -0.225518E-04  0.329E-03   10.49       1.0  T
   3  -3771.4215193 -0.369800E-06  0.140E-03   10.49       1.2  T
   4  -3771.4215199 -0.578500E-06  0.375E-04   10.49       4.5  T
   5  -3771.4215201 -0.175920E-06  0.102E-04   10.49      16.5  T
     SCC iter.                  ...        6 min, 12.698 sec
     gradient                   ...        4 min, 43.736 sec
 * total energy  : -3716.0295671 Eh     change    :  -0.8323543E-02 Eh
   gradient norm :     0.1486484 Eh/a0  converged?    E=F G=F D=F
   time step     :     0.2013138 fs     power     :   0.4964682E-06
   step length   :     0.0517874 a0     speed     :   0.6222507E-02

........................................................................
.............................. CYCLE   17 ..............................
........................................................................

 iter      E             dE          RMSdq      gap      omega  full diag
   1  -3771.3052543 -0.377131E+04  0.644E-03   10.49       0.0  T
   2  -3771.3052874 -0.331150E-04  0.398E-03   10.49       1.0  T
   3  -3771.3052879 -0.547096E-06  0.169E-03   10.49       1.0  T
   4  -3771.3052887 -0.827078E-06  0.453E-04   10.49       3.7  T
   5  -3771.3052890 -0.255846E-06  0.121E-04   10.49      13.8  T
     SCC iter.                  ...        6 min, 19.531 sec
     gradient                   ...        4 min, 42.890 sec
 * total energy  : -3716.0377407 Eh     change    :  -0.8173606E-02 Eh
   gradient norm :     0.1179389 Eh/a0  converged?    E=F G=F D=F
   time step     :     0.2214451 fs     power     :   0.4209141E-06
   step length   :     0.0635829 a0     speed     :   0.6945267E-02

........................................................................
.............................. CYCLE   18 ..............................
........................................................................

 iter      E             dE          RMSdq      gap      omega  full diag
   1  -3771.1713476 -0.377117E+04  0.748E-03   10.49       0.0  T
   2  -3771.1713923 -0.447661E-04  0.464E-03   10.49       1.0  T
   3  -3771.1713931 -0.741923E-06  0.196E-03   10.49       1.0  T
   4  -3771.1713942 -0.109193E-05  0.528E-04   10.49       3.2  T
   5  -3771.1713945 -0.343739E-06  0.141E-04   10.49      12.0  T
   6  -3771.1713945 -0.182727E-07  0.997E-05   10.49      16.9  T
     SCC iter.                  ...        7 min, 30.479 sec
     gradient                   ...        4 min, 41.033 sec
 * total energy  : -3716.0447629 Eh     change    :  -0.7022195E-02 Eh
   gradient norm :     0.0909807 Eh/a0  converged?    E=F G=F D=F
   time step     :     0.2435896 fs     power     :   0.2988440E-06
   step length   :     0.0757961 a0     speed     :   0.7526675E-02

........................................................................
.............................. CYCLE   19 ..............................
........................................................................

 iter      E             dE          RMSdq      gap      omega  full diag
   1  -3771.0283127 -0.377103E+04  0.819E-03   10.49       0.0  T
   2  -3771.0283658 -0.531144E-04  0.512E-03   10.50       1.0  T
   3  -3771.0283666 -0.834063E-06  0.214E-03   10.50       1.0  T
   4  -3771.0283679 -0.127897E-05  0.573E-04   10.50       2.9  T
   5  -3771.0283683 -0.401540E-06  0.141E-04   10.50      11.9  T
   6  -3771.0283683 -0.159134E-07  0.961E-05   10.50      17.5  T
     SCC iter.                  ...        7 min, 25.047 sec
     gradient                   ...        4 min, 42.117 sec
 * total energy  : -3716.0497082 Eh     change    :  -0.4945317E-02 Eh
   gradient norm :     0.0813375 Eh/a0  converged?    E=F G=F D=F
   time step     :     0.2679486 fs     power     :   0.1554576E-06
   step length   :     0.0870091 a0     speed     :   0.7854680E-02

........................................................................
.............................. CYCLE   20 ..............................
........................................................................

 iter      E             dE          RMSdq      gap      omega  full diag
   1  -3770.8946285 -0.377089E+04  0.819E-03   10.50       0.0  T
   2  -3770.8946790 -0.505223E-04  0.517E-03   10.50       1.0  T
   3  -3770.8946797 -0.681946E-06  0.208E-03   10.50       1.0  T
   4  -3770.8946810 -0.130942E-05  0.563E-04   10.50       3.0  T
   5  -3770.8946814 -0.384737E-06  0.140E-04   10.50      12.0  T
   6  -3770.8946814 -0.137575E-07  0.898E-05   10.50      18.7  T
     SCC iter.                  ...        7 min, 27.008 sec
     gradient                   ...        4 min, 41.131 sec
 * total energy  : -3716.0523966 Eh     change    :  -0.2688415E-02 Eh
   gradient norm :     0.0952092 Eh/a0  converged?    E=F G=F D=F
   time step     :     0.2947435 fs     power     :   0.4314254E-07
   step length   :     0.0945627 a0     speed     :   0.7760517E-02
 * RMSD in coord.:     0.0372719 a0     energy gain  -0.7025954E+00 Eh

........................................................................
.............................. CYCLE   21 ..............................
........................................................................

 iter      E             dE          RMSdq      gap      omega  full diag
   1  -3770.8136075 -0.377081E+04  0.581E-03   10.51       0.0  T
   2  -3770.8136294 -0.218678E-04  0.370E-03   10.51       1.0  T
   3  -3770.8136296 -0.158012E-06  0.136E-03   10.51       1.2  T
   4  -3770.8136303 -0.728785E-06  0.373E-04   10.51       4.5  T
   5  -3770.8136305 -0.170517E-06  0.101E-04   10.51      16.6  T
     SCC iter.                  ...        6 min, 17.287 sec
     gradient                   ...        4 min, 40.531 sec
 * total energy  : -3716.0536358 Eh     change    :  -0.1239212E-02 Eh
   gradient norm :     0.1119137 Eh/a0  converged?    E=F G=F D=F
   time step     :     0.2500000 fs     power     :   0.2383890E-07
   step length   :     0.0748658 a0     speed     :   0.7243667E-02

........................................................................
.............................. CYCLE   22 ..............................
........................................................................

 iter      E             dE          RMSdq      gap      omega  full diag
   1  -3770.7677086 -0.377077E+04  0.478E-03   10.51       0.0  T
   2  -3770.7677188 -0.102213E-04  0.305E-03   10.51       1.0  T
   3  -3770.7677187  0.102334E-06  0.886E-04   10.51       1.9  T
   4  -3770.7677193 -0.564760E-06  0.256E-04   10.52       6.6  T
     SCC iter.                  ...        4 min, 54.413 sec
     gradient                   ...        4 min, 42.496 sec
 * total energy  : -3716.0551723 Eh     change    :  -0.1536448E-02 Eh
   gradient norm :     0.1239466 Eh/a0  converged?    E=F G=F D=F
   time step     :     0.2500000 fs     power     :   0.5814371E-07
   step length   :     0.0695605 a0     speed     :   0.6730352E-02

........................................................................
.............................. CYCLE   23 ..............................
........................................................................

 iter      E             dE          RMSdq      gap      omega  full diag
   1  -3770.7562117 -0.377076E+04  0.417E-03   10.52       0.0  T
   2  -3770.7562148 -0.313144E-05  0.261E-03   10.52       1.0  T
   3  -3770.7562147  0.126811E-06  0.408E-04   10.52       4.1  T
   4  -3770.7562150 -0.347622E-06  0.152E-04   10.52      11.1  T
     SCC iter.                  ...        5 min,  3.701 sec
     gradient                   ...        4 min, 41.491 sec
 * total energy  : -3716.0576793 Eh     change    :  -0.2507022E-02 Eh
   gradient norm :     0.1288602 Eh/a0  converged?    E=F G=F D=F
   time step     :     0.2500000 fs     power     :   0.1202168E-06
   step length   :     0.0659371 a0     speed     :   0.6379772E-02

........................................................................
.............................. CYCLE   24 ..............................
........................................................................

 iter      E             dE          RMSdq      gap      omega  full diag
   1  -3770.7766841 -0.377078E+04  0.409E-03   10.53       0.0  T
   2  -3770.7766846 -0.504091E-06  0.246E-03   10.53       1.0  T
   3  -3770.7766847 -0.900523E-07  0.184E-04   10.53       9.1  T
   4  -3770.7766847 -0.475097E-07  0.101E-04   10.53      16.7  T
     SCC iter.                  ...        4 min, 56.021 sec
     gradient                   ...        4 min, 41.563 sec
 * total energy  : -3716.0613609 Eh     change    :  -0.3681590E-02 Eh
   gradient norm :     0.1266087 Eh/a0  converged?    E=F G=F D=F
   time step     :     0.2500000 fs     power     :   0.1858382E-06
   step length   :     0.0645695 a0     speed     :   0.6247449E-02

........................................................................
.............................. CYCLE   25 ..............................
........................................................................

 iter      E             dE          RMSdq      gap      omega  full diag
   1  -3770.8257783 -0.377083E+04  0.444E-03   10.54       0.0  T
   2  -3770.8257796 -0.131860E-05  0.258E-03   10.54       1.0  T
   3  -3770.8257796 -0.200498E-07  0.366E-04   10.54       4.6  T
   4  -3770.8257798 -0.154991E-06  0.116E-04   10.54      14.5  T
     SCC iter.                  ...        5 min,  4.961 sec
     gradient                   ...        4 min, 42.899 sec
 * total energy  : -3716.0660504 Eh     change    :  -0.4689533E-02 Eh
   gradient norm :     0.1181796 Eh/a0  converged?    E=F G=F D=F
   time step     :     0.2500000 fs     power     :   0.2372415E-06
   step length   :     0.0652712 a0     speed     :   0.6315338E-02

........................................................................
.............................. CYCLE   26 ..............................
........................................................................

 iter      E             dE          RMSdq      gap      omega  full diag
   1  -3770.9085792 -0.377091E+04  0.552E-03   10.55       0.0  T
   2  -3770.9085848 -0.557246E-05  0.315E-03   10.54       1.0  T
   3  -3770.9085847  0.124981E-06  0.768E-04   10.54       2.2  T
   4  -3770.9085851 -0.484835E-06  0.174E-04   10.54       9.7  T
     SCC iter.                  ...        4 min, 57.991 sec
     gradient                   ...        4 min, 40.684 sec
 * total energy  : -3716.0719191 Eh     change    :  -0.5868615E-02 Eh
   gradient norm :     0.1036753 Eh/a0  converged?    E=F G=F D=F
   time step     :     0.2750000 fs     power     :   0.2639645E-06
   step length   :     0.0747182 a0     speed     :   0.6572170E-02

........................................................................
.............................. CYCLE   27 ..............................
........................................................................

 iter      E             dE          RMSdq      gap      omega  full diag
   1  -3771.0266381 -0.377103E+04  0.683E-03   10.55       0.0  T
   2  -3771.0266513 -0.132343E-04  0.386E-03   10.55       1.0  T
   3  -3771.0266511  0.179061E-06  0.114E-03   10.55       1.5  T
   4  -3771.0266519 -0.825125E-06  0.252E-04   10.55       6.7  T
   5  -3771.0266520 -0.100630E-06  0.123E-04   10.55      13.6  T
     SCC iter.                  ...        6 min, 10.154 sec
     gradient                   ...        4 min, 42.742 sec
 * total energy  : -3716.0784309 Eh     change    :  -0.6511881E-02 Eh
   gradient norm :     0.0854661 Eh/a0  converged?    E=F G=F D=F
   time step     :     0.3025000 fs     power     :   0.2557210E-06
   step length   :     0.0869213 a0     speed     :   0.6950497E-02

........................................................................
.............................. CYCLE   28 ..............................
........................................................................

 iter      E             dE          RMSdq      gap      omega  full diag
   1  -3771.1775916 -0.377118E+04  0.810E-03   10.56       0.0  T
   2  -3771.1776142 -0.225728E-04  0.457E-03   10.56       1.0  T
   3  -3771.1776140  0.171438E-06  0.144E-03   10.56       1.2  T
   4  -3771.1776151 -0.108292E-05  0.323E-04   10.56       5.2  T
   5  -3771.1776153 -0.167197E-06  0.139E-04   10.56      12.1  T
   6  -3771.1776153 -0.211680E-07  0.858E-05   10.56      19.6  T
     SCC iter.                  ...        7 min, 19.391 sec
     gradient                   ...        4 min, 41.529 sec
 * total energy  : -3716.0847788 Eh     change    :  -0.6347885E-02 Eh
   gradient norm :     0.0701619 Eh/a0  converged?    E=F G=F D=F
   time step     :     0.3327500 fs     power     :   0.2130574E-06
   step length   :     0.1011922 a0     speed     :   0.7356042E-02

........................................................................
.............................. CYCLE   29 ..............................
........................................................................

 iter      E             dE          RMSdq      gap      omega  full diag
   1  -3771.3502532 -0.377135E+04  0.896E-03   10.57       0.0  T
   2  -3771.3502811 -0.278776E-04  0.503E-03   10.57       1.0  T
   3  -3771.3502809  0.147361E-06  0.155E-03   10.57       1.1  T
   4  -3771.3502820 -0.112846E-05  0.355E-04   10.57       4.7  T
   5  -3771.3502823 -0.202405E-06  0.140E-04   10.57      12.1  T
   6  -3771.3502823 -0.181390E-07  0.831E-05   10.57      20.2  T
     SCC iter.                  ...        7 min, 19.783 sec
     gradient                   ...        4 min, 40.643 sec
 * total energy  : -3716.0902763 Eh     change    :  -0.5497460E-02 Eh
   gradient norm :     0.0675237 Eh/a0  converged?    E=F G=F D=F
   time step     :     0.3660250 fs     power     :   0.1559500E-06
   step length   :     0.1159919 a0     speed     :   0.7665350E-02

........................................................................
.............................. CYCLE   30 ..............................
........................................................................

 iter      E             dE          RMSdq      gap      omega  full diag
   1  -3771.5207949 -0.377152E+04  0.901E-03   10.58       0.0  T
   2  -3771.5208176 -0.226196E-04  0.504E-03   10.58       1.0  T
   3  -3771.5208176  0.962928E-08  0.135E-03   10.58       1.2  T
   4  -3771.5208183 -0.775363E-06  0.313E-04   10.58       5.4  T
   5  -3771.5208185 -0.150838E-06  0.133E-04   10.58      12.6  T
     SCC iter.                  ...        6 min,  9.471 sec
     gradient                   ...        4 min, 40.776 sec
 * total energy  : -3716.0949953 Eh     change    :  -0.4719024E-02 Eh
   gradient norm :     0.0759638 Eh/a0  converged?    E=F G=F D=F
   time step     :     0.4026275 fs     power     :   0.1196606E-06
   step length   :     0.1290822 a0     speed     :   0.7754935E-02

........................................................................
.............................. CYCLE   31 ..............................
........................................................................

 iter      E             dE          RMSdq      gap      omega  full diag
   1  -3771.6618389 -0.377166E+04  0.838E-03   10.59       0.0  T
   2  -3771.6618492 -0.103533E-04  0.472E-03   10.59       1.0  T
   3  -3771.6618495 -0.277641E-06  0.866E-04   10.59       1.9  T
   4  -3771.6618498 -0.238323E-06  0.205E-04   10.59       8.2  T
     SCC iter.                  ...        4 min, 55.958 sec
     gradient                   ...        4 min, 41.369 sec
 * total energy  : -3716.0998665 Eh     change    :  -0.4871204E-02 Eh
   gradient norm :     0.0822987 Eh/a0  converged?    E=F G=F D=F
   time step     :     0.4428903 fs     power     :   0.1209019E-06
   step length   :     0.1409892 a0     speed     :   0.7700247E-02

........................................................................
.............................. CYCLE   32 ..............................
........................................................................

 iter      E             dE          RMSdq      gap      omega  full diag
   1  -3771.7506049 -0.377175E+04  0.772E-03   10.60       0.0  T
   2  -3771.7506076 -0.274637E-05  0.452E-03   10.60       1.0  T
   3  -3771.7506075  0.142992E-06  0.622E-04   10.60       2.7  T
   4  -3771.7506082 -0.696442E-06  0.187E-04   10.60       9.0  T
     SCC iter.                  ...        4 min, 53.114 sec
     gradient                   ...        4 min, 41.122 sec
 * total energy  : -3716.1058116 Eh     change    :  -0.5945101E-02 Eh
   gradient norm :     0.0781758 Eh/a0  converged?    E=F G=F D=F
   time step     :     0.4871793 fs     power     :   0.1404934E-06
   step length   :     0.1550363 a0     speed     :   0.7697677E-02

........................................................................
.............................. CYCLE   33 ..............................
........................................................................

 iter      E             dE          RMSdq      gap      omega  full diag
   1  -3771.7724407 -0.377177E+04  0.771E-03   10.60       0.0  T
   2  -3771.7724512 -0.105658E-04  0.483E-03   10.61       1.0  T
   3  -3771.7724498  0.143160E-05  0.115E-03   10.61       1.5  T
   4  -3771.7724524 -0.264442E-05  0.224E-04   10.61       7.5  T
   5  -3771.7724525 -0.354403E-07  0.126E-04   10.61      13.3  T
   6  -3771.7724525 -0.786349E-08  0.542E-05   10.61      31.0  T
     SCC iter.                  ...        7 min, 20.732 sec
     gradient                   ...        4 min, 39.656 sec
 * total energy  : -3716.1127001 Eh     change    :  -0.6888506E-02 Eh
   gradient norm :     0.0651716 Eh/a0  converged?    E=F G=F D=F
   time step     :     0.5358972 fs     power     :   0.1421970E-06
   step length   :     0.1736170 a0     speed     :   0.7836568E-02

........................................................................
.............................. CYCLE   34 ..............................
........................................................................

 iter      E             dE          RMSdq      gap      omega  full diag
   1  -3771.7300484 -0.377173E+04  0.832E-03   10.61       0.0  T
   2  -3771.7300789 -0.304482E-04  0.542E-03   10.62       1.0  T
   3  -3771.7300783  0.608135E-06  0.170E-03   10.62       1.0  T
   4  -3771.7300807 -0.241067E-05  0.400E-04   10.62       4.2  T
   5  -3771.7300809 -0.222470E-06  0.160E-04   10.62      10.5  T
   6  -3771.7300809 -0.186560E-07  0.864E-05   10.62      19.5  T
     SCC iter.                  ...        7 min, 16.033 sec
     gradient                   ...        4 min, 42.019 sec
 * total energy  : -3716.1193060 Eh     change    :  -0.6605873E-02 Eh
   gradient norm :     0.0577354 Eh/a0  converged?    E=F G=F D=F
   time step     :     0.5894869 fs     power     :   0.1112715E-06
   step length   :     0.1959580 a0     speed     :   0.8040888E-02

........................................................................
.............................. CYCLE   35 ..............................
........................................................................

 iter      E             dE          RMSdq      gap      omega  full diag
   1  -3771.6617474 -0.377166E+04  0.887E-03   10.63       0.0  T
   2  -3771.6617827 -0.353008E-04  0.570E-03   10.63       1.0  T
   3  -3771.6617825  0.128596E-06  0.163E-03   10.63       1.0  T
   4  -3771.6617842 -0.166701E-05  0.499E-04   10.63       3.4  T
   5  -3771.6617845 -0.312846E-06  0.179E-04   10.63       9.4  T
   6  -3771.6617845 -0.196474E-07  0.836E-05   10.63      20.1  T
     SCC iter.                  ...        7 min, 21.226 sec
     gradient                   ...        4 min, 41.530 sec
 * total energy  : -3716.1250479 Eh     change    :  -0.5741957E-02 Eh
   gradient norm :     0.0638250 Eh/a0  converged?    E=F G=F D=F
   time step     :     0.6484356 fs     power     :   0.8367102E-07
   step length   :     0.2177843 a0     speed     :   0.8124093E-02

........................................................................
.............................. CYCLE   36 ..............................
........................................................................

 iter      E             dE          RMSdq      gap      omega  full diag
   1  -3771.6294446 -0.377163E+04  0.990E-03   10.65       0.0  T
   2  -3771.6294602 -0.156585E-04  0.596E-03   10.65       1.0  T
   3  -3771.6294610 -0.733754E-06  0.904E-04   10.65       1.9  T
   4  -3771.6294614 -0.493034E-06  0.325E-04   10.65       5.2  T
     SCC iter.                  ...        4 min, 56.842 sec
     gradient                   ...        4 min, 42.982 sec
 * total energy  : -3716.1310849 Eh     change    :  -0.6036917E-02 Eh
   gradient norm :     0.0639431 Eh/a0  converged?    E=F G=F D=F
   time step     :     0.7132792 fs     power     :   0.8659100E-07
   step length   :     0.2384843 a0     speed     :   0.8087519E-02

........................................................................
.............................. CYCLE   37 ..............................
........................................................................

 iter      E             dE          RMSdq      gap      omega  full diag
   1  -3771.6792927 -0.377168E+04  0.120E-02   10.68       0.0  T
   2  -3771.6793008 -0.808776E-05  0.694E-03   10.68       1.0  T
   3  -3771.6793006  0.187109E-06  0.122E-03   10.68       1.4  T
   4  -3771.6793027 -0.203826E-05  0.345E-04   10.68       4.9  T
   5  -3771.6793027 -0.155110E-07  0.124E-04   10.68      13.5  T
   6  -3771.6793027 -0.584896E-08  0.305E-05   10.68      55.2  T
     SCC iter.                  ...        7 min, 23.000 sec
     gradient                   ...        4 min, 41.671 sec
 * total energy  : -3716.1377412 Eh     change    :  -0.6656355E-02 Eh
   gradient norm :     0.0522355 Eh/a0  converged?    E=F G=F D=F
   time step     :     0.7846071 fs     power     :   0.8094894E-07
   step length   :     0.2636290 a0     speed     :   0.8127483E-02

........................................................................
.............................. CYCLE   38 ..............................
........................................................................

 iter      E             dE          RMSdq      gap      omega  full diag
   1  -3771.8102717 -0.377181E+04  0.132E-02   10.71       0.0  T
   2  -3771.8102953 -0.236797E-04  0.765E-03   10.71       1.0  T
   3  -3771.8102942  0.114117E-05  0.172E-03   10.71       1.0  T
   4  -3771.8102976 -0.338394E-05  0.362E-04   10.71       4.6  T
   5  -3771.8102977 -0.111830E-06  0.179E-04   10.71       9.4  T
   6  -3771.8102977 -0.954151E-08  0.602E-05   10.71      27.9  T
     SCC iter.                  ...        7 min, 32.983 sec
     gradient                   ...        4 min, 44.509 sec
 * total energy  : -3716.1432942 Eh     change    :  -0.5553011E-02 Eh
   gradient norm :     0.0535259 Eh/a0  converged?    E=F G=F D=F
   time step     :     0.8630678 fs     power     :   0.4700019E-07
   step length   :     0.2917868 a0     speed     :   0.8177789E-02

........................................................................
.............................. CYCLE   39 ..............................
........................................................................

 iter      E             dE          RMSdq      gap      omega  full diag
   1  -3771.9458231 -0.377195E+04  0.119E-02   10.74       0.0  T
   2  -3771.9458376 -0.144977E-04  0.690E-03   10.74       1.0  T
   3  -3771.9458380 -0.362188E-06  0.103E-03   10.74       1.6  T
   4  -3771.9458388 -0.799260E-06  0.275E-04   10.74       6.1  T
   5  -3771.9458388 -0.480386E-07  0.144E-04   10.74      11.7  T
     SCC iter.                  ...        6 min,  7.189 sec
     gradient                   ...        4 min, 43.094 sec
 * total energy  : -3716.1483289 Eh     change    :  -0.5034680E-02 Eh
   gradient norm :     0.0583507 Eh/a0  converged?    E=F G=F D=F
   time step     :     0.9493746 fs     power     :   0.4291532E-07
   step length   :     0.3154869 a0     speed     :   0.8038201E-02

........................................................................
.............................. CYCLE   40 ..............................
........................................................................

 iter      E             dE          RMSdq      gap      omega  full diag
   1  -3772.0156799 -0.377202E+04  0.116E-02   10.77       0.0  T
   2  -3772.0156955 -0.156434E-04  0.692E-03   10.77       1.0  T
   3  -3772.0156935  0.202996E-05  0.159E-03   10.77       1.1  T
   4  -3772.0156982 -0.464852E-05  0.335E-04   10.77       5.0  T
   5  -3772.0156982 -0.384925E-07  0.182E-04   10.77       9.3  T
   6  -3772.0156982 -0.177247E-07  0.705E-05   10.77      23.8  T
     SCC iter.                  ...        7 min, 18.477 sec
     gradient                   ...        4 min, 41.701 sec
 * total energy  : -3716.1542665 Eh     change    :  -0.5937546E-02 Eh
   gradient norm :     0.0496401 Eh/a0  converged?    E=F G=F D=F
   time step     :     1.0443120 fs     power     :   0.4514904E-07
   step length   :     0.3434787 a0     speed     :   0.7955815E-02

........................................................................
.............................. CYCLE   41 ..............................
........................................................................

 iter      E             dE          RMSdq      gap      omega  full diag
   1  -3772.0366582 -0.377204E+04  0.126E-02   10.79       0.0  T
   2  -3772.0366897 -0.315044E-04  0.778E-03   10.79       1.0  T
   3  -3772.0366877  0.200147E-05  0.179E-03   10.79       1.0  T
   4  -3772.0366927 -0.505698E-05  0.431E-04   10.79       3.9  T
   5  -3772.0366929 -0.175251E-06  0.229E-04   10.79       7.3  T
   6  -3772.0366929 -0.341756E-07  0.105E-04   10.79      16.0  T
     SCC iter.                  ...        7 min, 26.239 sec
     gradient                   ...        4 min, 42.817 sec
 * total energy  : -3716.1593735 Eh     change    :  -0.5107084E-02 Eh
   gradient norm :     0.0501535 Eh/a0  converged?    E=F G=F D=F
   time step     :     1.1487432 fs     power     :   0.2281482E-07
   step length   :     0.3762847 a0     speed     :   0.7923348E-02

........................................................................
.............................. CYCLE   42 ..............................
........................................................................

 iter      E             dE          RMSdq      gap      omega  full diag
   1  -3772.1039200 -0.377210E+04  0.140E-02   10.82       0.0  T
   2  -3772.1039283 -0.832831E-05  0.817E-03   10.82       1.0  T
   3  -3772.1039286 -0.280302E-06  0.101E-03   10.82       1.7  T
   4  -3772.1039298 -0.120440E-05  0.324E-04   10.82       5.2  T
   5  -3772.1039298 -0.272425E-07  0.157E-04   10.82      10.7  T
   6  -3772.1039299 -0.981527E-08  0.472E-05   10.82      35.6  T
     SCC iter.                  ...        7 min, 22.333 sec
     gradient                   ...        4 min, 41.665 sec
 * total energy  : -3716.1635657 Eh     change    :  -0.4192135E-02 Eh
   gradient norm :     0.0472089 Eh/a0  converged?    E=F G=F D=F
   time step     :     1.2500000 fs     power     :   0.1040974E-07
   step length   :     0.4006849 a0     speed     :   0.7753684E-02
 * RMSD in coord.:     0.0597262 a0     energy gain  -0.1111690E+00 Eh

........................................................................
.............................. CYCLE   43 ..............................
........................................................................

 iter      E             dE          RMSdq      gap      omega  full diag
   1  -3772.1178478 -0.377212E+04  0.237E-03   10.83       0.0  T
   2  -3772.1178480 -0.278130E-06  0.137E-03   10.83       1.2  T
   3  -3772.1178480  0.160080E-07  0.209E-04   10.83       8.1  T
   4  -3772.1178481 -0.612654E-07  0.516E-05   10.83      32.6  T
     SCC iter.                  ...        4 min, 52.398 sec
     gradient                   ...        4 min, 41.088 sec
 * total energy  : -3716.1641709 Eh     change    :  -0.6051972E-03 Eh
   gradient norm :     0.0474785 Eh/a0  converged?    E=F G=F D=F
   time step     :     0.2500000 fs     power     :   0.2786896E-07
   step length   :     0.0734751 a0     speed     :   0.7109111E-02

........................................................................
.............................. CYCLE   44 ..............................
........................................................................

 iter      E             dE          RMSdq      gap      omega  full diag
   1  -3772.1311673 -0.377213E+04  0.227E-03   10.84       0.0  T
   2  -3772.1311678 -0.554777E-06  0.133E-03   10.84       1.3  T
   3  -3772.1311678  0.239706E-07  0.244E-04   10.84       6.9  T
   4  -3772.1311679 -0.716400E-07  0.502E-05   10.84      33.5  T
     SCC iter.                  ...        4 min, 55.873 sec
     gradient                   ...        4 min, 43.865 sec
 * total energy  : -3716.1650429 Eh     change    :  -0.8720540E-03 Eh
   gradient norm :     0.0439973 Eh/a0  converged?    E=F G=F D=F
   time step     :     0.2500000 fs     power     :   0.4195470E-07
   step length   :     0.0683894 a0     speed     :   0.6617041E-02

........................................................................
.............................. CYCLE   45 ..............................
........................................................................

 iter      E             dE          RMSdq      gap      omega  full diag
   1  -3772.1422313 -0.377214E+04  0.243E-03   10.84       0.0  T
   2  -3772.1422322 -0.884960E-06  0.146E-03   10.84       1.2  T
   3  -3772.1422322  0.117402E-07  0.275E-04   10.84       6.1  T
   4  -3772.1422322 -0.748655E-07  0.618E-05   10.84      27.2  T
     SCC iter.                  ...        4 min, 52.176 sec
     gradient                   ...        4 min, 51.783 sec
 * total energy  : -3716.1660582 Eh     change    :  -0.1015228E-02 Eh
   gradient norm :     0.0378702 Eh/a0  converged?    E=F G=F D=F
   time step     :     0.2500000 fs     power     :   0.4800428E-07
   step length   :     0.0646658 a0     speed     :   0.6256768E-02

........................................................................
.............................. CYCLE   46 ..............................
........................................................................

 iter      E             dE          RMSdq      gap      omega  full diag
   1  -3772.1493084 -0.377215E+04  0.267E-03   10.85       0.0  T
   2  -3772.1493095 -0.108066E-05  0.162E-03   10.85       1.0  T
   3  -3772.1493095 -0.640466E-08  0.285E-04   10.85       5.9  T
   4  -3772.1493096 -0.777213E-07  0.728E-05   10.85      23.1  T
     SCC iter.                  ...        5 min,  1.381 sec
     gradient                   ...        4 min, 40.356 sec
 * total energy  : -3716.1670548 Eh     change    :  -0.9966207E-03 Eh
   gradient norm :     0.0308229 Eh/a0  converged?    E=F G=F D=F
   time step     :     0.2500000 fs     power     :   0.4512956E-07
   step length   :     0.0619352 a0     speed     :   0.5992566E-02

........................................................................
.............................. CYCLE   47 ..............................
........................................................................

 iter      E             dE          RMSdq      gap      omega  full diag
   1  -3772.1506626 -0.377215E+04  0.286E-03   10.86       0.0  T
   2  -3772.1506636 -0.104873E-05  0.174E-03   10.86       1.0  T
   3  -3772.1506636 -0.216505E-07  0.277E-04   10.86       6.1  T
   4  -3772.1506637 -0.829837E-07  0.812E-05   10.86      20.7  T
     SCC iter.                  ...        5 min,  1.289 sec
     gradient                   ...        4 min, 41.793 sec
 * total energy  : -3716.1678974 Eh     change    :  -0.8426672E-03 Eh
   gradient norm :     0.0253894 Eh/a0  converged?    E=F G=F D=F
   time step     :     0.2500000 fs     power     :   0.3575446E-07
   step length   :     0.0597356 a0     speed     :   0.5779741E-02

........................................................................
.............................. CYCLE   48 ..............................
........................................................................

 iter      E             dE          RMSdq      gap      omega  full diag
   1  -3772.1443849 -0.377214E+04  0.319E-03   10.86       0.0  T
   2  -3772.1443859 -0.995515E-06  0.192E-03   10.86       1.0  T
   3  -3772.1443859 -0.237969E-07  0.295E-04   10.86       5.7  T
   4  -3772.1443860 -0.119936E-06  0.958E-05   10.86      17.6  T
     SCC iter.                  ...        4 min, 56.056 sec
     gradient                   ...        4 min, 43.387 sec
 * total energy  : -3716.1685792 Eh     change    :  -0.6817679E-03 Eh
   gradient norm :     0.0241257 Eh/a0  converged?    E=F G=F D=F
   time step     :     0.2750000 fs     power     :   0.2334799E-07
   step length   :     0.0633022 a0     speed     :   0.5568024E-02

........................................................................
.............................. CYCLE   49 ..............................
........................................................................

 iter      E             dE          RMSdq      gap      omega  full diag
   1  -3772.1297083 -0.377213E+04  0.327E-03   10.87       0.0  T
   2  -3772.1297091 -0.834764E-06  0.193E-03   10.87       1.0  T
   3  -3772.1297091  0.173259E-08  0.320E-04   10.87       5.2  T
   4  -3772.1297093 -0.170347E-06  0.102E-04   10.87      16.5  T
     SCC iter.                  ...        4 min, 56.489 sec
     gradient                   ...        4 min, 43.987 sec
 * total energy  : -3716.1690924 Eh     change    :  -0.5132055E-03 Eh
   gradient norm :     0.0272139 Eh/a0  converged?    E=F G=F D=F
   time step     :     0.3025000 fs     power     :   0.1449099E-07
   step length   :     0.0661275 a0     speed     :   0.5287760E-02

........................................................................
.............................. CYCLE   50 ..............................
........................................................................

 iter      E             dE          RMSdq      gap      omega  full diag
   1  -3772.1087379 -0.377211E+04  0.315E-03   10.87       0.0  T
   2  -3772.1087387 -0.798701E-06  0.182E-03   10.88       1.0  T
   3  -3772.1087387  0.202745E-07  0.334E-04   10.88       5.0  T
   4  -3772.1087389 -0.180878E-06  0.956E-05   10.88      17.6  T
     SCC iter.                  ...        4 min, 57.683 sec
     gradient                   ...        4 min, 40.476 sec
 * total energy  : -3716.1695504 Eh     change    :  -0.4580350E-03 Eh
   gradient norm :     0.0309472 Eh/a0  converged?    E=F G=F D=F
   time step     :     0.3327500 fs     power     :   0.1264096E-07
   step length   :     0.0681445 a0     speed     :   0.4953678E-02

........................................................................
.............................. CYCLE   51 ..............................
........................................................................

 iter      E             dE          RMSdq      gap      omega  full diag
   1  -3772.0848440 -0.377208E+04  0.302E-03   10.88       0.0  T
   2  -3772.0848449 -0.935689E-06  0.173E-03   10.88       1.0  T
   3  -3772.0848449  0.161640E-07  0.331E-04   10.88       5.1  T
   4  -3772.0848450 -0.142085E-06  0.819E-05   10.88      20.5  T
     SCC iter.                  ...        4 min, 54.292 sec
     gradient                   ...        4 min, 41.595 sec
 * total energy  : -3716.1701037 Eh     change    :  -0.5532728E-03 Eh
   gradient norm :     0.0325468 Eh/a0  converged?    E=F G=F D=F
   time step     :     0.3660250 fs     power     :   0.1616394E-07
   step length   :     0.0702353 a0     speed     :   0.4641518E-02

........................................................................
.............................. CYCLE   52 ..............................
........................................................................

 iter      E             dE          RMSdq      gap      omega  full diag
   1  -3772.0619607 -0.377206E+04  0.308E-03   10.88       0.0  T
   2  -3772.0619618 -0.112425E-05  0.177E-03   10.88       1.0  T
   3  -3772.0619618  0.662885E-08  0.318E-04   10.88       5.3  T
   4  -3772.0619619 -0.963578E-07  0.687E-05   10.88      24.5  T
     SCC iter.                  ...        5 min,  4.987 sec
     gradient                   ...        4 min, 41.812 sec
 * total energy  : -3716.1708442 Eh     change    :  -0.7404520E-03 Eh
   gradient norm :     0.0311267 Eh/a0  converged?    E=F G=F D=F
   time step     :     0.4026275 fs     power     :   0.2091939E-07
   step length   :     0.0732611 a0     speed     :   0.4401342E-02

........................................................................
.............................. CYCLE   53 ..............................
........................................................................

 iter      E             dE          RMSdq      gap      omega  full diag
   1  -3772.0446055 -0.377204E+04  0.339E-03   10.88       0.0  T
   2  -3772.0446067 -0.116525E-05  0.197E-03   10.88       1.0  T
   3  -3772.0446067 -0.449336E-08  0.294E-04   10.88       5.7  T
   4  -3772.0446068 -0.734367E-07  0.616E-05   10.88      27.3  T
     SCC iter.                  ...        4 min, 59.695 sec
     gradient                   ...        4 min, 42.197 sec
 * total energy  : -3716.1717498 Eh     change    :  -0.9056194E-03 Eh
   gradient norm :     0.0273417 Eh/a0  converged?    E=F G=F D=F
   time step     :     0.4428903 fs     power     :   0.2284388E-07
   step length   :     0.0777212 a0     speed     :   0.4244814E-02

........................................................................
.............................. CYCLE   54 ..............................
........................................................................

 iter      E             dE          RMSdq      gap      omega  full diag
   1  -3772.0376373 -0.377204E+04  0.378E-03   10.89       0.0  T
   2  -3772.0376382 -0.949591E-06  0.223E-03   10.89       1.0  T
   3  -3772.0376382 -0.493037E-08  0.277E-04   10.89       6.1  T
   4  -3772.0376383 -0.994683E-07  0.765E-05   10.89      22.0  T
     SCC iter.                  ...        4 min, 54.741 sec
     gradient                   ...        4 min, 41.145 sec
 * total energy  : -3716.1726922 Eh     change    :  -0.9424136E-03 Eh
   gradient norm :     0.0234178 Eh/a0  converged?    E=F G=F D=F
   time step     :     0.4871793 fs     power     :   0.2011317E-07
   step length   :     0.0835632 a0     speed     :   0.4148981E-02

........................................................................
.............................. CYCLE   55 ..............................
........................................................................

 iter      E             dE          RMSdq      gap      omega  full diag
   1  -3772.0446242 -0.377204E+04  0.399E-03   10.89       0.0  T
   2  -3772.0446249 -0.769595E-06  0.236E-03   10.89       1.0  T
   3  -3772.0446249  0.278660E-07  0.316E-04   10.89       5.3  T
   4  -3772.0446251 -0.187115E-06  0.101E-04   10.89      16.6  T
     SCC iter.                  ...        5 min,  1.964 sec
     gradient                   ...        4 min, 42.086 sec
 * total energy  : -3716.1735289 Eh     change    :  -0.8366929E-03 Eh
   gradient norm :     0.0221706 Eh/a0  converged?    E=F G=F D=F
   time step     :     0.5358972 fs     power     :   0.1456499E-07
   step length   :     0.0900243 a0     speed     :   0.4063438E-02

........................................................................
.............................. CYCLE   56 ..............................
........................................................................

 iter      E             dE          RMSdq      gap      omega  full diag
   1  -3772.0640897 -0.377206E+04  0.385E-03   10.89       0.0  T
   2  -3772.0640909 -0.115645E-05  0.227E-03   10.89       1.0  T
   3  -3772.0640909  0.273053E-07  0.371E-04   10.89       4.5  T
   4  -3772.0640911 -0.208391E-06  0.113E-04   10.89      14.9  T
     SCC iter.                  ...        4 min, 58.394 sec
     gradient                   ...        4 min, 42.069 sec
 * total energy  : -3716.1742369 Eh     change    :  -0.7079698E-03 Eh
   gradient norm :     0.0238412 Eh/a0  converged?    E=F G=F D=F
   time step     :     0.5894869 fs     power     :   0.1047454E-07
   step length   :     0.0959927 a0     speed     :   0.3938936E-02

........................................................................
.............................. CYCLE   57 ..............................
........................................................................

 iter      E             dE          RMSdq      gap      omega  full diag
   1  -3772.0884794 -0.377209E+04  0.352E-03   10.90       0.0  T
   2  -3772.0884811 -0.169260E-05  0.207E-03   10.90       1.0  T
   3  -3772.0884811 -0.179598E-07  0.393E-04   10.90       4.3  T
   4  -3772.0884812 -0.130967E-06  0.107E-04   10.90      15.7  T
     SCC iter.                  ...        4 min, 57.272 sec
     gradient                   ...        4 min, 42.270 sec
 * total energy  : -3716.1749560 Eh     change    :  -0.7191584E-03 Eh
   gradient norm :     0.0259898 Eh/a0  converged?    E=F G=F D=F
   time step     :     0.6484356 fs     power     :   0.1061205E-07
   step length   :     0.1015450 a0     speed     :   0.3787970E-02

........................................................................
.............................. CYCLE   58 ..............................
........................................................................

 iter      E             dE          RMSdq      gap      omega  full diag
   1  -3772.1076959 -0.377211E+04  0.339E-03   10.90       0.0  T
   2  -3772.1076973 -0.140325E-05  0.199E-03   10.90       1.0  T
   3  -3772.1076973 -0.448590E-07  0.336E-04   10.90       5.0  T
   4  -3772.1076974 -0.756104E-07  0.911E-05   10.90      18.5  T
     SCC iter.                  ...        4 min, 54.835 sec
     gradient                   ...        4 min, 42.202 sec
 * total energy  : -3716.1758864 Eh     change    :  -0.9303449E-03 Eh
   gradient norm :     0.0259113 Eh/a0  converged?    E=F G=F D=F
   time step     :     0.7132792 fs     power     :   0.1407915E-07
   step length   :     0.1082895 a0     speed     :   0.3672330E-02

........................................................................
.............................. CYCLE   59 ..............................
........................................................................

 iter      E             dE          RMSdq      gap      omega  full diag
   1  -3772.1124530 -0.377211E+04  0.373E-03   10.91       0.0  T
   2  -3772.1124538 -0.742471E-06  0.218E-03   10.91       1.0  T
   3  -3772.1124539 -0.700252E-07  0.283E-04   10.91       5.9  T
   4  -3772.1124539 -0.785249E-07  0.991E-05   10.91      17.0  T
     SCC iter.                  ...        4 min, 53.255 sec
     gradient                   ...        4 min, 41.735 sec
 * total energy  : -3716.1770808 Eh     change    :  -0.1194449E-02 Eh
   gradient norm :     0.0223809 Eh/a0  converged?    E=F G=F D=F
   time step     :     0.7846071 fs     power     :   0.1635301E-07
   step length   :     0.1179721 a0     speed     :   0.3636991E-02

........................................................................
.............................. CYCLE   60 ..............................
........................................................................

 iter      E             dE          RMSdq      gap      omega  full diag
   1  -3772.0975374 -0.377210E+04  0.437E-03   10.91       0.0  T
   2  -3772.0975389 -0.147858E-05  0.254E-03   10.91       1.0  T
   3  -3772.0975389 -0.903296E-07  0.409E-04   10.91       4.1  T
   4  -3772.0975391 -0.137179E-06  0.121E-04   10.91      13.9  T
     SCC iter.                  ...        4 min, 59.614 sec
     gradient                   ...        4 min, 49.464 sec
 * total energy  : -3716.1783093 Eh     change    :  -0.1228436E-02 Eh
   gradient norm :     0.0200839 Eh/a0  converged?    E=F G=F D=F
   time step     :     0.8630678 fs     power     :   0.1352886E-07
   step length   :     0.1306659 a0     speed     :   0.3662120E-02

........................................................................
.............................. CYCLE   61 ..............................
........................................................................

 iter      E             dE          RMSdq      gap      omega  full diag
   1  -3772.0683373 -0.377207E+04  0.451E-03   10.91       0.0  T
   2  -3772.0683398 -0.246463E-05  0.260E-03   10.92       1.0  T
   3  -3772.0683399 -0.961604E-07  0.503E-04   10.91       3.3  T
   4  -3772.0683400 -0.146189E-06  0.124E-04   10.91      13.5  T
     SCC iter.                  ...        4 min, 59.350 sec
     gradient                   ...        4 min, 42.659 sec
 * total energy  : -3716.1794579 Eh     change    :  -0.1148618E-02 Eh
   gradient norm :     0.0229424 Eh/a0  converged?    E=F G=F D=F
   time step     :     0.9493746 fs     power     :   0.1145511E-07
   step length   :     0.1437673 a0     speed     :   0.3663006E-02

........................................................................
.............................. CYCLE   62 ..............................
........................................................................

 iter      E             dE          RMSdq      gap      omega  full diag
   1  -3772.0429411 -0.377204E+04  0.424E-03   10.92       0.0  T
   2  -3772.0429428 -0.171522E-05  0.243E-03   10.92       1.0  T
   3  -3772.0429429 -0.984223E-07  0.438E-04   10.92       3.8  T
   4  -3772.0429430 -0.122222E-06  0.119E-04   10.92      14.1  T
     SCC iter.                  ...        4 min, 54.046 sec
     gradient                   ...        4 min, 43.054 sec
 * total energy  : -3716.1808527 Eh     change    :  -0.1394834E-02 Eh
   gradient norm :     0.0214182 Eh/a0  converged?    E=F G=F D=F
   time step     :     1.0443120 fs     power     :   0.1413229E-07
   step length   :     0.1578162 a0     speed     :   0.3655413E-02

........................................................................
[...]
  3287   6 C     3288   6 C                                       1.5286934
  3287   6 C     3289   6 C                                       1.5361189
  3289   6 C     3290   6 C                                       1.5317216
  3290   6 C     3291   6 C                                       1.5286937
  3290   6 C     3292   6 C                                       1.5357716
  3293   6 C     3294   6 C                                       1.5280525
  3293   6 C     3295   6 C                                       1.5365890
  3295   6 C     3296   6 C                                       1.5358496
  3296   6 C     3297   6 C                                       1.5298689
  3296   6 C     3298   6 C                                       1.5388239
  3298   6 C     3299   6 C                                       1.5336334
  3299   6 C     3300   6 C                                       1.5259844
  3299   6 C     3301   6 C                                       1.5348182
  3301   6 C     3302   6 C                                       1.5342133
  3302   6 C     3303   6 C                                       1.5278997
  3302   6 C     3304   6 C                                       1.5338219
  3304   6 C     3305   6 C                                       1.5332427
  3305   6 C     3306   6 C                                       1.5274764
  3305   6 C     3307   6 C                                       1.5358457
  3307   6 C     3308   6 C                                       1.5336131
  3308   6 C     3309   6 C                                       1.5284427
  3308   6 C     3310   6 C                                       1.5357937
  3310   6 C     3311   6 C                                       1.5363588
  3311   6 C     3312   6 C                                       1.5247689
  3311   6 C     3313   6 C                                       1.5359456
  3313   6 C     3314   6 C                                       1.5364102
  3314   6 C     3315   6 C                                       1.5290363
  3314   6 C     3316   6 C                                       1.5327766
  3316   6 C     3317   6 C                                       1.5362737
  3317   6 C     3318   6 C                                       1.5291276
  3317   6 C     3319   6 C                                       1.5331115
  3319   6 C     3320   6 C                                       1.5358845
  3320   6 C     3321   6 C                                       1.5287042
  3320   6 C     3322   6 C                                       1.5341426
  3322   6 C     3323   6 C                                       1.5348836
  3323   6 C     3324   6 C                                       1.5298638
  3323   6 C     3325   6 C                                       1.5334764
  3325   6 C     3326   6 C                                       1.5362856
  3326   6 C     3327   6 C                                       1.5284358
  3326   6 C     3328   6 C                                       1.5338560
  3329   6 C     3330   6 C                                       1.5292162
  3329   6 C     3331   6 C                                       1.5350765
  3331   6 C     3332   6 C                                       1.5336469
  3332   6 C     3333   6 C                                       1.5279805
  3332   6 C     3334   6 C                                       1.5373283
  3334   6 C     3335   6 C                                       1.5368307
  3335   6 C     3336   6 C                                       1.5273495
  3335   6 C     3337   6 C                                       1.5350867
  3337   6 C     3338   6 C                                       1.5357845
  3338   6 C     3339   6 C                                       1.5292671
  3338   6 C     3340   6 C                                       1.5329641
  3340   6 C     3341   6 C                                       1.5374255
  3341   6 C     3342   6 C                                       1.5279951
  3341   6 C     3343   6 C                                       1.5379132
  3343   6 C     3344   6 C                                       1.5362121
  3344   6 C     3345   6 C                                       1.5278114
  3344   6 C     3346   6 C                                       1.5363998
  3346   6 C     3347   6 C                                       1.5333112
  3347   6 C     3348   6 C                                       1.5287577
  3347   6 C     3349   6 C                                       1.5372550
  3349   6 C     3350   6 C                                       1.5327108
  3350   6 C     3351   6 C                                       1.5270918
  3350   6 C     3352   6 C                                       1.5368806
  3352   6 C     3353   6 C                                       1.5271557
  3353   6 C     3354   6 C                                       1.5247006
  3265   6 C     3355   1 H                                       1.0886275
  3265   6 C     3356   1 H                                       1.0885642
  3265   6 C     3357   1 H                                       1.0862954
  3354   6 C     3358   1 H                                       1.0878938
  3354   6 C     3359   1 H                                       1.0879177
  3354   6 C     3360   1 H                                       1.0882361
  3352   6 C     3361   1 H                                       1.0936934
  3352   6 C     3362   1 H                                       1.0929948
  3349   6 C     3363   1 H                                       1.0932729
  3349   6 C     3364   1 H                                       1.0927040
  3347   6 C     3365   1 H                                       1.0941533
  3348   6 C     3366   1 H                                       1.0885561
  3348   6 C     3367   1 H                                       1.0867203
  3348   6 C     3368   1 H                                       1.0887020
  3346   6 C     3369   1 H                                       1.0923776
  3346   6 C     3370   1 H                                       1.0935848
  3343   6 C     3371   1 H                                       1.0891410
  3343   6 C     3372   1 H                                       1.0920021
  3350   6 C     3373   1 H                                       1.0945684
  3351   6 C     3374   1 H                                       1.0876274
  3351   6 C     3375   1 H                                       1.0874099
  3351   6 C     3376   1 H                                       1.0884572
  3344   6 C     3377   1 H                                       1.0940793
  3345   6 C     3378   1 H                                       1.0875243
  3345   6 C     3379   1 H                                       1.0879291
  3345   6 C     3380   1 H                                       1.0839803 (min)
  3341   6 C     3381   1 H                                       1.0950519
  3342   6 C     3382   1 H                                       1.0883188
  3342   6 C     3383   1 H                                       1.0883345
  3342   6 C     3384   1 H                                       1.0853439
  3340   6 C     3385   1 H                                       1.0913866
  3340   6 C     3386   1 H                                       1.0917103
  3338   6 C     3387   1 H                                       1.0932956
  3339   6 C     3388   1 H                                       1.0884824
  3339   6 C     3389   1 H                                       1.0864594
  3339   6 C     3390   1 H                                       1.0888518
  3337   6 C     3391   1 H                                       1.0937003
  3337   6 C     3392   1 H                                       1.0943195
  3335   6 C     3393   1 H                                       1.0948080
  3336   6 C     3394   1 H                                       1.0867530
  3336   6 C     3395   1 H                                       1.0885932
  3336   6 C     3396   1 H                                       1.0867266
  3334   6 C     3397   1 H                                       1.0928151
  3334   6 C     3398   1 H                                       1.0925960
  3332   6 C     3399   1 H                                       1.0929662
  3333   6 C     3400   1 H                                       1.0874785
  3333   6 C     3401   1 H                                       1.0883031
  3333   6 C     3402   1 H                                       1.0885359
  3331   6 C     3403   1 H                                       1.0927430
  3331   6 C     3404   1 H                                       1.0935483
  3329   6 C     3405   1 H                                       1.0942852
  3330   6 C     3406   1 H                                       1.0886519
  3330   6 C     3407   1 H                                       1.0880878
  3330   6 C     3408   1 H                                       1.0884144
  3328   6 C     3409   1 H                                       1.0900854
  3328   6 C     3410   1 H                                       1.0926358
  3326   6 C     3411   1 H                                       1.0943956
  3327   6 C     3412   1 H                                       1.0882319
  3327   6 C     3413   1 H                                       1.0876575
  3327   6 C     3414   1 H                                       1.0886758
  3325   6 C     3415   1 H                                       1.0906649
  3325   6 C     3416   1 H                                       1.0931187
  3323   6 C     3417   1 H                                       1.0926330
  3324   6 C     3418   1 H                                       1.0880868
  3324   6 C     3419   1 H                                       1.0875847
  3324   6 C     3420   1 H                                       1.0887403
  3322   6 C     3421   1 H                                       1.0924611
  3322   6 C     3422   1 H                                       1.0934150
  3320   6 C     3423   1 H                                       1.0933690
  3321   6 C     3424   1 H                                       1.0885473
  3321   6 C     3425   1 H                                       1.0862340
  3321   6 C     3426   1 H                                       1.0875259
  3319   6 C     3427   1 H                                       1.0924176
  3319   6 C     3428   1 H                                       1.0932770
  3317   6 C     3429   1 H                                       1.0933146
  3318   6 C     3430   1 H                                       1.0885139
  3318   6 C     3431   1 H                                       1.0883842
  3318   6 C     3432   1 H                                       1.0870836
  3316   6 C     3433   1 H                                       1.0915642
  3316   6 C     3434   1 H                                       1.0938410
  3314   6 C     3435   1 H                                       1.0929416
  3315   6 C     3436   1 H                                       1.0883629
  3315   6 C     3437   1 H                                       1.0870985
  3315   6 C     3438   1 H                                       1.0886488
  3313   6 C     3439   1 H                                       1.0937032
  3313   6 C     3440   1 H                                       1.0932989
  3311   6 C     3441   1 H                                       1.0941411
  3312   6 C     3442   1 H                                       1.0852261
  3312   6 C     3443   1 H                                       1.0866172
  3312   6 C     3444   1 H                                       1.0877374
  3310   6 C     3445   1 H                                       1.0938488
  3310   6 C     3446   1 H                                       1.0930478
  3308   6 C     3447   1 H                                       1.0933915
  3309   6 C     3448   1 H                                       1.0877822
  3309   6 C     3449   1 H                                       1.0879964
  3309   6 C     3450   1 H                                       1.0866762
  3307   6 C     3451   1 H                                       1.0916966
  3307   6 C     3452   1 H                                       1.0927827
  3305   6 C     3453   1 H                                       1.0944218
  3306   6 C     3454   1 H                                       1.0872918
  3306   6 C     3455   1 H                                       1.0886951
  3306   6 C     3456   1 H                                       1.0886088
  3304   6 C     3457   1 H                                       1.0923583
  3304   6 C     3458   1 H                                       1.0937417
  3302   6 C     3459   1 H                                       1.0936943
  3303   6 C     3460   1 H                                       1.0881254
  3303   6 C     3461   1 H                                       1.0882816
  3303   6 C     3462   1 H                                       1.0872454
  3301   6 C     3463   1 H                                       1.0919248
  3301   6 C     3464   1 H                                       1.0929425
  3299   6 C     3465   1 H                                       1.0963635
  3300   6 C     3466   1 H                                       1.0869879
  3300   6 C     3467   1 H                                       1.0874633
  3300   6 C     3468   1 H                                       1.0876585
  3298   6 C     3469   1 H                                       1.0900956
  3298   6 C     3470   1 H                                       1.0915035
  3296   6 C     3471   1 H                                       1.0928624
  3297   6 C     3472   1 H                                       1.0886002
  3297   6 C     3473   1 H                                       1.0872446
  3297   6 C     3474   1 H                                       1.0885425
  3295   6 C     3475   1 H                                       1.0924216
  3295   6 C     3476   1 H                                       1.0919601
  3293   6 C     3477   1 H                                       1.0955274
  3294   6 C     3478   1 H                                       1.0889658
  3294   6 C     3479   1 H                                       1.0862937
  3294   6 C     3480   1 H                                       1.0880215
  3292   6 C     3481   1 H                                       1.0929303
  3292   6 C     3482   1 H                                       1.0931495
  3290   6 C     3483   1 H                                       1.0957967
  3291   6 C     3484   1 H                                       1.0890822
  3291   6 C     3485   1 H                                       1.0886734
  3291   6 C     3486   1 H                                       1.0869362
  3289   6 C     3487   1 H                                       1.0918568
  3289   6 C     3488   1 H                                       1.0934678
  3287   6 C     3489   1 H                                       1.0945646
  3288   6 C     3490   1 H                                       1.0870948
  3288   6 C     3491   1 H                                       1.0860298
  3288   6 C     3492   1 H                                       1.0873276
  3286   6 C     3493   1 H                                       1.0915172
  3286   6 C     3494   1 H                                       1.0918202
  3284   6 C     3495   1 H                                       1.0930017
  3285   6 C     3496   1 H                                       1.0884147
  3285   6 C     3497   1 H                                       1.0884099
  3285   6 C     3498   1 H                                       1.0874358
  3283   6 C     3499   1 H                                       1.0898390
  3283   6 C     3500   1 H                                       1.0919664
  3281   6 C     3501   1 H                                       1.0942767
  3282   6 C     3502   1 H                                       1.0885727
  3282   6 C     3503   1 H                                       1.0869766
  3282   6 C     3504   1 H                                       1.0886517
  3280   6 C     3505   1 H                                       1.0939984
  3280   6 C     3506   1 H                                       1.0937096
  3278   6 C     3507   1 H                                       1.0928314
  3279   6 C     3508   1 H                                       1.0870516
  3279   6 C     3509   1 H                                       1.0886252
  3279   6 C     3510   1 H                                       1.0879656
  3277   6 C     3511   1 H                                       1.0928222
  3277   6 C     3512   1 H                                       1.0924136
  3275   6 C     3513   1 H                                       1.0941655
  3276   6 C     3514   1 H                                       1.0884465
  3276   6 C     3515   1 H                                       1.0866827
  3276   6 C     3516   1 H                                       1.0881139
  3274   6 C     3517   1 H                                       1.0924695
  3274   6 C     3518   1 H                                       1.0938119
  3272   6 C     3519   1 H                                       1.0929985
  3273   6 C     3520   1 H                                       1.0885540
  3273   6 C     3521   1 H                                       1.0869553
  3273   6 C     3522   1 H                                       1.0882085
  3271   6 C     3523   1 H                                       1.0911928
  3271   6 C     3524   1 H                                       1.0924544
  3269   6 C     3525   1 H                                       1.0936430
  3270   6 C     3526   1 H                                       1.0879776
  3270   6 C     3527   1 H                                       1.0862347
  3270   6 C     3528   1 H                                       1.0880042
  3268   6 C     3529   1 H                                       1.0922586
  3268   6 C     3530   1 H                                       1.0929838
  3266   6 C     3531   1 H                                       1.0950283
  3267   6 C     3532   1 H                                       1.0886254
  3267   6 C     3533   1 H                                       1.0884709
  3267   6 C     3534   1 H                                       1.0881928
  3353   6 C     3535   1 H                                       1.0912752
  3353   6 C     3536   1 H                                       1.0912264

 * 2 distinct bonds (by element types)

   Z      Z             #   av. dist./Å        max./Å        min./Å
   1 H    6 C        2366     1.0903013     1.0979032     1.0839803
   6 C    6 C        1113     1.5324924     1.5399417     1.5217629


optimized geometry written to: xtbopt.xyz


           -------------------------------------------------
          | TOTAL ENERGY            -3716.250568575485 Eh   |
          | GRADIENT NORM               0.000780390434 Eh/α |
          | HOMO-LUMO GAP              11.075832207005 eV   |
           -------------------------------------------------

------------------------------------------------------------------------
 * finished run on 2024/06/25 at 06:30:51.256     
------------------------------------------------------------------------
 total:
 * wall-time:     4 d, 12 h, 25 min, 20.853 sec
 *  cpu-time:    23 d, 15 h, 26 min, 45.616 sec
 * ratio c/w:     5.234 speedup
 SCF:
 * wall-time:     0 d,  0 h,  8 min, 54.276 sec
 *  cpu-time:     0 d,  0 h, 45 min, 56.340 sec
 * ratio c/w:     5.159 speedup
 ANC optimizer:
 * wall-time:     4 d, 12 h, 14 min, 58.737 sec
 *  cpu-time:    23 d, 14 h, 39 min,  4.556 sec
 * ratio c/w:     5.235 speedup

