      -----------------------------------------------------------      
     |                   =====================                   |     
     |                           x T B                           |     
     |                   =====================                   |     
     |                         S. Grimme                         |     
     |          Mulliken Center for Theoretical Chemistry        |     
     |                    University of Bonn                     |     
      -----------------------------------------------------------      

   * xtb version 6.6.1 (8d0f1dd) compiled by 'stahn@M-Bot' on 2023-08-01

   xtb is free software: you can redistribute it and/or modify it under
   the terms of the GNU Lesser General Public License as published by
   the Free Software Foundation, either version 3 of the License, or
   (at your option) any later version.
   
   xtb is distributed in the hope that it will be useful,
   but WITHOUT ANY WARRANTY; without even the implied warranty of
   MERCHANTABILITY or FITNESS FOR A PARTICULAR PURPOSE.  See the
   GNU Lesser General Public License for more details.
   
   Cite this work as:
   * C. Bannwarth, E. Caldeweyher, S. Ehlert, A. Hansen, P. Pracht,
     J. Seibert, S. Spicher, S. Grimme, WIREs Comput. Mol. Sci., 2020, 11,
     e01493. DOI: 10.1002/wcms.1493
   
   for GFN2-xTB:
   * C. Bannwarth, S. Ehlert and S. Grimme., J. Chem. Theory Comput., 2019,
     15, 1652-1671. DOI: 10.1021/acs.jctc.8b01176
   for GFN1-xTB:
   * S. Grimme, C. Bannwarth, P. Shushkov, J. Chem. Theory Comput., 2017,
     13, 1989-2009. DOI: 10.1021/acs.jctc.7b00118
   for GFN0-xTB:
   * P. Pracht, E. Caldeweyher, S. Ehlert, S. Grimme, ChemRxiv, 2019, preprint.
     DOI: 10.26434/chemrxiv.8326202.v1
   for GFN-FF:
   * S. Spicher and S. Grimme, Angew. Chem. Int. Ed., 2020, 59, 15665-15673.
     DOI: 10.1002/anie.202004239
   
   for ALPB and GBSA implicit solvation:
   * S. Ehlert, M. Stahn, S. Spicher, S. Grimme, J. Chem. Theory Comput.,
     2021, 17, 4250-4261. DOI: 10.1021/acs.jctc.1c00471
   
   for DFT-D4:
   * E. Caldeweyher, C. Bannwarth and S. Grimme, J. Chem. Phys., 2017,
     147, 034112. DOI: 10.1063/1.4993215
   * E. Caldeweyher, S. Ehlert, A. Hansen, H. Neugebauer, S. Spicher,
     C. Bannwarth and S. Grimme, J. Chem. Phys., 2019, 150, 154122.
     DOI: 10.1063/1.5090222
   * E. Caldeweyher, J.-M. Mewes, S. Ehlert and S. Grimme, Phys. Chem. Chem. Phys.
     2020, 22, 8499-8512. DOI: 10.1039/D0CP00502A
   
   for sTDA-xTB:
   * S. Grimme and C. Bannwarth, J. Chem. Phys., 2016, 145, 054103.
     DOI: 10.1063/1.4959605
   
   in the mass-spec context:
   * V. Asgeirsson, C. Bauer and S. Grimme, Chem. Sci., 2017, 8, 4879.
     DOI: 10.1039/c7sc00601b
   * J. Koopman and S. Grimme, ACS Omega 2019, 4, 12, 15120-15133.
     DOI: 10.1021/acsomega.9b02011
   
   for metadynamics refer to:
   * S. Grimme, J. Chem. Theory Comput., 2019, 155, 2847-2862
     DOI: 10.1021/acs.jctc.9b00143
   
   for SPH calculations refer to:
   * S. Spicher and S. Grimme, J. Chem. Theory Comput., 2021, 17, 1701-1714
     DOI: 10.1021/acs.jctc.0c01306
   
   with help from (in alphabetical order)
   P. Atkinson, C. Bannwarth, F. Bohle, G. Brandenburg, E. Caldeweyher
   M. Checinski, S. Dohm, S. Ehlert, S. Ehrlich, I. Gerasimov, C. Hölzer
   A. Katbashev, J. Koopman, C. Lavigne, S. Lehtola, F. März, M. Müller,
   F. Musil, H. Neugebauer, J. Pisarek, C. Plett, P. Pracht, F. Pultar,
   J. Seibert, P. Shushkov, S. Spicher, M. Stahn, M. Steiner, T. Strunk,
   J. Stückrath, T. Rose, and J. Unsleber
   
 * started run on 2024/06/20 at 20:19:33.426     

           -------------------------------------------------
          |                Calculation Setup                |
           -------------------------------------------------

          program call               : /home/abt-grimme/AK-bin/xtb input.xyz --input input.inp --opt --gbsa water
          hostname                   : boar058.thch.uni-bonn.de
          coordinate file            : input.xyz
          omp threads                :                     8

   ID    Z sym.   atoms
    1    6 C      1-90, 273-362, 545-634, 817-906, 1089-1178, 1361-1450,
                  1633-1722, 1905-1994, 2177-2266, 2449-2538, 2721-2810,
                  2993-3082, 3265-3354
    2    1 H      91-272, 363-544, 635-816, 907-1088, 1179-1360, 1451-1632,
                  1723-1904, 1995-2176, 2267-2448, 2539-2720, 2811-2992,
                  3083-3264, 3355-3536

molecular fragmentation (1/2 indicates fragments):
111111111111111111111111111111111111111111111111111111111111111111111111
111111111111111111111111111111111111111111111111111111111111111111111111
111111111111111111111111111111111111111111111111111111111111111111111111
111111111111111111111111111111111111111111111111111111112222222222222222
222222222222222222222222222222222222222222222222222222222222222222222222
222222222222222222222222222222222222222222222222222222222222222222222222
222222222222222222222222222222222222222222222222222222222222222222222222
222222222222222222222222222222222222222222222222222222222222222222222222
222222222222222222222222222222222222222222222222222222222222222222222222
222222222222222222222222222222222222222222222222222222222222222222222222
222222222222222222222222222222222222222222222222222222222222222222222222
222222222222222222222222222222222222222222222222222222222222222222222222
222222222222222222222222222222222222222222222222222222222222222222222222
222222222222222222222222222222222222222222222222222222222222222222222222
222222222222222222222222222222222222222222222222222222222222222222222222
222222222222222222222222222222222222222222222222222222222222222222222222
222222222222222222222222222222222222222222222222222222222222222222222222
222222222222222222222222222222222222222222222222222222222222222222222222
222222222222222222222222222222222222222222222222222222222222222222222222
222222222222222222222222222222222222222222222222222222222222222222222222
222222222222222222222222222222222222222222222222222222222222222222222222
222222222222222222222222222222222222222222222222222222222222222222222222
222222222222222222222222222222222222222222222222222222222222222222222222
222222222222222222222222222222222222222222222222222222222222222222222222
222222222222222222222222222222222222222222222222222222222222222222222222
222222222222222222222222222222222222222222222222222222222222222222222222
222222222222222222222222222222222222222222222222222222222222222222222222
222222222222222222222222222222222222222222222222222222222222222222222222
222222222222222222222222222222222222222222222222222222222222222222222222
222222222222222222222222222222222222222222222222222222222222222222222222
222222222222222222222222222222222222222222222222222222222222222222222222
222222222222222222222222222222222222222222222222222222222222222222222222
222222222222222222222222222222222222222222222222222222222222222222222222
222222222222222222222222222222222222222222222222222222222222222222222222
222222222222222222222222222222222222222222222222222222222222222222222222
222222222222222222222222222222222222222222222222222222222222222222222222
222222222222222222222222222222222222222222222222222222222222222222222222
222222222222222222222222222222222222222222222222222222222222222222222222
222222222222222222222222222222222222222222222222222222222222222222222222
222222222222222222222222222222222222222222222222222222222222222222222222
222222222222222222222222222222222222222222222222222222222222222222222222
222222222222222222222222222222222222222222222222222222222222222222222222
222222222222222222222222222222222222222222222222222222222222222222222222
222222222222222222222222222222222222222222222222222222222222222222222222
222222222222222222222222222222222222222222222222222222222222222222222222
222222222222222222222222222222222222222222222222222222222222222222222222
222222222222222222222222222222222222222222222222222222222222222222222222
222222222222222222222222222222222222222222222222222222222222222222222222
222222222222222222222222222222222222222222222222222222222222222222222222
22222222
# atoms in fragment 1/2:   272  3264
 fragment masses (1/2) :     1264.41    15172.94
CMA distance (Bohr)    :  17.788
constraining FC (au)   :  0.0500

           -------------------------------------------------
          |                 G F N 2 - x T B                 |
           -------------------------------------------------

        Reference                      10.1021/acs.jctc.8b01176
      * Hamiltonian:
        H0-scaling (s, p, d)           1.850000    2.230000    2.230000
        zeta-weighting                 0.500000
      * Dispersion:
        s8                             2.700000
        a1                             0.520000
        a2                             5.000000
        s9                             5.000000
      * Repulsion:
        kExp                           1.500000    1.000000
        rExp                           1.000000
      * Coulomb:
        alpha                          2.000000
        third order                    shell-resolved
        anisotropic                    true
        a3                             3.000000
        a5                             4.000000
        cn-shift                       1.200000
        cn-exp                         4.000000
        max-rad                        5.000000

      * Solvation model:               GBSA
        Solvent                        water
        Parameter file                 internal GFN2-xTB/GBSA
        Dielectric constant                8.0200E+01
        Reference state                gsolv [1 M gas/solution]
        Free energy shift                  1.8574E-03 Eh       1.1656E+00 kcal/mol
        Temperature                        2.9815E+02 K
        Density                            1.0000E+00 kg/L
        Solvent mass                       1.8000E+01 g/mol
        Interaction kernel             Still
        Born radius scaling (c1)           1.5524E+00
        Born radii integrator          GBOBC
        Born offset                        2.4628E-02 a0       4.6540E-02 AA
        H-bond correction              true
        Ion screening                  false
        Surface tension                    1.0000E-05 Eh       1.5569E+01 dyn/cm
        Grid points                               230 per atom
q/qsh data taken from xtbrestart
CAMM data taken from xtbrestart

          ...................................................
          :                      SETUP                      :
          :.................................................:
          :  # basis functions                7046          :
          :  # atomic orbitals                7046          :
          :  # shells                         4706          :
          :  # electrons                      7046          :
          :  max. iterations                   250          :
          :  Hamiltonian                  GFN2-xTB          :
          :  restarted?                       true          :
          :  GBSA solvation                   true          :
          :  PC potential                    false          :
          :  electronic temp.          300.0000000     K    :
          :  accuracy                    1.0000000          :
          :  -> integral cutoff          0.2500000E+02      :
          :  -> integral neglect         0.1000000E-07      :
          :  -> SCF convergence          0.1000000E-05 Eh   :
          :  -> wf. convergence          0.1000000E-03 e    :
          :  Broyden damping             0.4000000          :
          ...................................................

 iter      E             dE          RMSdq      gap      omega  full diag
   1  -3764.1507857 -0.376415E+04  0.564E-05   10.51       0.0  T
   2  -3764.1507857 -0.266709E-08  0.443E-05   10.51      38.0  T
   3  -3764.1507857 -0.282262E-08  0.288E-05   10.51      58.5  T

   *** convergence criteria satisfied after 3 iterations ***

         #    Occupation            Energy/Eh            Energy/eV
      -------------------------------------------------------------
         1        2.0000           -0.6183076             -16.8250
       ...           ...                  ...                  ...
      3517        2.0000           -0.3765527             -10.2465
      3518        2.0000           -0.3761794             -10.2364
      3519        2.0000           -0.3759534             -10.2302
      3520        2.0000           -0.3753243             -10.2131
      3521        2.0000           -0.3745935             -10.1932
      3522        2.0000           -0.3742036             -10.1826
      3523        2.0000           -0.3718042             -10.1173 (HOMO)
      3524                          0.0145524               0.3960 (LUMO)
      3525                          0.0146889               0.3997
      3526                          0.0153631               0.4181
      3527                          0.0162558               0.4423
      3528                          0.0164201               0.4468
       ...                                ...                  ...
      7046                          0.3720852              10.1250
      -------------------------------------------------------------
                  HL-Gap            0.3863566 Eh           10.5133 eV
             Fermi-level           -0.1786259 Eh           -4.8607 eV

 SCC (total)                   0 d,  0 h,  7 min, 54.033 sec
 SCC setup                      ...        0 min,  1.970 sec (  0.416%)
 Dispersion                     ...        0 min,  4.180 sec (  0.882%)
 classical contributions        ...        0 min,  0.139 sec (  0.029%)
 integral evaluation            ...        0 min,  7.229 sec (  1.525%)
 iterations                     ...        3 min, 29.998 sec ( 44.300%)
 molecular gradient             ...        4 min,  0.670 sec ( 50.771%)
 printout                       ...        0 min,  9.847 sec (  2.077%)

         :::::::::::::::::::::::::::::::::::::::::::::::::::::
         ::                     SUMMARY                     ::
         :::::::::::::::::::::::::::::::::::::::::::::::::::::
         :: total energy           -3715.343046083479 Eh    ::
         :: total w/o Gsasa/hb     -3715.232086132216 Eh    ::
         :: gradient norm              0.670918713642 Eh/a0 ::
         :: HOMO-LUMO gap             10.513298448363 eV    ::
         ::.................................................::
         :: SCC energy             -3764.150785694794 Eh    ::
         :: -> isotropic ES            0.437652323035 Eh    ::
         :: -> anisotropic ES          1.498471585595 Eh    ::
         :: -> anisotropic XC          2.302695663786 Eh    ::
         :: -> dispersion             -4.686389829548 Eh    ::
         :: -> Gsolv                  -0.046754071595 Eh    ::
         ::    -> Gelec                0.064205879667 Eh    ::
         ::    -> Gsasa               -0.106325815273 Eh    ::
         ::    -> Ghb                 -0.006491579116 Eh    ::
         ::    -> Gshift               0.001857443127 Eh    ::
         :: repulsion energy          48.089103829485 Eh    ::
         :: add. restraining           0.000000000000 Eh    ::
         :: total charge              -0.000000000011 e     ::
         :::::::::::::::::::::::::::::::::::::::::::::::::::::

      ----------------------------------------------------------- 
     |              Fast Inertial Relaxation Engine              |
      ----------------------------------------------------------- 

          ...................................................
          :                      SETUP                      :
          :.................................................:
          :   energy convergence        0.5000000E-05 Eh    :
          :   grad. convergence         0.1000000E-02 Eh/a0 :
          :   optimization log               true           :
          :   writing optlog all                1     steps :
          :   Hessian reset                    20     steps :
          :   time step scaling                 5     steps :
          :   maximium step len.        1.0000000     a0    :
          :   initial time step         0.2500000     fs    :
          :   maximum time step         1.2500000     fs    :
          :   power reset thr           0.0000000     au    :
          :   alpha parameter           0.1000000           :
          :   BFGS update                   false           :
          :   preconditioning               false           :
          ...................................................

........................................................................
.............................. CYCLE    1 ..............................
........................................................................

 iter      E             dE          RMSdq      gap      omega  full diag
   1  -3764.4159563 -0.376442E+04  0.770E-03   10.53       0.0  T
   2  -3764.4160014 -0.450382E-04  0.418E-03   10.53       1.0  T
   3  -3764.4160021 -0.686022E-06  0.182E-03   10.53       1.0  T
   4  -3764.4160026 -0.528231E-06  0.451E-04   10.53       3.7  T
   5  -3764.4160029 -0.290171E-06  0.174E-04   10.53       9.7  T
     SCC iter.                  ...        5 min, 38.106 sec
     gradient                   ...        3 min, 59.669 sec
 * total energy  : -3715.3943427 Eh     change    :  -0.5129665E-01 Eh
   gradient norm :     0.6381907 Eh/a0  converged?    E=F G=F D=F
   time step     :     0.2500000 fs     power     :   0.2654388E-05
   step length   :     0.0786302 a0     speed     :   0.7607898E-02

........................................................................
.............................. CYCLE    2 ..............................
........................................................................

 iter      E             dE          RMSdq      gap      omega  full diag
   1  -3764.8069582 -0.376481E+04  0.113E-02   10.54       0.0  T
   2  -3764.8070550 -0.967423E-04  0.613E-03   10.54       1.0  T
   3  -3764.8070565 -0.152080E-05  0.266E-03   10.54       1.0  T
   4  -3764.8070577 -0.114242E-05  0.667E-04   10.54       2.5  T
   5  -3764.8070583 -0.630330E-06  0.266E-04   10.54       6.3  T
   6  -3764.8070583 -0.382261E-07  0.118E-04   10.54      14.2  T
     SCC iter.                  ...        6 min, 56.669 sec
     gradient                   ...        3 min, 59.661 sec
 * total energy  : -3715.4654771 Eh     change    :  -0.7113437E-01 Eh
   gradient norm :     0.5913420 Eh/a0  converged?    E=F G=F D=F
   time step     :     0.2500000 fs     power     :   0.3627611E-05
   step length   :     0.1159329 a0     speed     :   0.1121713E-01

........................................................................
.............................. CYCLE    3 ..............................
........................................................................

 iter      E             dE          RMSdq      gap      omega  full diag
   1  -3765.3137830 -0.376531E+04  0.146E-02   10.56       0.0  T
   2  -3765.3139412 -0.158226E-03  0.790E-03   10.56       1.0  T
   3  -3765.3139437 -0.252033E-05  0.340E-03   10.56       1.0  T
   4  -3765.3139456 -0.185687E-05  0.856E-04   10.56       2.0  T
   5  -3765.3139466 -0.103795E-05  0.346E-04   10.56       4.9  T
   6  -3765.3139467 -0.618952E-07  0.149E-04   10.56      11.3  T
   7  -3765.3139467 -0.305031E-07  0.939E-05   10.56      17.9  T
     SCC iter.                  ...        7 min, 59.802 sec
     gradient                   ...        3 min, 59.865 sec
 * total energy  : -3715.5497217 Eh     change    :  -0.8424457E-01 Eh
   gradient norm :     0.5323256 Eh/a0  converged?    E=F G=F D=F
   time step     :     0.2500000 fs     power     :   0.4223867E-05
   step length   :     0.1504862 a0     speed     :   0.1456035E-01

........................................................................
.............................. CYCLE    4 ..............................
........................................................................

 iter      E             dE          RMSdq      gap      omega  full diag
   1  -3765.9235631 -0.376592E+04  0.174E-02   10.58       0.0  T
   2  -3765.9237832 -0.220082E-03  0.942E-03   10.58       1.0  T
   3  -3765.9237868 -0.356572E-05  0.400E-03   10.58       1.0  T
   4  -3765.9237893 -0.249812E-05  0.100E-03   10.58       1.7  T
   5  -3765.9237907 -0.141606E-05  0.410E-04   10.58       4.1  T
   6  -3765.9237908 -0.750329E-07  0.167E-04   10.57      10.1  T
   7  -3765.9237908 -0.362520E-07  0.103E-04   10.57      16.2  T
     SCC iter.                  ...        7 min, 58.872 sec
     gradient                   ...        3 min, 59.830 sec
 * total energy  : -3715.6393667 Eh     change    :  -0.8964505E-01 Eh
   gradient norm :     0.4649671 Eh/a0  converged?    E=F G=F D=F
   time step     :     0.2500000 fs     power     :   0.4403894E-05
   step length   :     0.1814520 a0     speed     :   0.1755646E-01

........................................................................
.............................. CYCLE    5 ..............................
........................................................................

 iter      E             dE          RMSdq      gap      omega  full diag
   1  -3766.6206752 -0.376662E+04  0.197E-02   10.59       0.0  T
   2  -3766.6209471 -0.271956E-03  0.106E-02   10.59       1.0  T
   3  -3766.6209518 -0.466468E-05  0.443E-03   10.59       1.0  T
   4  -3766.6209548 -0.299338E-05  0.111E-03   10.59       1.5  T
   5  -3766.6209565 -0.170096E-05  0.472E-04   10.59       3.6  T
   6  -3766.6209566 -0.944228E-07  0.183E-04   10.59       9.2  T
   7  -3766.6209566 -0.429613E-07  0.115E-04   10.58      14.6  T
     SCC iter.                  ...        7 min, 59.494 sec
     gradient                   ...        4 min,  0.119 sec
 * total energy  : -3715.7267078 Eh     change    :  -0.8734105E-01 Eh
   gradient norm :     0.3946513 Eh/a0  converged?    E=F G=F D=F
   time step     :     0.2500000 fs     power     :   0.4182165E-05
   step length   :     0.2081088 a0     speed     :   0.2013564E-01

........................................................................
.............................. CYCLE    6 ..............................
........................................................................

 iter      E             dE          RMSdq      gap      omega  full diag
   1  -3767.4707230 -0.376747E+04  0.238E-02   10.60       0.0  T
   2  -3767.4710958 -0.372796E-03  0.128E-02   10.60       1.0  T
   3  -3767.4711029 -0.709158E-05  0.518E-03   10.60       1.0  T
   4  -3767.4711068 -0.389368E-05  0.128E-03   10.60       1.3  T
   5  -3767.4711090 -0.217523E-05  0.580E-04   10.60       2.9  T
   6  -3767.4711091 -0.131218E-06  0.208E-04   10.60       8.1  T
   7  -3767.4711091 -0.543751E-07  0.133E-04   10.59      12.6  T
     SCC iter.                  ...        8 min,  5.199 sec
     gradient                   ...        4 min,  0.693 sec
 * total energy  : -3715.8126570 Eh     change    :  -0.8594921E-01 Eh
   gradient norm :     0.3227326 Eh/a0  converged?    E=F G=F D=F
   time step     :     0.2750000 fs     power     :   0.3553627E-05
   step length   :     0.2552388 a0     speed     :   0.2245066E-01

........................................................................
.............................. CYCLE    7 ..............................
........................................................................

 iter      E             dE          RMSdq      gap      omega  full diag
   1  -3768.4695977 -0.376847E+04  0.277E-02   10.61       0.0  T
   2  -3768.4700542 -0.456497E-03  0.148E-02   10.61       1.0  T
   3  -3768.4700647 -0.104882E-04  0.572E-03   10.61       1.0  T
   4  -3768.4700691 -0.438698E-05  0.138E-03   10.61       1.2  T
   5  -3768.4700713 -0.223542E-05  0.689E-04   10.61       2.4  T
   6  -3768.4700715 -0.170286E-06  0.221E-04   10.60       7.6  T
   7  -3768.4700716 -0.601676E-07  0.146E-04   10.60      11.5  T
     SCC iter.                  ...        7 min, 57.188 sec
     gradient                   ...        4 min,  1.058 sec
 * total energy  : -3715.8876066 Eh     change    :  -0.7494965E-01 Eh
   gradient norm :     0.2659457 Eh/a0  converged?    E=F G=F D=F
   time step     :     0.3025000 fs     power     :   0.2577691E-05
   step length   :     0.3035919 a0     speed     :   0.2427615E-01

........................................................................
.............................. CYCLE    8 ..............................
........................................................................

 iter      E             dE          RMSdq      gap      omega  full diag
   1  -3769.5817458 -0.376958E+04  0.308E-02   10.62       0.0  T
   2  -3769.5822189 -0.473064E-03  0.164E-02   10.62       1.0  T
   3  -3769.5822339 -0.149474E-04  0.586E-03   10.62       1.0  T
   4  -3769.5822379 -0.403997E-05  0.134E-03   10.61       1.3  T
   5  -3769.5822393 -0.140134E-05  0.764E-04   10.61       2.2  T
   6  -3769.5822395 -0.206184E-06  0.209E-04   10.61       8.0  T
   7  -3769.5822396 -0.531627E-07  0.146E-04   10.61      11.5  T
     SCC iter.                  ...        7 min, 59.092 sec
     gradient                   ...        3 min, 58.041 sec
 * total energy  : -3715.9433417 Eh     change    :  -0.5573508E-01 Eh
   gradient norm :     0.2446371 Eh/a0  converged?    E=F G=F D=F
   time step     :     0.3327500 fs     power     :   0.1468905E-05
   step length   :     0.3476074 a0     speed     :   0.2526888E-01

........................................................................
.............................. CYCLE    9 ..............................
........................................................................

 iter      E             dE          RMSdq      gap      omega  full diag
   1  -3770.7230452 -0.377072E+04  0.326E-02   10.63       0.0  T
   2  -3770.7234327 -0.387523E-03  0.176E-02   10.63       1.0  T
   3  -3770.7234516 -0.189075E-04  0.543E-03   10.63       1.0  T
   4  -3770.7234550 -0.335565E-05  0.130E-03   10.62       1.3  T
   5  -3770.7234555 -0.489397E-06  0.747E-04   10.62       2.3  T
   6  -3770.7234557 -0.200938E-06  0.164E-04   10.62      10.3  T
     SCC iter.                  ...        6 min, 59.881 sec
     gradient                   ...        3 min, 59.429 sec
 * total energy  : -3715.9774868 Eh     change    :  -0.3414506E-01 Eh
   gradient norm :     0.2541589 Eh/a0  converged?    E=F G=F D=F
   time step     :     0.3660250 fs     power     :   0.5393559E-06
   step length   :     0.3796038 a0     speed     :   0.2508620E-01

........................................................................
.............................. CYCLE   10 ..............................
........................................................................

 iter      E             dE          RMSdq      gap      omega  full diag
   1  -3771.7793922 -0.377178E+04  0.334E-02   10.64       0.0  T
   2  -3771.7796407 -0.248493E-03  0.186E-02   10.64       1.0  T
   3  -3771.7796568 -0.161537E-04  0.476E-03   10.64       1.0  T
   4  -3771.7796650 -0.822905E-05  0.146E-03   10.64       1.2  T
   5  -3771.7796661 -0.110003E-05  0.819E-04   10.64       2.1  T
   6  -3771.7796663 -0.133082E-06  0.139E-04   10.64      12.1  T
   7  -3771.7796663 -0.224209E-07  0.103E-04   10.64      16.4  T
     SCC iter.                  ...        8 min,  0.558 sec
     gradient                   ...        4 min,  0.353 sec
 * total energy  : -3715.9941039 Eh     change    :  -0.1661713E-01 Eh
   gradient norm :     0.2644231 Eh/a0  converged?    E=F G=F D=F
   time step     :     0.4026275 fs     power     :  -0.5685181E-07
   step length   :     0.3972872 a0     speed     :   0.2386801E-01

........................................................................
.............................. CYCLE   11 ..............................
........................................................................
 * reset velocities

 iter      E             dE          RMSdq      gap      omega  full diag
   1  -3771.7604171 -0.377176E+04  0.107E-03   10.64       0.0  T
   2  -3771.7604179 -0.873896E-06  0.655E-04   10.64       2.6  T
   3  -3771.7604179 -0.114883E-07  0.276E-04   10.64       6.1  T
     SCC iter.                  ...        3 min, 31.909 sec
     gradient                   ...        3 min, 59.425 sec
 * total energy  : -3715.9967283 Eh     change    :  -0.2624388E-02 Eh
   gradient norm :     0.2580645 Eh/a0  converged?    E=F G=F D=F
   time step     :     0.2013138 fs     power     :   0.1709025E-06
   step length   :     0.0100475 a0     speed     :   0.1207251E-02

........................................................................
.............................. CYCLE   12 ..............................
........................................................................

 iter      E             dE          RMSdq      gap      omega  full diag
   1  -3771.7224048 -0.377172E+04  0.214E-03   10.64       0.0  T
   2  -3771.7224081 -0.327588E-05  0.131E-03   10.64       1.3  T
   3  -3771.7224081 -0.274786E-07  0.532E-04   10.64       3.2  T
   4  -3771.7224082 -0.858386E-07  0.139E-04   10.64      12.1  T
     SCC iter.                  ...        4 min, 36.816 sec
     gradient                   ...        3 min, 58.845 sec
 * total energy  : -3716.0017279 Eh     change    :  -0.4999571E-02 Eh
   gradient norm :     0.2456570 Eh/a0  converged?    E=F G=F D=F
   time step     :     0.2013138 fs     power     :   0.3213864E-06
   step length   :     0.0198531 a0     speed     :   0.2385448E-02

........................................................................
.............................. CYCLE   13 ..............................
........................................................................

 iter      E             dE          RMSdq      gap      omega  full diag
   1  -3771.6665944 -0.377167E+04  0.309E-03   10.64       0.0  T
   2  -3771.6666018 -0.737543E-05  0.190E-03   10.64       1.0  T
   3  -3771.6666019 -0.102241E-06  0.802E-04   10.64       2.1  T
   4  -3771.6666021 -0.193780E-06  0.212E-04   10.64       7.9  T
     SCC iter.                  ...        4 min, 38.894 sec
     gradient                   ...        4 min,  0.292 sec
 * total energy  : -3716.0086323 Eh     change    :  -0.6904422E-02 Eh
   gradient norm :     0.2276872 Eh/a0  converged?    E=F G=F D=F
   time step     :     0.2013138 fs     power     :   0.4375838E-06
   step length   :     0.0291857 a0     speed     :   0.3506807E-02

........................................................................
.............................. CYCLE   14 ..............................
........................................................................

 iter      E             dE          RMSdq      gap      omega  full diag
   1  -3771.5944451 -0.377159E+04  0.398E-03   10.64       0.0  T
   2  -3771.5944574 -0.123326E-04  0.245E-03   10.64       1.0  T
   3  -3771.5944576 -0.176059E-06  0.104E-03   10.64       1.6  T
   4  -3771.5944579 -0.321907E-06  0.275E-04   10.64       6.1  T
   5  -3771.5944580 -0.957216E-07  0.635E-05   10.64      26.5  T
     SCC iter.                  ...        5 min, 41.524 sec
     gradient                   ...        3 min, 59.194 sec
 * total energy  : -3716.0168024 Eh     change    :  -0.8170061E-02 Eh
   gradient norm :     0.2049324 Eh/a0  converged?    E=F G=F D=F
   time step     :     0.2013138 fs     power     :   0.5094683E-06
   step length   :     0.0378293 a0     speed     :   0.4545383E-02

........................................................................
.............................. CYCLE   15 ..............................
........................................................................

 iter      E             dE          RMSdq      gap      omega  full diag
   1  -3771.5079290 -0.377151E+04  0.477E-03   10.64       0.0  T
   2  -3771.5079468 -0.178005E-04  0.293E-03   10.64       1.0  T
   3  -3771.5079471 -0.259532E-06  0.124E-03   10.64       1.4  T
   4  -3771.5079475 -0.448469E-06  0.329E-04   10.64       5.1  T
   5  -3771.5079477 -0.136577E-06  0.753E-05   10.64      22.3  T
     SCC iter.                  ...        5 min, 41.195 sec
     gradient                   ...        3 min, 59.651 sec
 * total energy  : -3716.0255014 Eh     change    :  -0.8698996E-02 Eh
   gradient norm :     0.1784523 Eh/a0  converged?    E=F G=F D=F
   time step     :     0.2013138 fs     power     :   0.5318857E-06
   step length   :     0.0455904 a0     speed     :   0.5477912E-02

........................................................................
.............................. CYCLE   16 ..............................
........................................................................

 iter      E             dE          RMSdq      gap      omega  full diag
   1  -3771.4095900 -0.377141E+04  0.541E-03   10.64       0.0  T
   2  -3771.4096131 -0.230892E-04  0.334E-03   10.65       1.0  T
   3  -3771.4096134 -0.341693E-06  0.141E-03   10.64       1.2  T
   4  -3771.4096140 -0.569541E-06  0.375E-04   10.65       4.5  T
   5  -3771.4096142 -0.176070E-06  0.857E-05   10.65      19.6  T
     SCC iter.                  ...        5 min, 41.592 sec
     gradient                   ...        4 min,  1.081 sec
 * total energy  : -3716.0339800 Eh     change    :  -0.8478645E-02 Eh
   gradient norm :     0.1498441 Eh/a0  converged?    E=F G=F D=F
   time step     :     0.2013138 fs     power     :   0.5055371E-06
   step length   :     0.0522986 a0     speed     :   0.6283937E-02

........................................................................
.............................. CYCLE   17 ..............................
........................................................................

 iter      E             dE          RMSdq      gap      omega  full diag
   1  -3771.2909074 -0.377129E+04  0.654E-03   10.65       0.0  T
   2  -3771.2909413 -0.339125E-04  0.404E-03   10.65       1.0  T
   3  -3771.2909418 -0.506984E-06  0.171E-03   10.65       1.0  T
   4  -3771.2909426 -0.814911E-06  0.453E-04   10.65       3.7  T
   5  -3771.2909429 -0.256290E-06  0.102E-04   10.65      16.5  T
     SCC iter.                  ...        5 min, 37.420 sec
     gradient                   ...        3 min, 59.696 sec
 * total energy  : -3716.0422943 Eh     change    :  -0.8314346E-02 Eh
   gradient norm :     0.1186479 Eh/a0  converged?    E=F G=F D=F
   time step     :     0.2214451 fs     power     :   0.4277944E-06
   step length   :     0.0642009 a0     speed     :   0.7012777E-02

........................................................................
.............................. CYCLE   18 ..............................
........................................................................

 iter      E             dE          RMSdq      gap      omega  full diag
   1  -3771.1540883 -0.377115E+04  0.760E-03   10.65       0.0  T
   2  -3771.1541341 -0.458598E-04  0.471E-03   10.65       1.0  T
   3  -3771.1541348 -0.687802E-06  0.198E-03   10.65       1.0  T
   4  -3771.1541359 -0.107569E-05  0.528E-04   10.65       3.2  T
   5  -3771.1541362 -0.344195E-06  0.118E-04   10.65      14.2  T
   6  -3771.1541362 -0.901900E-08  0.787E-05   10.65      21.4  T
     SCC iter.                  ...        7 min,  5.027 sec
     gradient                   ...        4 min,  0.452 sec
 * total energy  : -3716.0494157 Eh     change    :  -0.7121385E-02 Eh
   gradient norm :     0.0911769 Eh/a0  converged?    E=F G=F D=F
   time step     :     0.2435896 fs     power     :   0.3023347E-06
   step length   :     0.0765154 a0     speed     :   0.7598101E-02

........................................................................
.............................. CYCLE   19 ..............................
........................................................................

 iter      E             dE          RMSdq      gap      omega  full diag
   1  -3771.0077682 -0.377101E+04  0.832E-03   10.66       0.0  T
   2  -3771.0078227 -0.544505E-04  0.519E-03   10.66       1.0  T
   3  -3771.0078235 -0.780989E-06  0.216E-03   10.66       1.0  T
   4  -3771.0078247 -0.126896E-05  0.576E-04   10.66       2.9  T
   5  -3771.0078251 -0.405808E-06  0.122E-04   10.66      13.8  T
   6  -3771.0078251 -0.782165E-08  0.769E-05   10.66      21.9  T
     SCC iter.                  ...        6 min, 48.741 sec
     gradient                   ...        3 min, 59.854 sec
 * total energy  : -3716.0543902 Eh     change    :  -0.4974474E-02 Eh
   gradient norm :     0.0813108 Eh/a0  converged?    E=F G=F D=F
   time step     :     0.2679486 fs     power     :   0.1547715E-06
   step length   :     0.0877967 a0     speed     :   0.7925776E-02

........................................................................
.............................. CYCLE   20 ..............................
........................................................................

 iter      E             dE          RMSdq      gap      omega  full diag
   1  -3770.8708368 -0.377087E+04  0.833E-03   10.66       0.0  T
   2  -3770.8708885 -0.517451E-04  0.525E-03   10.67       1.0  T
   3  -3770.8708892 -0.631564E-06  0.210E-03   10.66       1.0  T
   4  -3770.8708905 -0.130044E-05  0.565E-04   10.67       3.0  T
   5  -3770.8708909 -0.388646E-06  0.122E-04   10.67      13.8  T
   6  -3770.8708909 -0.608452E-08  0.708E-05   10.67      23.7  T
     SCC iter.                  ...        6 min, 49.457 sec
     gradient                   ...        3 min, 57.758 sec
 * total energy  : -3716.0570281 Eh     change    :  -0.2637851E-02 Eh
   gradient norm :     0.0955005 Eh/a0  converged?    E=F G=F D=F
   time step     :     0.2947435 fs     power     :   0.3902045E-07
   step length   :     0.0952985 a0     speed     :   0.7820903E-02
 * RMSD in coord.:     0.0375412 a0     energy gain  -0.7139820E+00 Eh

........................................................................
.............................. CYCLE   21 ..............................
........................................................................

 iter      E             dE          RMSdq      gap      omega  full diag
   1  -3770.7876567 -0.377079E+04  0.589E-03   10.67       0.0  T
   2  -3770.7876790 -0.223487E-04  0.375E-03   10.67       1.0  T
   3  -3770.7876792 -0.134463E-06  0.137E-03   10.67       1.2  T
   4  -3770.7876799 -0.722484E-06  0.374E-04   10.67       4.5  T
   5  -3770.7876801 -0.171606E-06  0.886E-05   10.67      19.0  T
     SCC iter.                  ...        5 min, 38.518 sec
     gradient                   ...        3 min, 59.854 sec
 * total energy  : -3716.0581897 Eh     change    :  -0.1161647E-02 Eh
   gradient norm :     0.1125446 Eh/a0  converged?    E=F G=F D=F
   time step     :     0.2500000 fs     power     :   0.1876145E-07
   step length   :     0.0752929 a0     speed     :   0.7284993E-02

........................................................................
.............................. CYCLE   22 ..............................
........................................................................

 iter      E             dE          RMSdq      gap      omega  full diag
   1  -3770.7402105 -0.377074E+04  0.484E-03   10.68       0.0  T
   2  -3770.7402209 -0.104166E-04  0.308E-03   10.68       1.0  T
   3  -3770.7402208  0.113114E-06  0.892E-04   10.68       1.9  T
   4  -3770.7402214 -0.559776E-06  0.255E-04   10.68       6.6  T
     SCC iter.                  ...        4 min, 35.204 sec
     gradient                   ...        3 min, 59.158 sec
 * total energy  : -3716.0596477 Eh     change    :  -0.1458007E-02 Eh
   gradient norm :     0.1248159 Eh/a0  converged?    E=F G=F D=F
   time step     :     0.2500000 fs     power     :   0.5345382E-07
   step length   :     0.0697943 a0     speed     :   0.6752978E-02

........................................................................
.............................. CYCLE   23 ..............................
........................................................................

 iter      E             dE          RMSdq      gap      omega  full diag
   1  -3770.7277277 -0.377073E+04  0.420E-03   10.69       0.0  T
   2  -3770.7277308 -0.317789E-05  0.263E-03   10.69       1.0  T
   3  -3770.7277307  0.130003E-06  0.411E-04   10.69       4.1  T
   4  -3770.7277311 -0.346831E-06  0.151E-04   10.69      11.1  T
     SCC iter.                  ...        4 min, 38.082 sec
     gradient                   ...        3 min, 57.689 sec
 * total energy  : -3716.0620918 Eh     change    :  -0.2444124E-02 Eh
   gradient norm :     0.1298668 Eh/a0  converged?    E=F G=F D=F
   time step     :     0.2500000 fs     power     :   0.1166114E-06
   step length   :     0.0660122 a0     speed     :   0.6387033E-02

........................................................................
.............................. CYCLE   24 ..............................
........................................................................

 iter      E             dE          RMSdq      gap      omega  full diag
   1  -3770.7477068 -0.377075E+04  0.410E-03   10.70       0.0  T
   2  -3770.7477073 -0.503646E-06  0.247E-03   10.70       1.0  T
   3  -3770.7477074 -0.939158E-07  0.185E-04   10.70       9.1  T
   4  -3770.7477075 -0.481482E-07  0.103E-04   10.70      16.3  T
     SCC iter.                  ...        4 min, 38.764 sec
     gradient                   ...        3 min, 58.904 sec
 * total energy  : -3716.0657324 Eh     change    :  -0.3640572E-02 Eh
   gradient norm :     0.1276679 Eh/a0  converged?    E=F G=F D=F
   time step     :     0.2500000 fs     power     :   0.1835150E-06
   step length   :     0.0645319 a0     speed     :   0.6243810E-02

........................................................................
.............................. CYCLE   25 ..............................
........................................................................

 iter      E             dE          RMSdq      gap      omega  full diag
   1  -3770.7967290 -0.377080E+04  0.444E-03   10.70       0.0  T
   2  -3770.7967304 -0.133766E-05  0.258E-03   10.70       1.0  T
   3  -3770.7967304 -0.296191E-07  0.363E-04   10.70       4.6  T
   4  -3770.7967305 -0.149094E-06  0.118E-04   10.70      14.3  T
     SCC iter.                  ...        4 min, 33.190 sec
     gradient                   ...        3 min, 59.005 sec
 * total energy  : -3716.0704025 Eh     change    :  -0.4670124E-02 Eh
   gradient norm :     0.1192261 Eh/a0  converged?    E=F G=F D=F
   time step     :     0.2500000 fs     power     :   0.2360848E-06
   step length   :     0.0651657 a0     speed     :   0.6305129E-02

........................................................................
.............................. CYCLE   26 ..............................
........................................................................

 iter      E             dE          RMSdq      gap      omega  full diag
   1  -3770.8798709 -0.377088E+04  0.553E-03   10.71       0.0  T
   2  -3770.8798766 -0.567439E-05  0.315E-03   10.71       1.0  T
   3  -3770.8798764  0.114664E-06  0.767E-04   10.71       2.2  T
   4  -3770.8798769 -0.468803E-06  0.174E-04   10.71       9.7  T
     SCC iter.                  ...        4 min, 32.369 sec
     gradient                   ...        3 min, 58.269 sec
 * total energy  : -3716.0762696 Eh     change    :  -0.5867033E-02 Eh
   gradient norm :     0.1046303 Eh/a0  converged?    E=F G=F D=F
   time step     :     0.2750000 fs     power     :   0.2637007E-06
   step length   :     0.0745657 a0     speed     :   0.6558753E-02

........................................................................
.............................. CYCLE   27 ..............................
........................................................................

 iter      E             dE          RMSdq      gap      omega  full diag
   1  -3770.9987140 -0.377100E+04  0.684E-03   10.72       0.0  T
   2  -3770.9987275 -0.134911E-04  0.387E-03   10.72       1.0  T
   3  -3770.9987273  0.173126E-06  0.114E-03   10.72       1.5  T
   4  -3770.9987281 -0.795799E-06  0.251E-04   10.72       6.7  T
   5  -3770.9987282 -0.101473E-06  0.118E-04   10.72      14.3  T
     SCC iter.                  ...        5 min, 48.026 sec
     gradient                   ...        3 min, 59.683 sec
 * total energy  : -3716.0827919 Eh     change    :  -0.6522289E-02 Eh
   gradient norm :     0.0862339 Eh/a0  converged?    E=F G=F D=F
   time step     :     0.3025000 fs     power     :   0.2558669E-06
   step length   :     0.0867405 a0     speed     :   0.6936039E-02

........................................................................
.............................. CYCLE   28 ..............................
........................................................................

 iter      E             dE          RMSdq      gap      omega  full diag
   1  -3771.1509171 -0.377115E+04  0.813E-03   10.73       0.0  T
   2  -3771.1509401 -0.230565E-04  0.458E-03   10.73       1.0  T
   3  -3771.1509400  0.171059E-06  0.144E-03   10.73       1.2  T
   4  -3771.1509410 -0.104265E-05  0.321E-04   10.73       5.2  T
   5  -3771.1509412 -0.167958E-06  0.129E-04   10.73      13.1  T
   6  -3771.1509412 -0.156933E-07  0.775E-05   10.73      21.7  T
     SCC iter.                  ...        6 min, 49.599 sec
     gradient                   ...        3 min, 58.390 sec
 * total energy  : -3716.0891491 Eh     change    :  -0.6357232E-02 Eh
   gradient norm :     0.0706304 Eh/a0  converged?    E=F G=F D=F
   time step     :     0.3327500 fs     power     :   0.2129328E-06
   step length   :     0.1009884 a0     speed     :   0.7341222E-02

........................................................................
.............................. CYCLE   29 ..............................
........................................................................

 iter      E             dE          RMSdq      gap      omega  full diag
   1  -3771.3252739 -0.377133E+04  0.900E-03   10.74       0.0  T
   2  -3771.3253025 -0.286092E-04  0.505E-03   10.74       1.0  T
   3  -3771.3253024  0.147351E-06  0.156E-03   10.74       1.1  T
   4  -3771.3253034 -0.108942E-05  0.354E-04   10.74       4.7  T
   5  -3771.3253037 -0.204243E-06  0.129E-04   10.74      13.0  T
   6  -3771.3253037 -0.123969E-07  0.733E-05   10.74      23.0  T
     SCC iter.                  ...        6 min, 49.140 sec
     gradient                   ...        3 min, 58.244 sec
 * total energy  : -3716.0946350 Eh     change    :  -0.5485912E-02 Eh
   gradient norm :     0.0677462 Eh/a0  converged?    E=F G=F D=F
   time step     :     0.3660250 fs     power     :   0.1548509E-06
   step length   :     0.1157544 a0     speed     :   0.7649654E-02

........................................................................
.............................. CYCLE   30 ..............................
........................................................................

 iter      E             dE          RMSdq      gap      omega  full diag
   1  -3771.4977183 -0.377150E+04  0.905E-03   10.75       0.0  T
   2  -3771.4977417 -0.233961E-04  0.506E-03   10.75       1.0  T
   3  -3771.4977417  0.127520E-07  0.136E-03   10.75       1.2  T
   4  -3771.4977425 -0.753416E-06  0.312E-04   10.75       5.4  T
   5  -3771.4977426 -0.152276E-06  0.124E-04   10.75      13.5  T
     SCC iter.                  ...        5 min, 44.497 sec
     gradient                   ...        3 min, 58.401 sec
 * total energy  : -3716.0993071 Eh     change    :  -0.4672125E-02 Eh
   gradient norm :     0.0762459 Eh/a0  converged?    E=F G=F D=F
   time step     :     0.4026275 fs     power     :   0.1174187E-06
   step length   :     0.1287629 a0     speed     :   0.7735749E-02

........................................................................
.............................. CYCLE   31 ..............................
........................................................................

 iter      E             dE          RMSdq      gap      omega  full diag
   1  -3771.6404519 -0.377164E+04  0.841E-03   10.76       0.0  T
   2  -3771.6404627 -0.108633E-04  0.473E-03   10.76       1.0  T
   3  -3771.6404630 -0.269279E-06  0.884E-04   10.76       1.9  T
   4  -3771.6404632 -0.236761E-06  0.202E-04   10.76       8.3  T
     SCC iter.                  ...        4 min, 31.642 sec
     gradient                   ...        3 min, 58.052 sec
 * total energy  : -3716.1041028 Eh     change    :  -0.4795654E-02 Eh
   gradient norm :     0.0828297 Eh/a0  converged?    E=F G=F D=F
   time step     :     0.4428903 fs     power     :   0.1181544E-06
   step length   :     0.1405013 a0     speed     :   0.7673603E-02

........................................................................
.............................. CYCLE   32 ..............................
........................................................................

 iter      E             dE          RMSdq      gap      omega  full diag
   1  -3771.7303072 -0.377173E+04  0.774E-03   10.77       0.0  T
   2  -3771.7303101 -0.284848E-05  0.453E-03   10.77       1.0  T
   3  -3771.7303100  0.117878E-06  0.625E-04   10.77       2.7  T
   4  -3771.7303106 -0.666952E-06  0.186E-04   10.77       9.0  T
     SCC iter.                  ...        4 min, 33.919 sec
     gradient                   ...        3 min, 59.547 sec
 * total energy  : -3716.1099716 Eh     change    :  -0.5868807E-02 Eh
   gradient norm :     0.0789362 Eh/a0  converged?    E=F G=F D=F
   time step     :     0.4871793 fs     power     :   0.1382086E-06
   step length   :     0.1543293 a0     speed     :   0.7662575E-02

........................................................................
.............................. CYCLE   33 ..............................
........................................................................

 iter      E             dE          RMSdq      gap      omega  full diag
   1  -3771.7523095 -0.377175E+04  0.771E-03   10.78       0.0  T
   2  -3771.7523200 -0.104115E-04  0.482E-03   10.78       1.0  T
   3  -3771.7523186  0.140237E-05  0.114E-03   10.78       1.5  T
   4  -3771.7523212 -0.259877E-05  0.223E-04   10.78       7.5  T
   5  -3771.7523212 -0.345276E-07  0.125E-04   10.78      13.5  T
   6  -3771.7523212 -0.754062E-08  0.535E-05   10.78      31.4  T
     SCC iter.                  ...        6 min, 51.604 sec
     gradient                   ...        4 min,  0.314 sec
 * total energy  : -3716.1168115 Eh     change    :  -0.6839885E-02 Eh
   gradient norm :     0.0659671 Eh/a0  converged?    E=F G=F D=F
   time step     :     0.5358972 fs     power     :   0.1409115E-06
   step length   :     0.1727045 a0     speed     :   0.7795380E-02

........................................................................
.............................. CYCLE   34 ..............................
........................................................................

 iter      E             dE          RMSdq      gap      omega  full diag
   1  -3771.7088320 -0.377171E+04  0.832E-03   10.79       0.0  T
   2  -3771.7088626 -0.305559E-04  0.542E-03   10.80       1.0  T
   3  -3771.7088620  0.603742E-06  0.170E-03   10.79       1.0  T
   4  -3771.7088643 -0.236644E-05  0.398E-04   10.80       4.2  T
   5  -3771.7088645 -0.221358E-06  0.152E-04   10.80      11.0  T
   6  -3771.7088646 -0.149198E-07  0.804E-05   10.80      20.9  T
     SCC iter.                  ...        6 min, 56.273 sec
     gradient                   ...        3 min, 59.388 sec
 * total energy  : -3716.1233965 Eh     change    :  -0.6585042E-02 Eh
   gradient norm :     0.0582352 Eh/a0  converged?    E=F G=F D=F
   time step     :     0.5894869 fs     power     :   0.1105567E-06
   step length   :     0.1948913 a0     speed     :   0.7997116E-02

........................................................................
.............................. CYCLE   35 ..............................
........................................................................

 iter      E             dE          RMSdq      gap      omega  full diag
   1  -3771.6379613 -0.377164E+04  0.886E-03   10.81       0.0  T
   2  -3771.6379975 -0.362072E-04  0.570E-03   10.81       1.0  T
   3  -3771.6379974  0.108282E-06  0.165E-03   10.81       1.0  T
   4  -3771.6379990 -0.161820E-05  0.503E-04   10.82       3.3  T
   5  -3771.6379993 -0.316838E-06  0.170E-04   10.82       9.9  T
   6  -3771.6379993 -0.141122E-07  0.754E-05   10.82      22.3  T
     SCC iter.                  ...        6 min, 55.645 sec
     gradient                   ...        3 min, 59.172 sec
 * total energy  : -3716.1291089 Eh     change    :  -0.5712356E-02 Eh
   gradient norm :     0.0642348 Eh/a0  converged?    E=F G=F D=F
   time step     :     0.6484356 fs     power     :   0.8257257E-07
   step length   :     0.2166279 a0     speed     :   0.8080954E-02

........................................................................
.............................. CYCLE   36 ..............................
........................................................................

 iter      E             dE          RMSdq      gap      omega  full diag
   1  -3771.6024094 -0.377160E+04  0.986E-03   10.84       0.0  T
   2  -3771.6024260 -0.165812E-04  0.594E-03   10.84       1.0  T
   3  -3771.6024267 -0.709604E-06  0.935E-04   10.84       1.8  T
   4  -3771.6024272 -0.517211E-06  0.329E-04   10.84       5.1  T
     SCC iter.                  ...        4 min, 37.641 sec
     gradient                   ...        3 min, 59.518 sec
 * total energy  : -3716.1351027 Eh     change    :  -0.5993791E-02 Eh
   gradient norm :     0.0646116 Eh/a0  converged?    E=F G=F D=F
   time step     :     0.7132792 fs     power     :   0.8549438E-07
   step length   :     0.2371932 a0     speed     :   0.8043735E-02

........................................................................
.............................. CYCLE   37 ..............................
........................................................................

 iter      E             dE          RMSdq      gap      omega  full diag
   1  -3771.6496421 -0.377165E+04  0.120E-02   10.87       0.0  T
   2  -3771.6496503 -0.815098E-05  0.694E-03   10.87       1.0  T
   3  -3771.6496501  0.124863E-06  0.122E-03   10.87       1.4  T
   4  -3771.6496521 -0.198581E-05  0.348E-04   10.87       4.8  T
   5  -3771.6496521 -0.166383E-07  0.127E-04   10.87      13.2  T
   6  -3771.6496521 -0.663113E-08  0.337E-05   10.87      49.9  T
     SCC iter.                  ...        6 min, 45.626 sec
     gradient                   ...        3 min, 58.976 sec
 * total energy  : -3716.1417500 Eh     change    :  -0.6647298E-02 Eh
   gradient norm :     0.0528098 Eh/a0  converged?    E=F G=F D=F
   time step     :     0.7846071 fs     power     :   0.8067308E-07
   step length   :     0.2622040 a0     speed     :   0.8083551E-02

........................................................................
.............................. CYCLE   38 ..............................
........................................................................

 iter      E             dE          RMSdq      gap      omega  full diag
   1  -3771.7800493 -0.377178E+04  0.133E-02   10.90       0.0  T
   2  -3771.7800732 -0.239085E-04  0.770E-03   10.90       1.0  T
   3  -3771.7800720  0.117535E-05  0.173E-03   10.90       1.0  T
   4  -3771.7800755 -0.345947E-05  0.363E-04   10.90       4.6  T
   5  -3771.7800756 -0.112185E-06  0.179E-04   10.90       9.4  T
   6  -3771.7800756 -0.922728E-08  0.601E-05   10.90      28.0  T
     SCC iter.                  ...        6 min, 51.818 sec
     gradient                   ...        3 min, 59.478 sec
 * total energy  : -3716.1472992 Eh     change    :  -0.5549242E-02 Eh
   gradient norm :     0.0537416 Eh/a0  converged?    E=F G=F D=F
   time step     :     0.8630678 fs     power     :   0.4636526E-07
   step length   :     0.2903513 a0     speed     :   0.8137556E-02

........................................................................
.............................. CYCLE   39 ..............................
........................................................................

 iter      E             dE          RMSdq      gap      omega  full diag
   1  -3771.9169833 -0.377192E+04  0.120E-02   10.93       0.0  T
   2  -3771.9169988 -0.154545E-04  0.695E-03   10.93       1.0  T
   3  -3771.9169991 -0.324352E-06  0.107E-03   10.93       1.6  T
   4  -3771.9170000 -0.859029E-06  0.280E-04   10.93       6.0  T
   5  -3771.9170000 -0.531031E-07  0.145E-04   10.93      11.6  T
     SCC iter.                  ...        5 min, 43.229 sec
     gradient                   ...        3 min, 59.012 sec
 * total energy  : -3716.1522808 Eh     change    :  -0.4981584E-02 Eh
   gradient norm :     0.0589900 Eh/a0  converged?    E=F G=F D=F
   time step     :     0.9493746 fs     power     :   0.4175488E-07
   step length   :     0.3139345 a0     speed     :   0.7998648E-02

........................................................................
.............................. CYCLE   40 ..............................
........................................................................

 iter      E             dE          RMSdq      gap      omega  full diag
   1  -3771.9879424 -0.377199E+04  0.115E-02   10.95       0.0  T
   2  -3771.9879580 -0.156042E-04  0.689E-03   10.95       1.0  T
   3  -3771.9879561  0.187803E-05  0.158E-03   10.95       1.1  T
   4  -3771.9879606 -0.447356E-05  0.337E-04   10.95       5.0  T
   5  -3771.9879606 -0.403738E-07  0.185E-04   10.95       9.1  T
   6  -3771.9879606 -0.191026E-07  0.721E-05   10.95      23.3  T
     SCC iter.                  ...        6 min, 49.319 sec
     gradient                   ...        3 min, 59.938 sec
 * total energy  : -3716.1582199 Eh     change    :  -0.5939137E-02 Eh
   gradient norm :     0.0501882 Eh/a0  converged?    E=F G=F D=F
   time step     :     1.0443120 fs     power     :   0.4513939E-07
   step length   :     0.3417272 a0     speed     :   0.7915244E-02

........................................................................
.............................. CYCLE   41 ..............................
........................................................................

 iter      E             dE          RMSdq      gap      omega  full diag
   1  -3772.0077117 -0.377201E+04  0.125E-02   10.96       0.0  T
   2  -3772.0077438 -0.321189E-04  0.775E-03   10.97       1.0  T
   3  -3772.0077418  0.202410E-05  0.182E-03   10.97       1.0  T
   4  -3772.0077470 -0.516619E-05  0.430E-04   10.97       3.9  T
   5  -3772.0077471 -0.174562E-06  0.229E-04   10.97       7.4  T
   6  -3772.0077472 -0.340297E-07  0.106E-04   10.97      15.9  T
     SCC iter.                  ...        6 min, 49.414 sec
     gradient                   ...        4 min,  0.127 sec
 * total energy  : -3716.1633568 Eh     change    :  -0.5136908E-02 Eh
   gradient norm :     0.0506160 Eh/a0  converged?    E=F G=F D=F
   time step     :     1.1487432 fs     power     :   0.2262515E-07
   step length   :     0.3746946 a0     speed     :   0.7889864E-02

........................................................................
.............................. CYCLE   42 ..............................
........................................................................

 iter      E             dE          RMSdq      gap      omega  full diag
   1  -3772.0738801 -0.377207E+04  0.140E-02   10.99       0.0  T
   2  -3772.0738890 -0.896557E-05  0.819E-03   10.99       1.0  T
   3  -3772.0738894 -0.354115E-06  0.981E-04   10.99       1.7  T
   4  -3772.0738905 -0.110148E-05  0.320E-04   10.99       5.3  T
   5  -3772.0738905 -0.270466E-07  0.156E-04   10.99      10.8  T
     SCC iter.                  ...        5 min, 41.779 sec
     gradient                   ...        3 min, 59.941 sec
 * total energy  : -3716.1675962 Eh     change    :  -0.4239424E-02 Eh
   gradient norm :     0.0476961 Eh/a0  converged?    E=F G=F D=F
   time step     :     1.2500000 fs     power     :   0.1077683E-07
   step length   :     0.3992160 a0     speed     :   0.7725258E-02
 * RMSD in coord.:     0.0594157 a0     energy gain  -0.1105682E+00 Eh

........................................................................
.............................. CYCLE   43 ..............................
........................................................................

 iter      E             dE          RMSdq      gap      omega  full diag
   1  -3772.0880122 -0.377209E+04  0.238E-03   11.00       0.0  T
   2  -3772.0880124 -0.265105E-06  0.137E-03   11.00       1.2  T
   3  -3772.0880124  0.102218E-07  0.198E-04   11.00       8.5  T
   4  -3772.0880125 -0.537889E-07  0.522E-05   11.00      32.2  T
     SCC iter.                  ...        4 min, 36.356 sec
     gradient                   ...        4 min,  0.411 sec
 * total energy  : -3716.1682121 Eh     change    :  -0.6158111E-03 Eh
   gradient norm :     0.0479200 Eh/a0  converged?    E=F G=F D=F
   time step     :     0.2500000 fs     power     :   0.2838996E-07
   step length   :     0.0732290 a0     speed     :   0.7085298E-02

........................................................................
.............................. CYCLE   44 ..............................
........................................................................

 iter      E             dE          RMSdq      gap      omega  full diag
   1  -3772.1018788 -0.377210E+04  0.228E-03   11.00       0.0  T
   2  -3772.1018794 -0.536179E-06  0.134E-03   11.00       1.3  T
   3  -3772.1018793  0.260616E-07  0.244E-04   11.00       6.9  T
   4  -3772.1018794 -0.728137E-07  0.497E-05   11.00      33.9  T
     SCC iter.                  ...        4 min, 28.490 sec
     gradient                   ...        3 min, 59.437 sec
 * total energy  : -3716.1690965 Eh     change    :  -0.8844505E-03 Eh
   gradient norm :     0.0444203 Eh/a0  converged?    E=F G=F D=F
   time step     :     0.2500000 fs     power     :   0.4256396E-07
   step length   :     0.0681894 a0     speed     :   0.6597689E-02

........................................................................
.............................. CYCLE   45 ..............................
........................................................................

 iter      E             dE          RMSdq      gap      omega  full diag
   1  -3772.1137431 -0.377211E+04  0.243E-03   11.01       0.0  T
   2  -3772.1137439 -0.870716E-06  0.146E-03   11.01       1.2  T
   3  -3772.1137439  0.147252E-07  0.276E-04   11.01       6.1  T
   4  -3772.1137440 -0.771829E-07  0.620E-05   11.01      27.1  T
     SCC iter.                  ...        4 min, 30.885 sec
     gradient                   ...        3 min, 59.854 sec
 * total energy  : -3716.1701254 Eh     change    :  -0.1028863E-02 Eh
   gradient norm :     0.0383111 Eh/a0  converged?    E=F G=F D=F
   time step     :     0.2500000 fs     power     :   0.4868944E-07
   step length   :     0.0645079 a0     speed     :   0.6241487E-02

........................................................................
.............................. CYCLE   46 ..............................
........................................................................

 iter      E             dE          RMSdq      gap      omega  full diag
   1  -3772.1217603 -0.377212E+04  0.266E-03   11.02       0.0  T
   2  -3772.1217613 -0.107816E-05  0.162E-03   11.02       1.0  T
   3  -3772.1217613 -0.466662E-08  0.286E-04   11.02       5.9  T
   4  -3772.1217614 -0.783662E-07  0.733E-05   11.02      22.9  T
     SCC iter.                  ...        4 min, 28.337 sec
     gradient                   ...        3 min, 58.528 sec
 * total energy  : -3716.1711375 Eh     change    :  -0.1012098E-02 Eh
   gradient norm :     0.0313076 Eh/a0  converged?    E=F G=F D=F
   time step     :     0.2500000 fs     power     :   0.4592521E-07
   step length   :     0.0618144 a0     speed     :   0.5980880E-02

........................................................................
.............................. CYCLE   47 ..............................
........................................................................

 iter      E             dE          RMSdq      gap      omega  full diag
   1  -3772.1240596 -0.377212E+04  0.285E-03   11.02       0.0  T
   2  -3772.1240606 -0.105690E-05  0.173E-03   11.02       1.0  T
   3  -3772.1240606 -0.233631E-07  0.274E-04   11.02       6.1  T
   4  -3772.1240607 -0.788673E-07  0.811E-05   11.02      20.7  T
     SCC iter.                  ...        4 min, 31.210 sec
     gradient                   ...        4 min,  0.835 sec
 * total energy  : -3716.1719979 Eh     change    :  -0.8604686E-03 Eh
   gradient norm :     0.0258674 Eh/a0  converged?    E=F G=F D=F
   time step     :     0.2500000 fs     power     :   0.3668429E-07
   step length   :     0.0596494 a0     speed     :   0.5771403E-02

........................................................................
.............................. CYCLE   48 ..............................
........................................................................

 iter      E             dE          RMSdq      gap      omega  full diag
   1  -3772.1186397 -0.377212E+04  0.317E-03   11.03       0.0  T
   2  -3772.1186407 -0.101167E-05  0.191E-03   11.03       1.0  T
   3  -3772.1186408 -0.310260E-07  0.286E-04   11.03       5.9  T
   4  -3772.1186409 -0.108271E-06  0.949E-05   11.03      17.7  T
     SCC iter.                  ...        4 min, 41.195 sec
     gradient                   ...        3 min, 59.461 sec
 * total energy  : -3716.1727007 Eh     change    :  -0.7027408E-03 Eh
   gradient norm :     0.0244304 Eh/a0  converged?    E=F G=F D=F
   time step     :     0.2750000 fs     power     :   0.2431623E-07
   step length   :     0.0632604 a0     speed     :   0.5564352E-02

........................................................................
.............................. CYCLE   49 ..............................
........................................................................

 iter      E             dE          RMSdq      gap      omega  full diag
   1  -3772.1044359 -0.377210E+04  0.327E-03   11.03       0.0  T
   2  -3772.1044368 -0.852602E-06  0.194E-03   11.03       1.0  T
   3  -3772.1044368 -0.516911E-08  0.313E-04   11.03       5.4  T
   4  -3772.1044369 -0.159654E-06  0.102E-04   11.03      16.5  T
     SCC iter.                  ...        4 min, 35.706 sec
     gradient                   ...        3 min, 59.420 sec
 * total energy  : -3716.1732340 Eh     change    :  -0.5332994E-03 Eh
   gradient norm :     0.0273025 Eh/a0  converged?    E=F G=F D=F
   time step     :     0.3025000 fs     power     :   0.1523748E-07
   step length   :     0.0661746 a0     speed     :   0.5291525E-02

........................................................................
.............................. CYCLE   50 ..............................
........................................................................

 iter      E             dE          RMSdq      gap      omega  full diag
   1  -3772.0833625 -0.377208E+04  0.316E-03   11.03       0.0  T
   2  -3772.0833634 -0.819073E-06  0.184E-03   11.03       1.0  T
   3  -3772.0833633  0.211899E-07  0.335E-04   11.03       5.0  T
   4  -3772.0833635 -0.182691E-06  0.960E-05   11.03      17.5  T
     SCC iter.                  ...        4 min, 31.322 sec
     gradient                   ...        3 min, 58.734 sec
 * total energy  : -3716.1737057 Eh     change    :  -0.4716962E-03 Eh
   gradient norm :     0.0309666 Eh/a0  converged?    E=F G=F D=F
   time step     :     0.3327500 fs     power     :   0.1300857E-07
   step length   :     0.0682787 a0     speed     :   0.4963435E-02

........................................................................
.............................. CYCLE   51 ..............................
........................................................................

 iter      E             dE          RMSdq      gap      omega  full diag
   1  -3772.0588273 -0.377206E+04  0.304E-03   11.04       0.0  T
   2  -3772.0588282 -0.970143E-06  0.174E-03   11.04       1.0  T
   3  -3772.0588282  0.219457E-07  0.340E-04   11.04       4.9  T
   4  -3772.0588284 -0.153020E-06  0.833E-05   11.04      20.2  T
     SCC iter.                  ...        4 min, 35.656 sec
     gradient                   ...        4 min,  0.237 sec
 * total energy  : -3716.1742646 Eh     change    :  -0.5588803E-03 Eh
   gradient norm :     0.0326510 Eh/a0  converged?    E=F G=F D=F
   time step     :     0.3660250 fs     power     :   0.1621777E-07
   step length   :     0.0704149 a0     speed     :   0.4653381E-02

........................................................................
.............................. CYCLE   52 ..............................
........................................................................

 iter      E             dE          RMSdq      gap      omega  full diag
   1  -3772.0349465 -0.377203E+04  0.310E-03   11.04       0.0  T
   2  -3772.0349477 -0.118139E-05  0.178E-03   11.04       1.0  T
   3  -3772.0349477  0.121540E-07  0.332E-04   11.04       5.1  T
   4  -3772.0349478 -0.107983E-06  0.714E-05   11.04      23.6  T
     SCC iter.                  ...        4 min, 38.610 sec
     gradient                   ...        3 min, 59.371 sec
 * total energy  : -3716.1750066 Eh     change    :  -0.7420226E-03 Eh
   gradient norm :     0.0314233 Eh/a0  converged?    E=F G=F D=F
   time step     :     0.4026275 fs     power     :   0.2089415E-07
   step length   :     0.0734439 a0     speed     :   0.4412324E-02

........................................................................
.............................. CYCLE   53 ..............................
........................................................................

 iter      E             dE          RMSdq      gap      omega  full diag
   1  -3772.0165255 -0.377202E+04  0.340E-03   11.04       0.0  T
   2  -3772.0165267 -0.123885E-05  0.198E-03   11.04       1.0  T
   3  -3772.0165267 -0.376031E-08  0.306E-04   11.04       5.5  T
   4  -3772.0165268 -0.778200E-07  0.641E-05   11.04      26.2  T
     SCC iter.                  ...        4 min, 45.582 sec
     gradient                   ...        4 min,  0.264 sec
 * total energy  : -3716.1759181 Eh     change    :  -0.9115310E-03 Eh
   gradient norm :     0.0278460 Eh/a0  converged?    E=F G=F D=F
   time step     :     0.4428903 fs     power     :   0.2303332E-07
   step length   :     0.0778866 a0     speed     :   0.4253843E-02

........................................................................
.............................. CYCLE   54 ..............................
........................................................................

 iter      E             dE          RMSdq      gap      omega  full diag
   1  -3772.0087952 -0.377201E+04  0.379E-03   11.05       0.0  T
   2  -3772.0087962 -0.101320E-05  0.223E-03   11.05       1.0  T
   3  -3772.0087962 -0.135824E-07  0.276E-04   11.05       6.1  T
   4  -3772.0087963 -0.890477E-07  0.754E-05   11.05      22.3  T
     SCC iter.                  ...        4 min, 39.717 sec
     gradient                   ...        3 min, 59.385 sec
 * total energy  : -3716.1768795 Eh     change    :  -0.9613625E-03 Eh
   gradient norm :     0.0239399 Eh/a0  converged?    E=F G=F D=F
   time step     :     0.4871793 fs     power     :   0.2068527E-07
   step length   :     0.0837336 a0     speed     :   0.4157441E-02

........................................................................
.............................. CYCLE   55 ..............................
........................................................................

 iter      E             dE          RMSdq      gap      omega  full diag
   1  -3772.0157608 -0.377202E+04  0.401E-03   11.05       0.0  T
   2  -3772.0157616 -0.792172E-06  0.237E-03   11.05       1.0  T
   3  -3772.0157616  0.189857E-07  0.308E-04   11.05       5.5  T
   4  -3772.0157618 -0.171948E-06  0.991E-05   11.05      17.0  T
     SCC iter.                  ...        4 min, 30.022 sec
     gradient                   ...        3 min, 59.073 sec
 * total energy  : -3716.1777477 Eh     change    :  -0.8682406E-03 Eh
   gradient norm :     0.0223699 Eh/a0  converged?    E=F G=F D=F
   time step     :     0.5358972 fs     power     :   0.1532520E-07
   step length   :     0.0902945 a0     speed     :   0.4075632E-02

........................................................................
.............................. CYCLE   56 ..............................
........................................................................

 iter      E             dE          RMSdq      gap      omega  full diag
   1  -3772.0362847 -0.377204E+04  0.388E-03   11.05       0.0  T
   2  -3772.0362859 -0.116900E-05  0.229E-03   11.05       1.0  T
   3  -3772.0362858  0.353775E-07  0.373E-04   11.05       4.5  T
   4  -3772.0362861 -0.213793E-06  0.111E-04   11.05      15.1  T
     SCC iter.                  ...        4 min, 31.606 sec
     gradient                   ...        3 min, 59.125 sec
 * total energy  : -3716.1784842 Eh     change    :  -0.7364800E-03 Eh
   gradient norm :     0.0237524 Eh/a0  converged?    E=F G=F D=F
   time step     :     0.5894869 fs     power     :   0.1095074E-07
   step length   :     0.0964801 a0     speed     :   0.3958938E-02

........................................................................
.............................. CYCLE   57 ..............................
........................................................................

 iter      E             dE          RMSdq      gap      omega  full diag
   1  -3772.0624262 -0.377206E+04  0.354E-03   11.06       0.0  T
   2  -3772.0624280 -0.178209E-05  0.208E-03   11.06       1.0  T
   3  -3772.0624280 -0.108980E-07  0.406E-04   11.06       4.1  T
   4  -3772.0624282 -0.138605E-06  0.107E-04   11.06      15.7  T
     SCC iter.                  ...        4 min, 33.881 sec
     gradient                   ...        4 min,  0.575 sec
 * total energy  : -3716.1792139 Eh     change    :  -0.7296797E-03 Eh
   gradient norm :     0.0260187 Eh/a0  converged?    E=F G=F D=F
   time step     :     0.6484356 fs     power     :   0.1064140E-07
   step length   :     0.1021905 a0     speed     :   0.3812052E-02

........................................................................
.............................. CYCLE   58 ..............................
........................................................................

 iter      E             dE          RMSdq      gap      omega  full diag
   1  -3772.0831249 -0.377208E+04  0.338E-03   11.06       0.0  T
   2  -3772.0831265 -0.153461E-05  0.198E-03   11.06       1.0  T
   3  -3772.0831265 -0.435198E-07  0.351E-04   11.06       4.8  T
   4  -3772.0831266 -0.782361E-07  0.915E-05   11.06      18.4  T
     SCC iter.                  ...        4 min, 33.237 sec
     gradient                   ...        3 min, 59.860 sec
 * total energy  : -3716.1801455 Eh     change    :  -0.9316381E-03 Eh
   gradient norm :     0.0262862 Eh/a0  converged?    E=F G=F D=F
   time step     :     0.7132792 fs     power     :   0.1405675E-07
   step length   :     0.1089329 a0     speed     :   0.3694152E-02

........................................................................
.............................. CYCLE   59 ..............................
........................................................................

 iter      E             dE          RMSdq      gap      omega  full diag
   1  -3772.0882820 -0.377209E+04  0.371E-03   11.07       0.0  T
   2  -3772.0882828 -0.770475E-06  0.218E-03   11.07       1.0  T
   3  -3772.0882828 -0.658197E-07  0.281E-04   11.07       6.0  T
   4  -3772.0882829 -0.798104E-07  0.981E-05   11.07      17.1  T
     SCC iter.                  ...        4 min, 47.460 sec
     gradient                   ...        3 min, 59.211 sec
 * total energy  : -3716.1813599 Eh     change    :  -0.1214420E-02 Eh
   gradient norm :     0.0228473 Eh/a0  converged?    E=F G=F D=F
   time step     :     0.7846071 fs     power     :   0.1676282E-07
   step length   :     0.1185935 a0     speed     :   0.3656147E-02

........................................................................
.............................. CYCLE   60 ..............................
........................................................................

 iter      E             dE          RMSdq      gap      omega  full diag
   1  -3772.0725486 -0.377207E+04  0.439E-03   11.07       0.0  T
   2  -3772.0725500 -0.145725E-05  0.256E-03   11.07       1.0  T
   3  -3772.0725501 -0.791183E-07  0.405E-04   11.07       4.2  T
   4  -3772.0725503 -0.139661E-06  0.118E-04   11.07      14.3  T
     SCC iter.                  ...        4 min, 34.779 sec
     gradient                   ...        3 min, 59.085 sec
 * total energy  : -3716.1826307 Eh     change    :  -0.1270812E-02 Eh
   gradient norm :     0.0200575 Eh/a0  converged?    E=F G=F D=F
   time step     :     0.8630678 fs     power     :   0.1412534E-07
   step length   :     0.1314753 a0     speed     :   0.3684803E-02

........................................................................
.............................. CYCLE   61 ..............................
........................................................................

 iter      E             dE          RMSdq      gap      omega  full diag
   1  -3772.0422577 -0.377204E+04  0.458E-03   11.07       0.0  T
   2  -3772.0422604 -0.269260E-05  0.264E-03   11.07       1.0  T
   3  -3772.0422605 -0.981254E-07  0.519E-04   11.07       3.2  T
   4  -3772.0422606 -0.142012E-06  0.121E-04   11.07      13.9  T
     SCC iter.                  ...        4 min, 33.823 sec
     gradient                   ...        3 min, 59.221 sec
 * total energy  : -3716.1838027 Eh     change    :  -0.1171915E-02 Eh
   gradient norm :     0.0230069 Eh/a0  converged?    E=F G=F D=F
   time step     :     0.9493746 fs     power     :   0.1155795E-07
   step length   :     0.1449462 a0     speed     :   0.3693041E-02

........................................................................
.............................. CYCLE   62 ..............................
........................................................................

 iter      E             dE          RMSdq      gap      omega  full diag
   1  -3772.0170686 -0.377202E+04  0.424E-03   11.08       0.0  T
   2  -3772.0170704 -0.179954E-05  0.243E-03   11.08       1.0  T
   3  -3772.0170705 -0.987802E-07  0.445E-04   11.08       3.8  T
   4  -3772.0170706 -0.124206E-06  0.120E-04   11.08      14.1  T
     SCC iter.                  ...        4 min, 32.117 sec
     gradient                   ...        3 min, 58.897 sec
 * total energy  : -3716.1852137 Eh     change    :  -0.1411035E-02 Eh
   gradient norm :     0.0219235 Eh/a0  converged?    E=F G=F D=F
   time step     :     1.0443120 fs     power     :   0.1436992E-07
   step length   :     0.1590345 a0     speed     :   0.3683631E-02

........................................................................
.............................. CYCLE   63 ..............................
[...]
  3286   6 C     3287   6 C                                       1.5353930
  3287   6 C     3288   6 C                                       1.5281010
  3287   6 C     3289   6 C                                       1.5330950
  3290   6 C     3291   6 C                                       1.5292812
  3290   6 C     3292   6 C                                       1.5348811
  3292   6 C     3293   6 C                                       1.5365794
  3293   6 C     3294   6 C                                       1.5262106
  3293   6 C     3295   6 C                                       1.5348872
  3295   6 C     3296   6 C                                       1.5372138
  3296   6 C     3297   6 C                                       1.5299188
  3296   6 C     3298   6 C                                       1.5346341
  3299   6 C     3300   6 C                                       1.5304085
  3299   6 C     3301   6 C                                       1.5343480
  3301   6 C     3302   6 C                                       1.5346323
  3302   6 C     3303   6 C                                       1.5268292
  3302   6 C     3304   6 C                                       1.5359404
  3304   6 C     3305   6 C                                       1.5368510
  3305   6 C     3306   6 C                                       1.5282867
  3305   6 C     3307   6 C                                       1.5322623
  3307   6 C     3308   6 C                                       1.5352842
  3308   6 C     3309   6 C                                       1.5273971
  3308   6 C     3310   6 C                                       1.5329318
  3311   6 C     3312   6 C                                       1.5286204
  3311   6 C     3313   6 C                                       1.5345361
  3313   6 C     3314   6 C                                       1.5367781
  3314   6 C     3315   6 C                                       1.5264280
  3314   6 C     3316   6 C                                       1.5340163
  3316   6 C     3317   6 C                                       1.5350152
  3317   6 C     3318   6 C                                       1.5293248
  3317   6 C     3319   6 C                                       1.5329783
  3319   6 C     3320   6 C                                       1.5354087
  3320   6 C     3321   6 C                                       1.5288361
  3320   6 C     3322   6 C                                       1.5344637
  3322   6 C     3323   6 C                                       1.5399732 (max)
  3323   6 C     3324   6 C                                       1.5294001
  3323   6 C     3325   6 C                                       1.5352714
  3325   6 C     3326   6 C                                       1.5325621
  3326   6 C     3327   6 C                                       1.5297067
  3326   6 C     3328   6 C                                       1.5369665
  3328   6 C     3329   6 C                                       1.5339617
  3329   6 C     3330   6 C                                       1.5278978
  3329   6 C     3331   6 C                                       1.5374728
  3331   6 C     3332   6 C                                       1.5337679
  3332   6 C     3333   6 C                                       1.5266818
  3332   6 C     3334   6 C                                       1.5375008
  3334   6 C     3335   6 C                                       1.5353470
  3335   6 C     3336   6 C                                       1.5270369
  3335   6 C     3337   6 C                                       1.5348349
  3337   6 C     3338   6 C                                       1.5362262
  3338   6 C     3339   6 C                                       1.5283162
  3338   6 C     3340   6 C                                       1.5335513
  3340   6 C     3341   6 C                                       1.5366239
  3341   6 C     3342   6 C                                       1.5294571
  3341   6 C     3343   6 C                                       1.5321939
  3343   6 C     3344   6 C                                       1.5356991
  3344   6 C     3345   6 C                                       1.5290597
  3344   6 C     3346   6 C                                       1.5395212
  3346   6 C     3347   6 C                                       1.5363165
  3347   6 C     3348   6 C                                       1.5270628
  3347   6 C     3349   6 C                                       1.5341715
  3349   6 C     3350   6 C                                       1.5344985
  3350   6 C     3351   6 C                                       1.5290223
  3350   6 C     3352   6 C                                       1.5359434
  3352   6 C     3353   6 C                                       1.5274831
  3353   6 C     3354   6 C                                       1.5240024
  3265   6 C     3355   1 H                                       1.0863519
  3265   6 C     3356   1 H                                       1.0887340
  3265   6 C     3357   1 H                                       1.0884659
  3354   6 C     3358   1 H                                       1.0880491
  3354   6 C     3359   1 H                                       1.0882086
  3354   6 C     3360   1 H                                       1.0886417
  3352   6 C     3361   1 H                                       1.0937851
  3352   6 C     3362   1 H                                       1.0920066
  3349   6 C     3363   1 H                                       1.0923174
  3349   6 C     3364   1 H                                       1.0938361
  3347   6 C     3365   1 H                                       1.0909514
  3348   6 C     3366   1 H                                       1.0871547
  3348   6 C     3367   1 H                                       1.0888215
  3348   6 C     3368   1 H                                       1.0872810
  3346   6 C     3369   1 H                                       1.0926693
  3346   6 C     3370   1 H                                       1.0928801
  3343   6 C     3371   1 H                                       1.0915505
  3343   6 C     3372   1 H                                       1.0932017
  3350   6 C     3373   1 H                                       1.0959615
  3351   6 C     3374   1 H                                       1.0879695
  3351   6 C     3375   1 H                                       1.0874346
  3351   6 C     3376   1 H                                       1.0881618
  3344   6 C     3377   1 H                                       1.0935070
  3345   6 C     3378   1 H                                       1.0886339
  3345   6 C     3379   1 H                                       1.0882414
  3345   6 C     3380   1 H                                       1.0868373
  3341   6 C     3381   1 H                                       1.0921070
  3342   6 C     3382   1 H                                       1.0889349
  3342   6 C     3383   1 H                                       1.0865576
  3342   6 C     3384   1 H                                       1.0884964
  3340   6 C     3385   1 H                                       1.0912473
  3340   6 C     3386   1 H                                       1.0942184
  3338   6 C     3387   1 H                                       1.0945701
  3339   6 C     3388   1 H                                       1.0869799
  3339   6 C     3389   1 H                                       1.0884099
  3339   6 C     3390   1 H                                       1.0887311
  3337   6 C     3391   1 H                                       1.0925965
  3337   6 C     3392   1 H                                       1.0938057
  3335   6 C     3393   1 H                                       1.0926811
  3336   6 C     3394   1 H                                       1.0875684
  3336   6 C     3395   1 H                                       1.0884883
  3336   6 C     3396   1 H                                       1.0882840
  3334   6 C     3397   1 H                                       1.0930624
  3334   6 C     3398   1 H                                       1.0920291
  3332   6 C     3399   1 H                                       1.0942474
  3333   6 C     3400   1 H                                       1.0868940
  3333   6 C     3401   1 H                                       1.0884545
  3333   6 C     3402   1 H                                       1.0860142
  3331   6 C     3403   1 H                                       1.0940286
  3331   6 C     3404   1 H                                       1.0926771
  3329   6 C     3405   1 H                                       1.0929419
  3330   6 C     3406   1 H                                       1.0883333
  3330   6 C     3407   1 H                                       1.0884402
  3330   6 C     3408   1 H                                       1.0865937
  3328   6 C     3409   1 H                                       1.0922906
  3328   6 C     3410   1 H                                       1.0942510
  3326   6 C     3411   1 H                                       1.0922994
  3327   6 C     3412   1 H                                       1.0881702
  3327   6 C     3413   1 H                                       1.0868379
  3327   6 C     3414   1 H                                       1.0888176
  3325   6 C     3415   1 H                                       1.0920236
  3325   6 C     3416   1 H                                       1.0931943
  3323   6 C     3417   1 H                                       1.0944579
  3324   6 C     3418   1 H                                       1.0874407
  3324   6 C     3419   1 H                                       1.0883122
  3324   6 C     3420   1 H                                       1.0882180
  3322   6 C     3421   1 H                                       1.0906827
  3322   6 C     3422   1 H                                       1.0919608
  3320   6 C     3423   1 H                                       1.0934180
  3321   6 C     3424   1 H                                       1.0875049
  3321   6 C     3425   1 H                                       1.0884651
  3321   6 C     3426   1 H                                       1.0883731
  3319   6 C     3427   1 H                                       1.0910115
  3319   6 C     3428   1 H                                       1.0932572
  3317   6 C     3429   1 H                                       1.0929220
  3318   6 C     3430   1 H                                       1.0886435
  3318   6 C     3431   1 H                                       1.0882244
  3318   6 C     3432   1 H                                       1.0867316
  3316   6 C     3433   1 H                                       1.0942369
  3316   6 C     3434   1 H                                       1.0937149
  3314   6 C     3435   1 H                                       1.0939769
  3315   6 C     3436   1 H                                       1.0863067
  3315   6 C     3437   1 H                                       1.0878274
  3315   6 C     3438   1 H                                       1.0872054
  3313   6 C     3439   1 H                                       1.0931953
  3313   6 C     3440   1 H                                       1.0927735
  3311   6 C     3441   1 H                                       1.0944004
  3312   6 C     3442   1 H                                       1.0888648
  3312   6 C     3443   1 H                                       1.0868816
  3312   6 C     3444   1 H                                       1.0887153
  3310   6 C     3445   1 H                                       1.0903123
  3310   6 C     3446   1 H                                       1.0930359
  3308   6 C     3447   1 H                                       1.0947214
  3309   6 C     3448   1 H                                       1.0862399
  3309   6 C     3449   1 H                                       1.0889795
  3309   6 C     3450   1 H                                       1.0873679
  3307   6 C     3451   1 H                                       1.0917543
  3307   6 C     3452   1 H                                       1.0933316
  3305   6 C     3453   1 H                                       1.0937977
  3306   6 C     3454   1 H                                       1.0878896
  3306   6 C     3455   1 H                                       1.0884578
  3306   6 C     3456   1 H                                       1.0860440
  3304   6 C     3457   1 H                                       1.0933482
  3304   6 C     3458   1 H                                       1.0942167
  3302   6 C     3459   1 H                                       1.0926309
  3303   6 C     3460   1 H                                       1.0870558
  3303   6 C     3461   1 H                                       1.0867551
  3303   6 C     3462   1 H                                       1.0885145
  3301   6 C     3463   1 H                                       1.0931693
  3301   6 C     3464   1 H                                       1.0937340
  3299   6 C     3465   1 H                                       1.0923130
  3300   6 C     3466   1 H                                       1.0878585
  3300   6 C     3467   1 H                                       1.0882614
  3300   6 C     3468   1 H                                       1.0882174
  3298   6 C     3469   1 H                                       1.0901030
  3298   6 C     3470   1 H                                       1.0929466
  3296   6 C     3471   1 H                                       1.0933365
  3297   6 C     3472   1 H                                       1.0867369
  3297   6 C     3473   1 H                                       1.0884819
  3297   6 C     3474   1 H                                       1.0881830
  3295   6 C     3475   1 H                                       1.0940256
  3295   6 C     3476   1 H                                       1.0937266
  3293   6 C     3477   1 H                                       1.0927058
  3294   6 C     3478   1 H                                       1.0867474
  3294   6 C     3479   1 H                                       1.0885156
  3294   6 C     3480   1 H                                       1.0872503
  3292   6 C     3481   1 H                                       1.0935816
  3292   6 C     3482   1 H                                       1.0932664
  3290   6 C     3483   1 H                                       1.0943838
  3291   6 C     3484   1 H                                       1.0886197
  3291   6 C     3485   1 H                                       1.0868422
  3291   6 C     3486   1 H                                       1.0883845
  3289   6 C     3487   1 H                                       1.0898181
  3289   6 C     3488   1 H                                       1.0927910
  3287   6 C     3489   1 H                                       1.0926413
  3288   6 C     3490   1 H                                       1.0876675
  3288   6 C     3491   1 H                                       1.0871315
  3288   6 C     3492   1 H                                       1.0889475
  3286   6 C     3493   1 H                                       1.0920125
  3286   6 C     3494   1 H                                       1.0934432
  3284   6 C     3495   1 H                                       1.0943101
  3285   6 C     3496   1 H                                       1.0863408
  3285   6 C     3497   1 H                                       1.0888072
  3285   6 C     3498   1 H                                       1.0868312
  3283   6 C     3499   1 H                                       1.0930106
  3283   6 C     3500   1 H                                       1.0945009
  3281   6 C     3501   1 H                                       1.0939052
  3282   6 C     3502   1 H                                       1.0869936
  3282   6 C     3503   1 H                                       1.0885255
  3282   6 C     3504   1 H                                       1.0883852
  3280   6 C     3505   1 H                                       1.0921363
  3280   6 C     3506   1 H                                       1.0928666
  3278   6 C     3507   1 H                                       1.0947752
  3279   6 C     3508   1 H                                       1.0881054
  3279   6 C     3509   1 H                                       1.0876406
  3279   6 C     3510   1 H                                       1.0888605
  3277   6 C     3511   1 H                                       1.0928554
  3277   6 C     3512   1 H                                       1.0920933
  3275   6 C     3513   1 H                                       1.0944496
  3276   6 C     3514   1 H                                       1.0866863
  3276   6 C     3515   1 H                                       1.0866139
  3276   6 C     3516   1 H                                       1.0884115
  3274   6 C     3517   1 H                                       1.0940086
  3274   6 C     3518   1 H                                       1.0936674
  3272   6 C     3519   1 H                                       1.0936861
  3273   6 C     3520   1 H                                       1.0886841
  3273   6 C     3521   1 H                                       1.0871076
  3273   6 C     3522   1 H                                       1.0882200
  3271   6 C     3523   1 H                                       1.0911606
  3271   6 C     3524   1 H                                       1.0914626
  3269   6 C     3525   1 H                                       1.0974430
  3270   6 C     3526   1 H                                       1.0881751
  3270   6 C     3527   1 H                                       1.0876737
  3270   6 C     3528   1 H                                       1.0876079
  3268   6 C     3529   1 H                                       1.0927571
  3268   6 C     3530   1 H                                       1.0929990
  3266   6 C     3531   1 H                                       1.0941013
  3267   6 C     3532   1 H                                       1.0880723
  3267   6 C     3533   1 H                                       1.0878389
  3267   6 C     3534   1 H                                       1.0885013
  3353   6 C     3535   1 H                                       1.0905704
  3353   6 C     3536   1 H                                       1.0914595

 * 2 distinct bonds (by element types)

   Z      Z             #   av. dist./Å        max./Å        min./Å
   1 H    6 C        2366     1.0903196     1.0974542     1.0841130
   6 C    6 C        1104     1.5324129     1.5399732     1.5222455


optimized geometry written to: xtbopt.xyz


           -------------------------------------------------
          | TOTAL ENERGY            -3716.253438757165 Eh   |
          | GRADIENT NORM               0.000799588667 Eh/α |
          | HOMO-LUMO GAP              11.213066895822 eV   |
           -------------------------------------------------

------------------------------------------------------------------------
 * finished run on 2024/06/25 at 01:47:27.660     
------------------------------------------------------------------------
 total:
 * wall-time:     4 d,  5 h, 27 min, 54.233 sec
 *  cpu-time:    23 d, 21 h, 16 min, 58.964 sec
 * ratio c/w:     5.650 speedup
 SCF:
 * wall-time:     0 d,  0 h,  7 min, 54.196 sec
 *  cpu-time:     0 d,  0 h, 44 min,  1.248 sec
 * ratio c/w:     5.570 speedup
 ANC optimizer:
 * wall-time:     4 d,  5 h, 18 min, 32.413 sec
 *  cpu-time:    23 d, 20 h, 31 min, 13.032 sec
 * ratio c/w:     5.651 speedup

