3536
 energy: -3716.253438757165 gnorm: 0.000799588667 xtb: 6.6.1 (8d0f1dd)
C           55.40084615836208       57.33936700679269       56.64043684418149
C           55.86184697193357       55.96881944357274       56.14909242428597
C           56.93370302259398       55.42544347677813       57.08900982944475
C           56.37953185281059       56.09183637493901       54.71432932580026
C           56.68574023908281       54.77314193868225       53.99378024132747
C           57.58907871135774       55.08052064990968       52.80219028472274
C           55.40410036576725       54.06925754076171       53.52847793523400
C           55.60913527172533       52.60890733732371       53.08048713017860
C           54.90663673261505       52.35517216267649       51.74661610136930
C           55.09481705348760       51.59663325557780       54.11304994382866
C           55.82590239830587       51.60208872500412       55.45873079097099
C           57.26278078791870       51.10165466578896       55.31010061908002
C           55.11056815158672       50.72023989959536       56.49274815155125
C           53.71523537303126       51.17695873617524       56.93424933157571
C           53.70435155555377       52.66126635193081       57.30530784721100
C           53.22006477562603       50.38023928201946       58.15210760122019
C           53.20638301842101       48.85124110373484       58.04382548964879
C           52.38042397649857       48.38995462635433       56.84420516973879
C           52.61753659322137       48.23218719008749       59.32415509130518
C           53.51179138617321       48.34744700752580       60.56999832478611
C           54.45341065413573       47.15193969065517       60.69387365185433
C           52.72832071163223       48.60137289740754       61.87260312234933
C           52.03840128917462       47.41795864624069       62.56321197778953
C           51.01465525681896       46.71480463654461       61.67347884345649
C           51.31468996389658       47.89149023827706       63.83540377775384
C           52.18092357600397       48.45326888260143       64.96968063219013
C           53.19052550614192       47.41599732435268       65.45856639369575
C           51.29694436412048       48.89026942257010       66.14952352601162
C           50.48736518616487       50.17316617652120       65.92830207629825
C           51.39089157881785       51.40565983378470       65.96102721098968
C           49.39585944589676       50.33930048855481       66.99649050122046
C           48.25812189987820       49.31012630772795       66.98698331799889
C           47.63878917230355       49.17666918986768       65.59710708088919
C           47.15378549828203       49.70805761387759       67.97914313226980
C           47.52617608018733       49.68946325990660       69.46637622981345
C           47.82787913027929       48.27210447920145       69.94861484340431
C           46.37897176168750       50.29562493808437       70.29515235456688
C           46.51417706542961       51.80307987255225       70.55987734570392
C           47.56997665571669       52.04291678816088       71.63762339443959
C           45.14349119810993       52.35556498512797       70.97908300975365
C           45.10706177497381       53.81036384777923       71.46634675151209
C           43.76464751807438       54.07638994106527       72.14779471875018
C           45.34707636723525       54.79720550656403       70.31830907823706
C           45.68463803272870       56.22584898252114       70.78551800921730
C           44.50263753901719       57.17507680320593       70.57880699697888
C           46.90252138548239       56.79542456893986       70.04499951235520
C           48.23150038955003       56.07883705232253       70.31062908976904
C           48.76405431944551       56.41095227031798       71.70414231150518
C           49.27783297229305       56.47173091169012       69.25908106928681
C           49.04301614692905       55.90659711128176       67.85320547545838
C           49.34798060098587       54.41058665504981       67.79808716454018
C           49.92143607272239       56.64597742165387       66.83374454741610
C           49.37513371682902       57.99777166922392       66.35221161033714
C           48.20884702555755       57.78263427660961       65.38852807962131
C           50.48774594901332       58.81533521171787       65.66475494877730
C           51.01624834082887       60.02329958702519       66.45397733543395
C           51.44942130441163       59.65867515363063       67.87237301494386
C           49.99283744675763       61.17072373225542       66.46075972025275
C           50.12384288099212       62.08893805164634       65.23756308601004
C           51.24714180952582       63.10157183374603       65.45709298648212
C           48.81395605629603       62.83087162755997       64.93732125611247
C           47.76188095958640       62.00680223099782       64.18038478578956
C           48.18471054275520       61.81423077921889       62.72650091629068
C           46.40481999232921       62.71816113892972       64.27415619905565
C           45.21832620625648       61.98296922738812       63.63690955926914
C           44.04496716721174       62.95059724409934       63.48321706627168
C           44.79326202350034       60.76288416502899       64.46179810103305
C           44.05033649889747       59.69756817334012       63.64102490610627
C           43.24405897247872       58.81215205093606       64.59166409961475
C           45.03525097251930       58.86133853641473       62.80230142894199
C           44.61500111863607       58.53604872502209       61.35715540627175
C           44.62313663607494       59.78933835336808       60.48466609704815
C           43.26455874638946       57.81255492454161       61.31940882598659
C           42.85600946318665       57.17882608830394       59.97930930475244
C           41.38805605281376       56.75927690559332       60.07650449503323
C           43.75999731329237       55.98606115026735       59.64266671397139
C           43.42887493832958       55.21961450135831       58.35503485104488
C           44.23795732221687       53.92479697818801       58.32078871403955
C           43.70357681874314       56.04814059905537       57.09479976587741
C           43.02744818638489       55.48456480103666       55.82965264410353
C           44.05734564020953       54.90656774169919       54.85927257501294
C           42.20278250827366       56.55487788557259       55.10290764939754
C           40.98035249289831       57.06956872635982       55.87282268396304
C           39.84675040919838       56.04659123824142       55.84460673052394
C           40.50582512406629       58.40966358445611       55.29120053853197
C           39.71218496171529       59.28140263314810       56.27565142580021
C           38.90504465314521       60.32247406263816       55.50099054161430
C           40.65797454706923       59.95188115942853       57.27870180380452
C           39.95141565499276       60.59174581525158       58.47138854176870
C           40.95420887840130       61.12155923786392       59.48944714190280
H           54.61819645435718       57.74149983550913       56.00021060891112
H           55.00981333151978       57.27477045740155       57.65258403004128
H           56.23535478152911       58.03763573197397       56.63812261040966
H           41.56869825955940       60.31034929355307       59.87283910738095
H           41.60900342735929       61.85829357667566       59.02884298942147
H           40.44163965031761       61.59229059279983       60.32599868964640
H           41.35435276935935       59.20446297976714       57.66372775596964
H           41.24727424640523       60.71256875805661       56.76122735829930
H           41.36835163863745       58.98997568704150       54.95341737891476
H           39.88846569792147       58.20742754134645       54.41310565382906
H           41.26642173863227       57.22793998025517       56.91606858670754
H           39.55063945290124       55.83464249846735       54.81874928139076
H           40.15133688531390       55.11248897559472       56.31137058557817
H           38.97551564853897       56.41832414326714       56.37986073631513
H           42.86692866581710       57.39431281718470       54.88322444235792
H           41.86385428180255       56.15349657924093       54.14508656235557
H           43.36289436697432       57.07017426785927       57.25818296563042
H           44.78295924661168       56.10027228464914       56.93961470100251
H           39.01157299974963       58.64657769455599       56.82978601944580
H           38.31876295213977       60.94460721288105       56.17226123309219
H           39.57027056110865       60.96593633190751       54.92830897974054
H           38.22019542474384       59.83613486005400       54.80928302694557
H           42.35399942055854       54.67370150088770       56.12526136243093
H           44.66747107301479       54.15156687145289       55.34651022375122
H           43.56569955863512       54.44358162771217       54.00592997283592
H           44.71121036710829       55.69225992594199       54.48767528327663
H           42.36888429094436       54.94879520845013       58.37392140422700
H           44.02804392108028       53.31622279973831       59.19703519730389
H           43.98823419618959       53.34407692787567       57.43726779547792
H           45.30392844102938       54.14217089423806       58.30757839721957
H           44.79384546307384       56.33180470988975       59.57481444672136
H           43.70152478160343       55.27996945584004       60.47605222750446
H           42.94207318094996       57.93429887222559       59.19209232753954
H           41.27110059382061       55.95956763081120       60.80571526312435
H           40.77176789193521       57.60012650132086       60.39055382526440
H           41.00725309854339       56.41138844927102       59.11997111488756
H           43.27823438380760       57.01757596804509       62.06977213664884
H           42.48646664894073       58.52267727645820       61.61007031258220
H           45.38335432337388       57.86045474522678       60.96493948722207
H           44.38105367068426       59.54484503095377       59.45341878208792
H           43.90225994369311       60.52351295190871       60.83649791335449
H           45.61039614235651       60.24639216968292       60.49318683923035
H           45.99153601558067       59.38510257366111       62.74772679353970
H           45.21901005499831       57.92170565366083       63.32624558683892
H           43.34708066196012       60.20766229336132       62.97695002057064
H           42.71568728702844       58.03172690737894       64.05163733258024
H           43.90525632267799       58.34267818074124       65.31790473594846
H           42.50835183425529       59.40332998394135       65.13507114820025
H           45.66556180010933       60.29428507604192       64.92084333457794
H           44.15011878496086       61.10533380488032       65.27694307742608
H           45.50278107900068       61.64802964769692       62.63764854946917
H           43.77244733918721       63.37799770328299       64.44722851154164
H           44.30358372730171       63.76341903573861       62.80929101283885
H           43.17221792335777       62.44222521492581       63.07980603769044
H           46.17035856695736       62.89903954334827       65.32748148971550
H           46.50593128854833       63.69626260800402       63.79486308627929
H           47.68243368455930       61.02287474467506       64.65382950626496
H           48.19628598824931       62.76840255272499       62.20341455015945
H           49.18020075576808       61.38295657008657       62.67302820656360
H           47.51233278635426       61.14119486794024       62.20187532234265
H           48.39143089566090       63.17778892933334       65.88438834219811
H           49.03844988824112       63.71788198173326       64.34091059329285
H           50.38678054086432       61.47309851492355       64.37202539252758
H           52.16703229913561       62.60500755147076       65.75639651220553
H           51.44333519511051       63.66435185937719       64.54716371097435
H           50.97440352963034       63.80408596561327       66.24290349593846
H           48.98704543139358       60.74989322428758       66.50052531147828
H           50.12244987605951       61.77605607038242       67.36148738837099
H           51.91337232348599       60.37165146381440       65.92850459020549
H           51.96934356970795       60.49735469630438       68.33233124163206
H           50.59662961826569       59.41054302874777       68.49852678272910
H           52.12270142198778       58.80521672531937       67.85856035292085
H           51.32690939420431       58.15321162834151       65.44206758037622
H           50.11635683724933       59.18784636423195       64.70778531734413
H           48.99602721655200       58.55501095144653       67.21390704016910
H           47.79405798769606       58.73433471986732       65.06249886294920
H           48.54716531491837       57.23884844776202       64.50921838030563
H           47.40845884371427       57.21313506742883       65.85672750563997
H           50.90755803475565       56.78866545359636       67.27948726977030
H           50.04886607745478       56.00852319534378       65.95517437696009
H           47.99268582824348       56.04479885430067       67.58057998437305
H           50.40588640513637       54.22987036921938       67.97400758101557
H           48.78019918164473       53.86050749465999       68.54439883534073
H           49.09151022515232       54.01021314653860       66.81918421779754
H           49.30656059640290       57.56221969103607       69.20641408833907
H           50.26180215308757       56.13905346502212       69.59914644234800
H           48.07521355192761       54.99783779273235       70.26271164779581
H           48.97094782105850       57.47623320230300       71.79039244372670
H           48.04565918083208       56.13959643404174       72.47398948081094
H           49.68705952254142       55.86838587808442       71.89948266902674
H           46.68151818122270       56.76717329292624       68.97618080437077
H           47.01986823962147       57.84709748675749       70.32123959204772
H           45.91106571686527       56.20107217854355       71.85663899744986
H           43.60593743541757       56.80045707705531       71.06537367388412
H           44.72469667580657       58.15841877093815       70.98982232378026
H           44.29160170184876       57.29213844435201       69.51729945332664
H           46.16378293371302       54.41799597519094       69.70544438635076
H           44.46038253722239       54.81738438481796       69.68187295916107
H           45.89209425578328       53.94728292984057       72.21583686215355
H           43.60404507432370       53.37507882436748       72.96462693071901
H           43.73019025952674       55.08211743395833       72.55860349364740
H           42.94735734577282       53.96320726231255       71.43774510951313
H           44.45323314224594       52.25864255616775       70.13713397707824
H           44.76536091720700       51.72085623853867       71.78595866491146
H           46.83378885178982       52.29035971525762       69.63262107471257
H           47.85654908132341       53.08980657348292       71.69042454933449
H           47.18936432401603       51.73793076580577       72.61082789745976
H           48.46582988271682       51.46513513898802       71.42871443560793
H           45.43571353708500       50.10296818489973       69.77794866424003
H           46.32031577378334       49.79058841720781       71.26226131667107
H           48.42299313363121       50.29659943178414       69.61476066335547
H           48.65588763733822       47.83983526826419       69.39389419454670
H           48.09979430222619       48.27827622033681       71.00228901885464
H           46.95599089924691       47.63290750585571       69.82387524595109
H           46.80571190043345       50.71240159456136       67.72144067958769
H           46.30947286111333       49.02520803182887       67.84219013594409
H           48.65123787950724       48.33158505346220       67.27906321335787
H           46.75812578053638       48.53855553724868       65.63018319073004
H           47.33659184581566       50.15342510224966       65.22608720285113
H           48.34083991476012       48.73550699398169       64.89531450960847
H           49.87972187004719       50.31762051840094       67.97579814108825
H           48.95207964595788       51.33121002569703       66.87457260879272
H           50.01317058715891       50.13560069348214       64.94518240382214
H           51.82825004673256       51.53060529706021       66.94883152549767
H           52.19488858372205       51.32113918787751       65.23490635638390
H           50.82180042895824       52.30243765445928       65.72730500215005
H           50.61825233418889       48.06786155413311       66.38257237727861
H           51.93180321669880       49.04119035246372       67.02678313824150
H           52.73399162852178       49.32460294381191       64.60820901469606
H           53.89595216590040       47.15186862028651       64.67561052151358
H           53.76100168953602       47.80360568341424       66.29978495613263
H           52.67784416923687       46.51019300878796       65.77791461370815
H           50.58960587585665       48.65157527303248       63.53623271168956
H           50.75161856292029       47.04471679162165       64.23771167510340
H           52.79615197726051       46.68170512563498       62.84475865054442
H           50.49771079748040       45.94101895973269       62.23920635290162
H           50.27142480463780       47.41985012756815       61.30937017079906
H           51.48808279486791       46.24076817307250       60.82020579935650
H           53.43681938029189       49.02041821687192       62.59204040789680
H           51.98106353449140       49.37498891118958       61.67780707880257
H           54.14084993481579       49.23482038582168       60.43905064837557
H           53.90069027311925       46.22618361852664       60.83332877099064
H           55.06051590800222       47.05598464970637       59.79677337646299
H           55.12447365744615       47.27882365110368       61.54173285995197
H           51.65673350106623       48.71397576321833       59.51822706346401
H           52.41692760206645       47.17910157945553       59.12357683336818
H           54.22941145877436       48.48187657532485       57.92066481613509
H           51.36194537072902       48.76645309100459       56.91711417089773
H           52.80987359230620       48.74087688449801       55.91070722396429
H           52.34147049081744       47.30320274307752       56.80489073758438
H           53.83715592659462       50.66472294281412       59.00745993381091
H           52.19953443017886       50.70737816441756       58.36772064173783
H           53.00806846591021       51.02508458640816       56.11366329514755
H           54.55197965370891       52.90232332249352       57.94358946156848
H           53.75159997801592       53.28840627301631       56.41926185254464
H           52.79327480103979       52.91185503908896       57.84405442600030
H           55.04190816641356       49.70702297193614       56.08902654708835
H           55.74538586669369       50.67611433464601       57.37997735434934
H           55.86296685168893       52.62468861046532       55.83950256500791
H           57.76394597620216       51.09095325983986       56.27694794940303
H           57.27269541136013       50.08877772306055       54.91066812704737
H           57.83829063169939       51.73761241683204       54.64347434078132
H           54.03419130902063       51.79829874775397       54.28013643722273
H           55.17262962540565       50.59357308271764       53.68282726747238
H           56.67687762777283       52.42844155571194       52.92579801335097
H           55.27284090913530       53.03700274058034       50.98224906542659
H           55.08890884775666       51.33794650777098       51.40542937876693
H           53.83240835031989       52.49629796323617       51.84543253564868
H           54.66292841688085       54.09516891067729       54.32873101267238
H           54.98977959003571       54.64644130543946       52.69749925403217
H           57.22861241598778       54.11219442333602       54.67403504666762
H           58.55882596289759       55.44047018263464       53.13973716540092
H           57.74435533297832       54.19658137560988       52.18818411800679
H           57.13798997460088       55.84965374445310       52.18082262235167
H           55.64846528191087       56.64705143616489       54.11950548697686
H           57.29318606984690       56.69075170143513       54.74117696660441
H           55.00247154786760       55.28981380749221       56.17111663223567
H           56.56415358200352       55.41551653727956       58.11024618958076
H           57.22179900100539       54.41156885482621       56.82501529090722
H           57.82300690693632       56.05161105718047       57.05094039250567
H           39.31726433206847       61.41425230217961       58.13522537275827
H           39.30598552040662       59.85028804380450       58.94994387241329
C           60.27092454968827       71.39328157518899       61.02872793372210
C           59.13986524141854       72.01609045631419       61.84537215844292
C           58.61444391515188       73.26176300606352       61.13592176942318
C           59.62709960884344       72.35187180598615       63.26149424687305
C           58.50065933343937       72.63380139211428       64.27321573308429
C           58.81949813317959       73.88403345295106       65.09475939185222
C           58.26526318734480       71.45679323616696       65.23061497260342
C           57.82535723152231       70.14356914501582       64.57487368978038
C           56.43750383466642       70.27707930842448       63.94879199173289
C           57.78549581364775       68.99753618033269       65.59773051926835
C           59.11685795738365       68.60230175623599       66.24850763179367
C           60.20043715836452       68.34940805908009       65.19915796140963
C           58.95569291142083       67.33185107473930       67.10028520342937
C           57.94210162269474       67.39288865863661       68.24995201247617
C           58.31605960142585       68.47665289125861       69.26054851619179
C           57.85885290737482       66.03483122333442       68.96782573317938
C           57.12322403483325       64.93172385241353       68.19710250643671
C           55.62116831290310       65.21344232811548       68.14201995847488
C           57.33450961081525       63.55272478252069       68.84025753649294
C           58.76969470211625       63.00491585747337       68.86849068408083
C           59.47842941593331       63.22522376192184       67.53290858648712
C           58.76102819786999       61.49766555158737       69.17571914262705
C           58.20779589261131       61.08911222663782       70.54556826950312
C           59.14406559797124       61.54131349081671       71.66551485400086
C           58.02516702571868       59.56552764187896       70.64366618366141
C           56.93957775398906       58.95072877770038       69.75253801911390
C           55.57911142405380       59.60486701882772       69.99781460156183
C           56.79862347475576       57.44139414809852       70.00199144333425
C           58.01793171387135       56.55606850391283       69.70236594449531
C           58.42940025554140       56.66565391180924       68.23785130213336
C           57.65019518749554       55.10974657234048       70.06220312854317
C           58.77605558026607       54.07240515895194       69.97104483338546
C           58.18896869475945       52.68317270129639       70.22402798042545
C           59.92735920628614       54.35936989085503       70.95430164845951
C           61.22390067155411       54.82792086165617       70.28261879381520
C           61.84951345488147       53.69217057530675       69.47161496786656
C           62.25355417165660       55.30895761828261       71.31428553969991
C           61.92790015741836       56.60004408571844       72.08020337266238
C           61.85377457587732       57.80132086553719       71.14106006759327
C           63.01306788122376       56.80159366336576       73.14754074916081
C           62.78517465716213       57.93586876100189       74.15472429436562
C           64.05999065760078       58.12722085601727       74.97951532159463
C           61.59538713075299       57.65507747398067       75.08943068595100
C           60.29317530597622       58.38552680713442       74.73679402542409
C           60.41459329432388       59.87473014726778       75.05740792761095
C           59.12360122294283       57.78806846891735       75.53203702444209
C           58.62575409483414       56.42699668812615       75.01835848375757
C           57.64593862204194       56.62062668002550       73.86547630996489
C           57.99158292359345       55.65621510046143       76.18251422632390
C           57.44161738390760       54.25284329469011       75.88026634936507
C           56.96060988082358       53.64916952827952       77.20111932238545
C           58.50727401231619       53.38050319011451       75.20388112813359
C           58.19438519116046       51.88119885210848       75.07787898847710
C           59.36280481265504       51.20135572080577       74.36252947906816
C           56.87339040323870       51.64525790036320       74.33702201869815
C           56.47987519785145       50.18102931037310       74.08682444001816
C           55.17300616968276       50.16471816849216       73.29584067373366
C           56.32239198452237       49.39842765229501       75.39550281075934
C           56.22830520278380       47.87334133521352       75.23045183317957
C           55.61184256976725       47.26878428477136       76.49198503135320
C           57.61519933863876       47.27829285956891       74.95753797101609
C           57.62657235425711       45.81730834900510       74.48651059482388
C           59.03174083734835       45.24169712629195       74.66728386408451
C           57.18839762001343       45.68967802930960       73.02224438491669
C           56.82620512002250       44.24928443769677       72.61218858472667
C           57.62292124187828       43.82259386404002       71.37865840054444
C           55.32900720542247       44.08676821359875       72.32236679185587
C           54.38923244403033       44.35471333888214       73.50351287136434
C           54.45795869173228       43.22232214986951       74.52685449787532
C           52.94841958525777       44.50823305521390       72.99197264958525
C           52.62494761597178       45.89294677376358       72.41542277690735
C           52.30524251074167       46.87443541062287       73.54341180010803
C           51.45211537140205       45.83594900583281       71.42404923856203
C           51.82596865214273       45.28593657885722       70.03076329057861
C           51.30864739993632       46.21667625920339       68.93523823132894
C           51.28493234725165       43.86492904704637       69.82637530185127
C           51.66389652092658       43.17567350567727       68.50548223053730
C           51.02195512358657       41.78793874275515       68.48581155904883
C           53.18632484551262       43.09421036004536       68.33819733489806
C           53.69761661954405       42.37730595661953       67.07877075377333
C           55.22104081238947       42.27656988431789       67.15640030057457
C           53.25289047442964       43.11790759034529       65.81247885261116
C           53.65103451964627       42.48836877183346       64.46843647254799
C           53.13847219694270       43.38825911698505       63.34436432889407
C           53.09216496097068       41.06545276247851       64.35255737816563
C           53.30787207375559       40.34348348856242       63.01536208099595
C           52.66943189096010       38.95686790031306       63.10621969245123
C           54.79459663224463       40.25347531326801       62.65619083855714
C           55.07567341395764       39.46041157433742       61.37974426849279
C           56.47689055214680       39.73211374530545       60.84756451797071
H           59.93525564594417       71.17239552659976       60.01769473122338
H           61.11588475390253       72.07652926248458       60.96693275025437
H           60.61323709955609       70.46707004401505       61.48589626183722
H           56.68253311052753       39.11676256538406       59.97427089208539
H           56.57854644321512       40.77606755626157       60.55945073800039
H           57.22279619045227       39.50778869163229       61.60670316781543
H           55.18244856508013       41.26466601246021       62.52073565860126
H           55.33856635541765       39.79816734112413       63.48836212761692
H           53.54114460594741       40.44707893591831       65.13329784739784
H           52.01557845008850       41.10614198977429       64.54487811861043
H           54.74255214373174       42.45117154427672       64.40810232807392
H           53.46355238070127       44.41358305506920       63.50884563851115
H           53.51268136658298       43.06503285679543       62.37728521056842
H           52.05082582713722       43.37680702178367       63.31218351648465
H           52.16418772089889       43.20535176245625       65.82192352792488
H           53.66373077005681       44.13081741032926       65.85111546158205
H           53.59704287296756       44.10528360076353       68.32961137105733
H           53.59554002255815       42.58273431692532       69.21416352298900
H           52.79258280692675       40.89840441242291       62.22408302044386
H           52.67224680395034       38.45903412517404       62.14018406771599
H           53.20858023275256       38.33303560677199       63.81694022270837