3864
 energy: -5104.263312820482 gnorm: 0.000889224761 xtb: 6.6.1 (8d0f1dd)
C           45.89927931904581       66.55826095827555       51.58571396778996
C           45.97484433972686       65.37681930019885       52.31326618958206
C           46.23583536206143       64.19461474890106       51.62999351859814
C           46.41249830129149       64.19344785618267       50.25800077517070
C           46.33360381932602       65.37743989767698       49.54364897779256
C           46.07617290157687       66.56156111753710       50.21309301602132
C           45.74363614785180       65.38386961300114       53.80383234515787
C           44.46692834915827       64.61045210493424       54.14056754506890
C           46.94041570698795       64.80235181529150       54.56760625575775
C           48.17792720910749       65.69941688181805       54.45495413640840
C           47.90446216415604       67.05229150341725       55.06574576783493
C           48.03614566977775       68.20716615802361       54.30493227506712
C           47.79687191168043       69.45448104810018       54.85467630777531
C           47.41940785895978       69.56814679568576       56.18175641025815
C           47.29015762004780       68.42544675918113       56.95313075538453
C           47.53404542381894       67.18081528594121       56.40086584952532
C           49.41630629638165       65.08793708943361       55.12948361442078
C           50.03448456790815       63.90458039412793       54.37681103721570
C           49.27832117845588       62.61001063897616       54.53636749251451
C           48.97968676608396       62.08863906820965       55.79014624612459
C           48.34485871183600       60.86715409570030       55.91994933854373
C           48.03634154594361       60.12305626701608       54.79448630931472
C           48.34255707721660       60.62239121000900       53.54188416416280
C           48.94169858608871       61.86302442661597       53.41444041084748
C           51.48752195344732       63.67284775101517       54.84484853358460
C           52.50702113166055       64.55991477940445       54.10718994688447
C           53.75476375040552       64.73879907805494       54.94525046798034
C           53.63006370468043       65.38581759239455       56.17251154880366
C           54.71366036490318       65.55734585653607       57.01081882890362
C           55.96533117097969       65.10335418721218       56.63034061226021
C           56.11229381392771       64.48692202931556       55.40228973349554
C           55.01890398047565       64.30272122649306       54.57159014605424
C           52.76225440713441       63.97898406733960       52.71384907220367
C           53.25385119947874       65.03744319540395       51.71712811105424
C           52.13719229139583       66.01938137869038       51.46146129061096
C           52.26725840508681       67.34927370138510       51.84130241925937
C           51.22613848404725       68.24495083818196       51.66551158276130
C           50.02474750910705       67.81643563714393       51.12855389968819
C           49.87767908057449       66.49169010129322       50.75189935547654
C           50.93042907490386       65.60837318807654       50.90424227340343
C           53.75772657326399       64.38035571124585       50.42521572398144
C           54.34782064620741       65.40488531840496       49.44873758770146
C           55.51315911345073       66.13750663482156       50.06237500354114
C           55.45438840325792       67.51380800975971       50.24414734462078
C           56.51809939087873       68.20676058906436       50.79405827628386
C           57.66597607077025       67.52933328213355       51.16691063596387
C           57.73929325771022       66.15925481294377       50.98265208992679
C           56.67318635740092       65.46871267074810       50.43598489738659
C           54.76599670265189       64.73610318384711       48.12354092778853
C           53.64807370987621       64.79602391480297       47.07289862100438
C           53.83849259153278       63.79336311764383       45.96165996945158
C           52.77407323691956       63.01001996221694       45.53321966064402
C           52.90078311861098       62.16872451786360       44.44107035830321
C           54.11183979495545       62.06560503880635       43.78061418826024
C           55.19027916817978       62.81683839206916       44.21685336779615
C           55.05013234267608       63.68111812837589       45.28842592958139
C           53.57000018140748       66.20421011592434       46.45567425609427
C           52.24445425133714       66.44298670922780       45.71567422085477
C           52.42194248000726       67.41590551164862       44.57853750574576
C           52.95473899220481       68.68181793232125       44.79446960808160
C           53.10106855293726       69.57632486550322       43.75042287516221
C           52.71332760217978       69.22079942352082       42.46912171214189
C           52.18435773072254       67.96278535297151       42.24142780847414
C           52.04381824964438       67.06849459889798       43.28834050883225
C           51.14765165384746       66.95002425387371       46.66668241919858
C           49.75069742879452       66.74173124903420       46.05457886556075
C           48.79972081012386       67.84993072785450       46.42090402363432
C           48.10103275978906       68.53247084413898       45.43315902815611
C           47.21556003359998       69.54483036300434       45.75976945577047
C           47.02207239792364       69.89755927834064       47.08433375769081
C           47.72316293669830       69.23230903481786       48.07574265077410
C           48.60061691316051       68.21524985583183       47.74676022263187
C           49.18809837953997       65.37600852769157       46.47799068693090
C           48.02903736689761       64.90297882806330       45.58855440456941
C           48.47570857872800       64.84999708902811       44.14879090035173
C           49.56152151919291       64.06745948420037       43.77151716643360
C           50.04093031473275       64.09091522697864       42.47583650942654
C           49.43108088746210       64.89179537556436       41.52491227134325
C           48.31813195192288       65.63665484266842       41.87318416722139
C           47.84609263923099       65.61375267176722       43.17456946283504
C           47.52819564189064       63.52944710770108       46.05474740323570
C           46.17121451739256       63.14401036316735       45.43498556202261
C           46.10535542861033       61.64575154029886       45.28643385400053
C           45.93270454249568       60.81286890269978       46.38535885782397
C           45.90020107489817       59.43852132882113       46.23022424819762
C           46.05160224247410       58.87479855010079       44.97599777192491
C           46.24514737457644       59.69495246398046       43.87845725558359
C           46.26794111161583       61.06879468692141       44.03371583151527
C           45.01045444009537       63.70283680273030       46.26863661516111
C           43.63581300290939       63.23533552583123       45.77138652022536
C           43.43058055469377       63.62873281042372       44.33060220637286
C           43.43132660723219       64.96312208455772       43.93970762480944
C           43.26626734994403       65.31277479893761       42.61184054087901
C           43.09835372177854       64.33166524219833       41.64913467430381
C           43.08769258146359       63.00111856959334       42.02770213862700
C           43.24878538331259       62.65492394814745       43.35705256435494
C           42.50438751370081       63.79261700533256       46.65278054699955
C           42.38800063704320       63.09320812010635       48.01988950496954
C           41.67778184516457       63.99299511667145       48.99953147173781
C           40.32813162322026       64.29608240748053       48.85639342991490
C           39.68721201052535       65.12087808076564       49.76292025118258
C           40.38863810794316       65.66714216739136       50.82499514032401
C           41.73508353170033       65.38201558645129       50.96976679680935
C           42.37220336300262       64.54935209418410       50.06681176278145
C           41.68406124949674       61.73551351504499       47.90186892584351
C           41.54605311588254       61.03838182763125       49.26066258980871
C           42.86230347865040       60.93744218229416       49.98823133365183
C           42.96569007460901       61.37634704630744       51.30037146438709
C           44.14585756024750       61.22180936350475       52.00437837546401
C           45.24461755372316       60.63454604418454       51.40375969326170
C           45.15530244225170       60.20027136669407       50.09255140503955
C           43.97026995623538       60.34315391085086       49.39440331402351
C           40.99497547284245       59.61032250797577       49.13203958805389
C           39.52408719383754       59.48551146210405       48.71487790464830
C           39.27250013525129       58.05113816742103       48.31844127314010
C           38.96401299778996       57.72673762410238       47.00332119763522
C           38.77290496165902       56.41013122993488       46.62184625358156
C           38.90407961815359       55.39307743485209       47.55226855685599
C           39.22127665147808       55.70485089402757       48.86207010912359
C           39.39610773620468       57.02129638829780       49.24397836323135
C           38.57617382363392       59.93144565368324       49.83397254901287
C           37.10760588277687       59.84618905330424       49.39777606139451
C           36.89849752679950       60.68428827291642       48.15911577983954
C           36.51038716382358       60.09118096340271       46.96405418645937
C           36.37195298227699       60.83817008131977       45.80727439737148
C           36.61061874078338       62.20106172704923       45.82974743642682
C           36.98149412832890       62.80835918320614       47.01785321231494
C           37.12550085648132       62.05653689262035       48.17019075452564
C           36.14432442481674       60.29324658522752       50.50937804005795
C           36.00392407367602       59.30570528805166       51.68088595443239
C           35.33265263090632       59.98709779233992       52.85116507886416
C           35.92407027089588       59.98357305419053       54.10886634590940
C           35.31572754729594       60.58892540778351       55.19414728734563
C           34.09361282958481       61.21843548697674       55.03502391712438
C           33.48371159079397       61.22029852361011       53.79148523008948
C           34.09574693750582       60.60723460057107       52.71297672296481
C           35.20636911693652       58.05454059837174       51.28385003963315
C           35.10407828170803       57.04013673322952       52.43440676246018
C           36.29170888547956       56.11244100829891       52.48969368405483
C           36.54141346102514       55.21047262650279       51.46162241047848
C           37.56508395169216       54.28642018771318       51.56863922052368
C           38.37485949683754       54.26412552174624       52.69108169127207
C           38.15678724186167       55.17933377507640       53.70457177653703
C           37.11963042811611       56.08992142378316       53.60387468288674
C           33.82366846119753       56.19865229821169       52.31742750564172
C           32.55656547047428       56.94171715602631       52.77031534180831
H           45.60448200762496       66.42392372569357       54.12519578239673
H           46.66698939301642       64.69278890729221       55.61915423976642
H           47.17484770261136       63.81093894111033       54.18164724691112
H           48.40324065371687       65.84407414423018       53.39149300936052
H           50.17458164842931       65.87318539292106       55.19862909666692
H           49.15761218249672       64.78729200565741       56.14550410143625
H           50.04421832686048       64.16544837086934       53.31324179074790
H           51.54540171547514       63.84682004126192       55.91965513810258
H           51.76166786498032       62.62934174780310       54.67982414318509
H           52.06265945266676       65.55735637127967       53.99067463116126
H           51.82890751062957       63.55835781763975       52.33999081514828
H           54.09262371354967       65.57889011297497       52.16913624368819
H           54.52418287627231       63.64645194888920       50.68370354781497
H           52.93949050002965       63.85354039475246       49.93073010597212
H           53.56861563104182       66.14494286804758       49.23828839438402
H           55.65213194161752       65.24020101625956       47.73246755641829
H           55.03899623933861       63.69491664701080       48.30898520205393
H           52.69796928678060       64.57960796677172       47.57257366391639
H           53.69245526489777       66.95673601682950       47.23587678315275
H           54.39992593104564       66.32312142940145       45.75481856003399
H           51.92134369726030       65.49031552775044       45.28441534635474
H           49.85897909041978       66.75027734332217       44.96496555635494
H           49.99037101593870       64.63839379070227       46.43514392952878
H           48.84634032780641       65.43821874591822       47.51350967633928
H           47.21356812908419       65.63026217995142       45.67339944411359
H           48.26970748282344       62.77559159344232       45.78118324130013
H           47.44149728311466       63.52459015318438       47.14309320173994
H           46.11645449830132       63.57957882959309       44.43032332876164
H           45.13021465176901       63.39900636643257       47.30955959214570
H           45.05180851575069       64.79402797819152       46.24251456528838
H           43.60637806053595       62.14282108835506       45.82097024361810
H           42.67269444837445       64.86009444622597       46.81719299139535
H           41.55759882008221       63.68996028805075       46.11648902582635
H           43.39521003911211       62.92111960893337       48.41049757738504
H           40.69050018814304       61.88328055891391       47.47500244792753
H           42.24567796719531       61.10117197582422       47.21395701119432
H           40.86638251951041       61.63148510475308       49.88113459227718
H           41.60517744033798       59.07436692115367       48.40004261755006
H           41.11920523442292       59.11128768954227       50.09535697501122
H           39.34412009824240       60.12014523917390       47.84110999199935
H           38.73531368887274       59.30519715235675       50.71250839693168
H           38.80870289747467       60.96083484908014       50.11294234283130
H           36.88836029296537       58.80481207708680       49.14158777657187
H           36.47983538263439       61.25506022801810       50.90661347849664
H           35.16016161935394       60.45267461616105       50.06173362420089
H           37.00160367878259       58.98718203180322       51.99840949764563
H           34.20388124003147       58.36019485440794       50.97914852062256
H           35.67438001978299       57.57523145395459       50.42294507382968
H           45.69691224312830       67.48818175049013       52.10156479092889
H           46.01304664582590       67.48788531679318       49.65938932236793
H           46.46739312714698       65.38822809882812       48.47180727406892
H           46.60787991662613       63.25906631734414       49.74997939254949
H           46.29711129721707       63.26049700005427       52.16709222075024
H           48.33213581712035       68.12330601334386       53.26886807726133
H           47.90423315254844       70.34210677700949       54.24682994839316
H           47.22997931161558       70.54098784767096       56.61236340495720
H           46.99865758166555       68.50416205361914       57.99142855760525
H           47.43410171989356       66.30627790424587       57.02601300094597
H           49.25673612392296       62.63648720295470       56.67895544548821
H           48.10288260793633       60.48254573620816       56.89989683207458
H           47.56227946435748       59.15887392345040       54.89225366000952
H           48.12772696600475       60.03660378682262       52.65925535455392
H           49.15809516527934       62.24887625325202       52.42826749710201
H           52.66832391843924       65.77479113542590       56.47437907140829
H           54.58341387759176       66.05661951985331       57.96061665594451
H           56.81775037745625       65.23955982654414       57.28204123637191
H           57.08715943193911       64.14179510976666       55.08473838562598
H           55.18435386129096       63.81812265541950       53.62300011336893
H           53.47527868679116       63.15680351809317       52.78124881101424
H           53.19507607770947       67.68521015227067       52.28492943079289
H           51.34934399101825       69.27948663569768       51.95669645891338
H           49.20797899860167       68.51278276094521       50.99990456045576
H           48.93428327556381       66.14631739950767       50.35101715358065
H           50.80005645891374       64.58362450189458       50.58909611471225
H           54.56202146562243       68.05161469901536       49.95330618916645
H           56.45310086008824       69.27748280227384       50.92927073198948
H           58.49977687872556       68.06753247797225       51.59498515030999
H           58.63442421357222       65.62432155816263       51.26268529156534
H           56.75565442020382       64.40060342055673       50.29546542201103
H           51.83368199142875       63.05669682270169       46.06532686941853
H           52.04897255396418       61.59905184157534       44.09509450373075
H           54.21528663355110       61.40295286546698       42.93346472237958
H           56.14252631345409       62.73641037101278       43.71101967065255
H           55.89567856092404       64.27589119419123       45.60268961296956
H           53.26210333763041       68.97306206263433       45.78850266641103
H           53.51817579448699       70.55628054398984       43.93495612989471
H           52.82500637042021       69.92117184500945       41.65391382321805
H           51.88000253747446       67.67550298452366       41.24499395033997
H           51.63203590905539       66.08721539549637       43.09820612334068
H           51.21285790890663       66.42700168880631       47.62300347178900
H           51.30992712654717       68.01214161879338       46.86187227931031
H           48.25759394871677       68.27065593831759       44.39559844619703
H           46.67847901985960       70.06431535960191       44.97841799069181
H           46.33369289431488       70.69033726018156       47.34086004337355
H           47.58552618978964       69.51325047955382       49.11077359390006
H           49.14621651541103       67.70785027771134       48.52678031320627
H           50.05467263148797       63.44039868682338       44.49768839165385
H           50.90255659629534       63.49302997365547       42.21215208768389
H           49.82502482987346       64.93642101542407       40.51954496623373
H           47.82171939777611       66.24724427308291       41.13167197044692
H           46.98144117082831       66.20800788296218       43.43877799147035
H           45.81187755782248       61.24118307294482       47.36943703720386
H           45.75821268143854       58.80110980794153       47.09124985515061
H           46.02200544726329       57.80264626627357       44.85747240433272
H           46.38569315834508       59.26847782549033       42.89529583417311
H           46.40960968209443       61.70568251242514       43.17032241301649
H           43.56243913727855       65.74178913062691       44.67776542305430
H           43.27113284232900       66.35563598427321       42.32525171503367
H           42.97683073756495       64.60577343370758       40.61081593038025
H           42.95379300841363       62.22791653744598       41.28586413871428
H           43.23590391275162       61.61201026132691       43.63993871316645
H           39.76789934705181       63.88217635919950       48.03065639847456
H           38.63561234491655       65.34261595965913       49.64216713446022
H           39.88747727432465       66.31241315092491       51.53304888876119
H           42.29420860404704       65.81211815561748       51.78906727013543
H           43.42304540103461       64.33050487971106       50.19762854794127
H           42.11274923139387       61.83351878303326       51.78303091190989
H           44.19341598162809       61.55518180316590       53.03136291029330
H           46.16327688900034       60.50998235224667       51.95543834843858
H           46.01393961078681       59.74376211151052       49.62048953460628
H           43.90282286608083       59.98799312126624       48.37642953733770
H           38.87124683308685       58.51186041676834       46.26554186978588
H           38.52292928962152       56.18427319017729       45.59384261759885
H           38.76668329067255       54.36110199824478       47.26164292878140
H           39.33745127412237       54.92463694401370       49.59790762030398
H           39.64413906800725       57.23856487836157       50.27240535020799
H           36.33102157345174       59.02574230410924       46.93555501113860
H           36.08601063073645       60.35441978705425       44.88400522177071
H           36.50755763840633       62.78885526159490       44.92846699159198
H           37.16425698626232       63.87415557527201       47.04374917443562
H           37.42597447018866       62.54725344991358       49.08475499258289
H           36.88008067223603       59.49997562149647       54.24325667052620
H           35.79304864187348       60.56915710181040       56.16450596771765
H           33.62029258219208       61.71006070846026       55.87370379898151
H           32.52479078152682       61.70374117453105       53.66274938426156
H           33.60219545522273       60.62117790151935       51.75208173069772
H           36.93912708553113       56.78791465748348       54.40924416444648
H           38.78716431731570       55.17803353802193       54.58085937584695
H           39.16958714457799       53.53835895698737       52.77586829612859
H           37.72254359368756       53.57231334181626       50.77331371124094
H           35.92283231135020       55.22149087049603       50.57564582368784
H           44.57527796488323       63.55974828423196       53.88686146591765
H           44.24478853387777       64.69290426738212       55.20311565716064
H           43.62023778893970       65.00557073312272       53.58276946806394
H           35.05896859718723       57.59025026685166       53.37917320024672
H           33.69778195862508       55.89308766270987       51.27649817038270
H           33.93159191530923       55.29526560269502       52.92189594778166
C           32.45183237190270       57.00656974254882       54.29793850435311
C           31.35513940384238       56.26572993033832       52.16071564808541
C           30.56833802148355       56.92591114905929       51.22545520528703
C           29.49472205154615       56.29358109235188       50.62206052152773
C           29.19227415215245       54.98195921196517       50.94557065251939
C           29.96510024145117       54.31467284794335       51.88149979668960
C           31.03496143304280       54.95144751058682       52.48439017231458
H           30.79776821589865       57.95026982362009       50.96526209522025
H           28.89447830730591       56.82336567888598       49.89561983644541
H           28.35767660516348       54.48348891853378       50.47300182369698
H           29.73685119687651       53.28990724966905       52.13899712901633
H           31.62662149172870       54.41657384554849       53.21262651961763
C           31.24024707049093       57.83573470904016       54.73821808585520
H           32.37578604234857       56.00000241673321       54.71493907142219
H           33.35549823928900       57.46243999071130       54.70703818590737
C           31.15179630179769       57.90647374595419       56.23370087093816
C           31.81317731960952       58.90935759296507       56.93151317588825
C           31.74981465438236       58.97235767031310       58.31201246266755
C           31.02428937234848       58.02723758238867       59.01696872922811
C           30.36870740806618       57.01748470073694       58.33215722091821
C           30.43471502937075       56.95762127871581       56.95136916166376
H           32.38367781626216       59.64591552539426       56.38324837198072
H           32.26935520478873       59.76010609823857       58.83864753883913
H           30.97110831471295       58.07551364245769       60.09550291757684
H           29.80377391587584       56.27414466201358       58.87752944803068
H           29.92008911693385       56.16828890417116       56.42122435428341
H           32.59650267390388       57.97121866219684       52.39760861259612
H           31.33576805149166       58.84424300973954       54.32831162589375
H           30.33157205217886       57.38463257520196       54.33248376422588
C           56.08057109218801       57.30118518623235       66.47621438710775
C           55.57759228828037       57.06467192958478       65.20313517780342
C           54.49592724318038       56.19886878965347       65.07610454281030
C           53.91708723446403       55.60262536253556       66.18112310377688
C           54.43128335255848       55.84857245588471       67.44235498079679
C           55.51906091699723       56.69040007355860       67.58492128246364
C           56.10532184954112       57.76012249100224       63.96755591023658
C           55.23500237461973       58.99544384447705       63.70909282438230
C           57.58796905198027       58.12982842173126       64.08615959084260
C           58.25385089853503       58.58864566985651       62.77628724321178
C           59.62296668647877       59.12325617328566       63.11775643732453
C           60.66953252039940       58.27423876406814       63.45927109081973
C           61.91547161184077       58.77997468799303       63.78094371177521
C           62.13713136067074       60.14658389360112       63.77469011850224
C           61.10031105658534       61.00315895690543       63.44717796661520
C           59.85589713463644       60.49271261036426       63.12180041773564
C           58.31969121745167       57.46452709898083       61.73601652820043
C           59.18848151489227       57.82958956569208       60.52282992403465
C           58.69305113676447       59.08111527156269       59.84776515199755
C           59.48842374276929       60.21984497234065       59.81566307037265
C           59.04606911173930       61.37929303899445       59.20235266024374
C           57.80289269054832       61.41309855976826       58.59376501332206
C           57.00450510943531       60.28123718801306       58.61136482830165
C           57.44343504926833       59.13210397949177       59.24245091467466
C           59.23905109439243       56.64010471681627       59.55339248692245
C           60.04446721362404       56.92767501686259       58.27958360087602
C           61.36899432455099       57.57773747462193       58.59116007998886
C           61.73939349520438       58.75433831999536       57.95451332550955
C           62.95086762378494       59.36278166674111       58.23240994156543
C           63.81707854557370       58.79985512907695       59.15328129169620
C           63.46026740646056       57.62440679953818       59.79209208322393
C           62.24845789679507       57.02104958396801       59.51236730229712
C           60.31655896165997       55.64500125350642       57.47318306488449
C           59.07735987203510       54.83537047631262       57.05720922654370
C           59.50019938381156       53.52310922583536       56.43797620865843
C           59.06737781099491       52.31268775611201       56.96689636308851
C           59.44353517380254       51.11121996266264       56.39090914739209
C           60.27394956212738       51.09780888100283       55.28525511913621
C           60.71007153165647       52.29668808127239       54.74984410488842
C           60.31867160273544       53.49637422446220       55.31575015573590
C           58.17628907971962       55.61699035237196       56.09335910472609
C           56.83175597040739       54.91384490958296       55.85315532924034
C           56.12408833275199       54.64088642944512       57.15587395185113
C           55.74001378635211       53.35224186902579       57.50344252401629
C           55.10195973341541       53.09970529650425       58.70513899157031
C           54.84498066524495       54.13578017956809       59.58506675998732
C           55.21381107461225       55.42638401272310       59.24768514454962
C           55.83947808925716       55.67488141556765       58.04014262594115
C           55.95128406831527       55.77248425286278       54.93655156555631
C           54.66446393497069       55.05140090962134       54.52218472484397
C           54.95789757505878       53.92934546215131       53.55582212664999
C           54.54965991034324       52.63503173879103       53.84570159709817
C           54.77834446262628       51.59709414585675       52.95980058967869
C           55.42667789664792       51.83864436532878       51.76154520323580
C           55.83575316704307       53.12496867082609       51.45464601323282
C           55.60007137386249       54.15835789542813       52.34342191724949
C           53.63976798462408       56.00942675664354       53.89351149535944
C           52.95658283990177       56.94453478582391       54.90056186161037
C           52.23993592186277       56.18214701074105       55.98565080932469
C           51.22060829094404       55.28062382783071       55.69726340863499
C           50.56236244169195       54.61274694019447       56.71497302104390