3864
 energy: -5104.122877005889 gnorm: 0.000857991627 xtb: 6.6.1 (8d0f1dd)
C           45.91993729179102       66.56476153420138       51.59467285415466
C           45.97363858339228       65.38127821137464       52.32082127276136
C           46.20846477794183       64.19445818524486       51.63607138352274
C           46.38279084091133       64.19128780019140       50.26359449502230
C           46.32444436655953       65.37722580316940       49.55044361559939
C           46.09174804571028       66.56552563689311       50.22158591524350
C           45.75000111789151       65.39109868863798       53.81274068248630
C           44.46911483829637       64.62892228575079       54.15846628854919
C           46.94718198322898       64.79824969018098       54.56769012276695
C           48.18786226710139       65.69144112140559       54.45761266120642
C           47.92474069260447       67.04006270909093       55.08382749869237
C           48.06788228082410       68.20156632532849       54.33565445689014
C           47.84409848417344       69.44446075415573       54.90160926149984
C           47.46987659244554       69.54570580844660       56.23040463657839
C           47.32771921611563       68.39574989010396       56.98824469581293
C           47.55729826626617       67.15520260660496       56.42068083560795
C           49.42677109785459       65.06866462989164       55.12077155661710
C           50.05287791566429       63.90644524925759       54.34224260378883
C           49.29459933887219       62.60903147164250       54.45766285146410
C           48.99848452025086       62.04405941537277       55.69340112676172
C           48.35913761359993       60.82110880106441       55.78132651942626
C           48.04091158832106       60.12028736111959       54.63054841837616
C           48.34561217634818       60.66212026616496       53.39453409618419
C           48.95085123977005       61.90368298051902       53.31099178848338
C           51.50266535497982       63.66419392620404       54.81693366807384
C           52.52833013553445       64.54874209603139       54.08504282128834
C           53.78017722270724       64.71393503562591       54.92123543731564
C           53.65826043926504       65.33193965309530       56.16341202275763
C           54.74525900518557       65.48624834880411       57.00076994571307
C           55.99624151703259       65.04519367023052       56.60398652963003
C           56.14071362516560       64.46166801803190       55.35979964707081
C           55.04428928675994       64.29430517759741       54.52927849029169
C           52.77747782225275       63.97129254328927       52.68865488692139
C           53.25770436781681       65.03443885187102       51.69156889461334
C           52.13050191930690       66.00577129401255       51.44023510329790
C           52.24577685660740       67.33444425644579       51.82898597925240
C           51.19314542043659       68.21804167767982       51.66144076092392
C           49.99568455225352       67.77851992353330       51.12489319860642
C           49.86378126167442       66.45499801216717       50.73864706094990
C           50.92801277326787       65.58380283348238       50.88210431880209
C           53.76709737489457       64.38390979952405       50.39881443929651
C           54.36743961687799       65.41391012989924       49.43406333692810
C           55.53349606448805       66.13134952560814       50.06509862729099
C           55.47229026003578       67.50224853101754       50.28201057603721
C           56.53233346526756       68.17982148536656       50.85711279991404
C           57.67705224687302       67.49215810830970       51.21977730619405
C           57.75278126053249       66.12784034809485       50.99943047513924
C           56.69054273638098       65.45179494005544       50.42733829349715
C           54.78346288105447       64.75428096321335       48.10451063878755
C           53.65460738671705       64.80450647762808       47.06465430425244
C           53.83178461195302       63.79269959259855       45.95977934991462
C           52.76022524131421       63.01125271948808       45.54530898548748
C           52.87286292692292       62.16580452819479       44.45459576709752
C           54.07777075679937       62.05425986638701       43.78407711114925
C           55.16418884104247       62.80042290862735       44.20895469100225
C           55.03725998616385       63.67082838173225       45.27715865598510
C           53.56976084814747       66.20836664713730       46.43766228374871
C           52.23785969234660       66.44075450636788       45.70794351982428
C           52.40027011011750       67.40711299944363       44.56233234497494
C           52.92607188592354       68.67758151636575       44.76549440420987
C           53.05058849769090       69.56714115045561       43.71452438532675
C           52.64678995780807       69.20187889010369       42.44126310367528
C           52.12587685607812       67.93848848916463       42.22670640187231
C           52.00805985063354       67.04842358164117       43.27981274405676
C           51.14734709383637       66.95241575612924       46.66377913221287
C           49.74812582071685       66.73940730649483       46.05930002719941
C           48.79419712684297       67.84547468407642       46.42536554983319
C           48.09018190230394       68.52037112606322       45.43640601546298
C           47.20143085391759       69.52976377537580       45.76242771965889
C           47.01069983445002       69.88642906943922       47.08611788071384
C           47.71796390717476       69.22922186886990       48.07815401164454
C           48.59918346865425       68.21484259680676       47.75036137537309
C           49.19221315177550       65.37291931944074       46.48850803761702
C           48.02973153583845       64.89432679423405       45.60664149811728
C           48.46412430545558       64.84344047947842       44.16274146951821
C           49.54797327352943       64.06318594423644       43.77595429949146
C           50.01661909541337       64.08986237599117       42.47614075487041
C           49.39724967664075       64.89160618074121       41.53219368137669
C           48.28503124653753       65.63263555505624       41.89053081469788
C           47.82329706173445       65.60659016708156       43.19536924695873
C           47.54149239842550       63.51775618952375       46.07635098842859
C           46.19092078755940       63.11751196830398       45.45348466576181
C           46.12636074448444       61.61641322373464       45.33882852852095
C           45.95044367609454       60.80706717495600       46.45502795175664
C           45.90810463740798       59.42980592963387       46.32816735992468
C           46.05403571950988       58.83930267834305       45.08540305366402
C           46.25611067848681       59.63618800961288       43.97211897721584
C           46.28794880202140       61.01250784057387       44.09875564446578
C           45.02170306792629       63.69247091603319       46.26322295176315
C           43.65359242628940       63.20229247436149       45.76970650275361
C           43.44880526585438       63.56538603983735       44.32060849450762
C           43.43425042244390       64.89169724145196       43.90429970209077
C           43.26965792854646       65.21247188409419       42.56923088781220
C           43.11748653307287       64.21048794709689       41.62592986823840
C           43.12363603548448       62.88767776320343       42.03016032262484
C           43.28425578977747       62.56946502357608       43.36661708954211
C           42.51836662565555       63.76345822720580       46.64327598197762
C           42.40456745918816       63.07074912077466       48.01354835885083
C           41.67846437929666       63.96159905444274       48.99008032105422
C           40.32478251057107       64.24335326525078       48.84315599531323
C           39.66799000834724       65.05011741230220       49.75447254538846
C           40.35725007853588       65.59905865003024       50.82290787462634
C           41.70805715175014       65.33724279999053       50.96925930960455
C           42.36165303298115       64.52210618291663       50.06212664512666
C           41.71888564653106       61.70324555416496       47.89603979742142
C           41.52933911839641       61.03263637240589       49.26129521957063
C           42.80370577467253       60.96417189854025       50.06286125819010
C           42.80772284355162       61.39218936753879       51.38269037343308
C           43.93747226312626       61.25337308458402       52.16735083497397
C           45.08829439899167       60.69652613993151       51.63811760735112
C           45.10066818834582       60.27887178959578       50.31788808915279
C           43.96316893476790       60.40240543797180       49.54056144565206
C           41.00224072980967       59.59477795535629       49.13493782149781
C           39.53552352959051       59.45730970750675       48.70616959226691
C           39.29597804439636       58.02261703485583       48.30420790219124
C           38.99541894738461       57.69970786484350       46.98658130359745
C           38.81331419239514       56.38309619195814       46.60095864271479
C           38.94659929555228       55.36434923246171       47.52945607784003
C           39.25600104007835       55.67474554100149       48.84149115034701
C           39.42076608949976       56.99123884414709       49.22801353693445
C           38.57985738492656       59.89343788098552       49.82264418329235
C           37.11257140122177       59.80418100439570       49.38217173340823
C           36.90924429292886       60.63503590683032       48.13718839083707
C           36.53579461530546       60.03262966189340       46.94209712452987
C           36.41065939847145       60.77149428505689       45.77847774901866
C           36.64807902653303       62.13456925078243       45.79470749532224
C           37.00359351365068       62.75070079693089       46.98278171138298
C           37.13428229996612       62.00751033499225       48.14222597701253
C           36.15072731399432       60.25523590960974       50.49333824033285
C           36.01885908636885       59.27006503341143       51.66764083680613
C           35.36561555035071       59.94780951946497       52.85050482280941
C           35.96263538484452       59.91029720816843       54.10503787759879
C           35.36997004176730       60.50593364540727       55.20427045909457
C           34.15810848286448       61.15858619868692       55.06181714872456
C           33.54251774548569       61.19331228871282       53.82181330245297
C           34.13887070113834       60.59046022217046       52.72880723798671
C           35.20923784996534       58.02497478292492       51.27581796816164
C           35.10998636756937       57.00874645994044       52.42417252376512
C           36.29691699062497       56.08047477869123       52.47785163980210
C           36.56055671211343       55.19467714820895       51.43904876058145
C           37.57998149984318       54.26596854048602       51.54610636836423
C           38.37328051196170       54.22252597636643       52.67971355319582
C           38.14239157317346       55.12219424670062       53.70434026455458
C           37.10877881999550       56.03661139862718       53.60352514513647
C           33.82996057670076       56.16713379868906       52.30447612155407
C           32.56182587057247       56.90888326920846       52.75754297063438
H           45.62464278490204       66.43143572171341       54.13561706151830
H           46.67811631196692       64.68119006402681       55.61975377702758
H           47.17514852068287       63.80793276428368       54.17393663057731
H           48.40944875138203       65.84304910772543       53.39450610445117
H           50.18334934447305       65.85326344430334       55.20933625011250
H           49.16743808617527       64.74089274178687       56.12848538636525
H           50.07145532481668       64.19508409082410       53.28600014899519
H           51.55623018839984       63.83316138283957       55.89260943162061
H           51.77194455471078       62.61943896517793       54.64962533999496
H           52.08853813045908       65.54832551201262       53.97295432731400
H           51.84479778553364       63.54390152184204       52.31856180916588
H           54.09228460750361       65.58125211360648       52.14353567152668
H           54.52958295766133       63.64464965337427       50.65687429732952
H           52.95058544465523       63.85983311392029       49.89657383083537
H           53.59229578748469       66.15963336634945       49.22754661614334
H           55.65924014102599       65.27145749741197       47.70791361633840
H           55.07144974257224       63.71568723532643       48.28528523359316
H           52.70936282371347       64.59097687741620       47.57631910562702
H           53.69844621803303       66.96509489369599       47.21287632874859
H           54.39322642478457       66.32100904071858       45.72870225394397
H           51.91312804494927       65.48369431832860       45.28711650266462
H           49.85261403138138       66.74290080352529       44.96966823993265
H           49.99619138312466       64.63610756936791       46.44416645174751
H           48.85643028630835       65.43419113608979       47.52670106983518
H           47.21122467556349       65.61636749660001       45.70004389784452
H           48.29111327969085       62.76958155760246       45.80752973351129
H           47.45225750500782       63.51351089592234       47.16510958384337
H           46.14527523182991       63.52906528897005       44.43918451860537
H           45.13674515796763       63.41830201757996       47.31316188028261
H           45.05642929204841       64.78229200550827       46.20675135847751
H           43.63504042154084       62.11051956504642       45.83972174274556
H           42.68380526902020       64.83162539677694       46.80272969477586
H           41.57307277642380       63.65287701201382       46.10670320962547
H           43.41181687536745       62.91115256438052       48.40971308073585
H           40.74150665827875       61.83171908620965       47.42796805759317
H           42.31169704668555       61.05899822204784       47.24398642181369
H           40.81157558271685       61.62651724836574       49.83467758854477
H           41.62634427652725       59.06308047679915       48.41142046382053
H           41.12242579921764       59.10018391772329       50.10115711608285
H           39.35687913269785       60.09259161206743       47.83332293107387
H           38.74086164723737       59.26409071467177       50.69879455210759
H           38.80640169860661       60.92231776809848       50.10687782100572
H           36.89575246131840       58.76081856516397       49.13143061852976
H           36.48586163848117       61.21864975959831       50.88568676807665
H           35.16518043289200       60.40850327347249       50.04744600611053
H           37.01831120159461       58.94289290938163       51.97174745393407
H           34.20567749801522       58.33826584750410       50.98322443292740
H           35.66449829214564       57.54437472772955       50.40875147909814
H           45.73848013788959       67.49655314000398       52.11272615074685
H           46.04454430622738       67.49159963619378       49.66755001517790
H           46.45560729363221       65.38433140088182       48.47827082818506
H           46.56018225127695       63.25279483823891       49.75539411822960
H           46.25093142492726       63.25767255877506       52.17111711560840
H           48.36216486381510       68.12449047945186       53.29893596750784
H           47.96183765903073       70.33710131673602       54.30442597912560
H           47.29315376507415       70.51451990646900       56.67350063871270
H           47.03764311525592       68.46270718266658       58.02741930159313
H           47.45026557181423       66.27326404227560       57.03429126858086
H           49.28025833518070       62.55845077638654       56.60032077774240
H           48.12017310058065       60.40149050612668       56.74780892757051
H           47.56131351654340       59.15585198101583       54.69598774442726
H           48.12502688445240       60.11163963385909       52.49056650193733
H           49.16502902604573       62.32335859801295       52.33840371363212
H           52.69641756884297       65.71102108579362       56.47615565934764
H           54.61619127862618       65.96128033980389       57.96217301236594
H           56.85031689630392       65.16761287860247       57.25454961798042
H           57.11396516477771       64.12871338478035       55.02660993003620
H           55.20724115936414       63.83616436000641       53.56688593410313
H           53.49409391677924       63.15090841111616       52.75047133159271
H           53.17049317165353       67.67584991496766       52.27307195104160
H           51.30440547615542       69.25123941430168       51.95855820534194
H           49.16912756583234       68.46326391212118       51.00247069368956
H           48.92488652213873       66.09885072001141       50.33686198605303
H           50.80964733950281       64.55891773518657       50.55982807915226
H           54.58105452515353       68.04522374472147       49.99808031583605
H           56.46549256993347       69.24594580027116       51.01965590502036
H           58.50731900766162       68.01782531507092       51.66802572599253
H           58.64499646983982       65.58443525079277       51.27003083567971
H           56.77215385975186       64.38746292926498       50.25825776046119
H           51.82504897530539       63.06263139429822       46.08726984903353
H           52.01439340030230       61.60074256468751       44.11765313857691
H           54.16918560010572       61.38827477200211       42.93844155593560
H           56.11111966869219       62.71205686551937       43.69556421174774
H           55.88710047973969       64.26325837249820       45.58246133878107
H           53.24399577364017       68.97508062550439       45.75434491402559
H           53.46231637052297       70.55079873195709       43.88891212356483
H           52.74022650298238       69.89893535135884       41.62147927073605
H           51.80920409346737       67.64231397860301       41.23712777606621
H           51.60425394569653       66.06170671248533       43.10205786539036
H           51.21789523684499       66.43569300489517       47.62400186456261
H           51.30906033821227       68.01580845067402       46.85100427630967
H           48.24727412637911       68.25478427397117       44.40037451891278
H           46.66031030038257       70.04360248450314       44.98092249803751
H           46.32004589375288       70.67668037434225       47.34230197103982
H           47.58468989174371       69.51414206784266       49.11245376746026
H           49.15121995779053       67.71253690323005       48.52946855273870
H           50.04814108201772       63.43613751980859       44.49790062923146
H           50.87752868788186       63.49372391190217       42.20660972924966
H           49.78464626725039       64.93915317827475       40.52508716132788
H           47.78093247427044       66.24238649261082       41.15487566096253
H           46.95927859172144       66.19616781948177       43.46921968155436
H           45.83397531512966       61.25504485830020       47.43122786953516
H           45.76284958364491       58.81151235883817       47.20306455815479
H           46.01250723995557       57.76468088591789       44.98955294935673
H           46.39689880489428       59.18934573891054       42.99887732625530
H           46.43365082040273       61.62924641191796       43.22296463938773
H           43.55204672009516       65.68450237380999       44.62891481697678
H           43.26210890794530       66.24884756855673       42.26269076039031
H           42.99587160186326       64.46093772749276       40.58219474146092
H           43.00346683721640       62.09728390064532       41.30456270323771
H           43.28488763118322       61.53221893002880       43.67060418128214
H           39.77599062006716       63.82527341458705       48.01197264704484
H           38.61372902099448       65.25500145115822       49.63123044448003
H           39.84337153557095       66.22945332049591       51.53425533478969
H           42.25914909673639       65.77034450379747       51.79174829199727
H           43.41542072260275       64.31863550699070       50.19317113550251
H           41.91495927485880       61.82496175704097       51.80943622990002
H           43.90185819892135       61.57126472380148       53.19941001573485
H           45.96962040969112       60.58081059319956       52.25090709525549
H           45.99978924471427       59.84636286999434       49.90101577751802
H           43.97328936594518       60.05515926509693       48.51777327724195
H           38.90153689592255       58.48524371936821       46.25036221109472
H           38.56860913715676       56.15701892445914       45.57179859316943
H           38.81774133500991       54.33215582332571       47.23560777595256
H           39.37395901136608       54.89320918619083       49.57574037496774
H           39.66154864700528       57.20596651098963       50.25857985450660
H           36.35888091751752       58.96651390007197       46.91938881510040
H           36.13669227610653       60.27972863783064       44.85585352449439
H           36.55482671839593       62.71507626862683       44.88825831326502
H           37.18456763123594       63.81627141375035       47.00416437356641
H           37.42285581716149       62.50319848162351       49.05758159848764
H           36.90974710666926       59.40473594966844       54.22414004541944
H           35.85248538270711       60.46023146011584       56.17074938884049
H           33.69879715203491       61.64250946588263       55.91167778698831
H           32.59166299033274       61.69420990920274       53.70552820428966
H           33.64298456486110       60.62872655074558       51.76994371426859
H           36.91811123090051       56.71895578547230       54.41906625135542
H           38.76002751129802       55.10358304559350       54.59018246069247
H           39.16368398185507       53.49141152545677       52.76487652215894
H           37.74728393304454       53.56323100846924       50.74244218286685
H           35.95594237602175       55.21950267393249       50.54405720979552
H           44.56680096536825       63.57787090460113       53.90086832959629
H           44.25750468531477       64.71020047541626       55.22326446587473
H           43.62263747068737       65.03337594568367       53.60816594809591
H           35.06619796311853       57.55575089660238       53.37030567198257
H           33.70860937867014       55.86366707574667       51.26233440434125
H           33.93893773455614       55.26272497495012       52.90700477684826
C           32.45485124163052       56.96612043711607       54.28492483555483
C           31.36642076582100       56.23376241245913       52.13451842396645
C           30.60119547151982       56.89023027379142       51.17919337607935
C           29.54256783501459       56.25431496231105       50.55373173402170
C           29.23417707396345       54.94369017409833       50.87512444818038
C           29.98313655043172       54.28171009222093       51.83370857139458
C           31.03805121373544       54.92189415116734       52.45915575813888
H           30.83742437851055       57.91331442770085       50.92059278696548
H           28.95995285407064       56.78077700190643       49.81118399654533
H           28.41294782038656       54.44189932333796       50.38389418020677
H           29.74933857130328       53.25869090173366       52.09168437048523
H           31.61274407941574       54.39217951744112       53.20418640292766
C           31.23928389459414       57.78735279371887       54.72815458902388
H           32.38498710899323       55.95723585488756       54.69681538260324
H           33.35723873870878       57.42391558672741       54.69504078029694
C           31.16670682021570       57.86645890070568       56.22437203957692
C           31.81992748624704       58.88495210272174       56.90660196584914
C           31.77454224787434       58.95484431553096       58.28750398062732
C           31.07458763422248       58.00162193327755       59.00701868930345
C           30.42677180998942       56.97703638184261       58.33701521139982
C           30.47579288450997       56.90928207085661       56.95593718963250
H           32.36865184926906       59.62803889657649       56.34539878361494
H           32.28687336582832       59.75518463459735       58.80145828053277
H           31.03420510329520       58.05581842138075       60.08544510542905
H           29.88063410123068       56.22838660501826       58.89349449454244
H           29.96857927160543       56.10867229983393       56.43604862366094
H           32.60427972572563       57.93965310204518       52.38903106869859
H           31.32250714872800       58.79349930330532       54.30984730826763
H           30.33226425120279       57.32480774970595       54.33238344575015
C           56.07693724360567       57.29009974759755       66.46500434058774
C           55.57389280341693       57.07377814395190       65.18827150036668
C           54.49043697067326       56.21276694318033       65.04700545352473
C           53.90746374735281       55.60385433032395       66.14333058471234
C           54.42016511750354       55.83193312458474       67.40842695515006
C           55.51198005443483       56.66625104759457       67.56421995798880
C           56.10429362671822       57.78974667639898       63.96587761473571
C           55.25799725821074       59.04979024859557       63.74830306282842
C           57.59592029992606       58.12530261311061       64.07923156962589
C           58.26125118516998       58.58378387387958       62.76961926896323
C           59.64519704231822       59.08927519792417       63.09863122287155
C           60.68101761736855       58.21662832439717       63.41178078046179
C           61.94342083983086       58.69578088448909       63.70954388544087
C           62.19049532031634       60.05777414592506       63.70910314746289
C           61.16398030404839       60.93695378919132       63.41154987111676
C           59.90336422087781       60.45385559962636       63.10816438714319
C           58.29895008224504       57.46697559291164       61.71967340954028
C           59.16918688902171       57.82749826553815       60.50666106303915
C           58.68009996098183       59.08043911546249       59.82928713372718
C           59.48137056620384       60.21505415029323       59.79571179842866
C           59.04444713066363       61.37446310482161       59.17885883436536
C           57.80207348207124       61.41280276860147       58.56881536530098
C           56.99798279118014       60.28498138564808       58.58878256283766
C           57.43113675642146       59.13521129017235       59.22336529661776
C           59.21846227681665       56.63705588796067       59.53883993667237
C           60.03515823458549       56.92121464270905       58.27148598721924
C           61.36049450710262       57.56679055580257       58.59333233399083
C           61.74226286087859       58.73657123750933       57.95136295301754
C           62.95535687792444       59.33877002592188       58.23603062772430
C           63.80891258557146       58.77717889717032       59.16920691192102
C           63.43797148936607       57.61095032824468       59.81643459379289
C           62.22546482535353       57.01210333090671       59.52913145674847
C           60.30922014275556       55.63710568581927       57.46874216409262
C           59.07126436468508       54.82778294409147       57.04832704201048
C           59.49305886090930       53.51610372980121       56.42666992695749
C           59.05482215774040       52.30484492251615       56.94960200539231
C           59.42971882480980       51.10412707030596       56.37085315171426
C           60.26405178563294       51.09207790848960       55.26801553520145
C           60.70569753035177       52.29179152193265       54.73884457185602
C           60.31596791475391       53.49078105005528       55.30746811683701
C           58.17324834945738       55.61256695626611       56.08390615408608
C           56.82814509623204       54.91172414791971       55.84062960611902
C           56.11453242908475       54.64259714313695       57.14148659314336
C           55.72983772941184       53.35447507501274       57.49073167376392
C           55.08743492673161       53.10491666563184       58.69082637192948
C           54.82704505628333       54.14337303589134       59.56702543283821
C           55.19535185835858       55.43346955203695       59.22720757666276
C           55.82518148517368       55.67919414667517       58.02124688033816
C           55.95195850781350       55.77048443084264       54.91994736086767
C           54.66254342259614       55.05208195129668       54.50910318663931
C           54.95098844294136       53.92290782882618       53.54926723872493
C           54.53327005781259       52.63333210379592       53.84733978837981
C           54.75758640326487       51.58752740483084       52.96945085094299
C           55.41165079082465       51.81670316359610       51.77159979399913
C           55.82962196037891       53.09831350894798       51.45659192093946
C           55.59758846730306       54.13984494614996       52.33700780491822
C           53.64109430050323       56.01140813271448       53.87673470119535
C           52.95619284067917       56.94463090176323       54.88458503201832
C           52.23844762243120       56.17877969465927       55.96689234501959
C           51.22594741112965       55.27090763033825       55.67408899382310
C           50.56844449329202       54.59856095417872       56.68947469466261