3795
 energy: -5103.662421791233 gnorm: 0.000887739855 xtb: 6.6.1 (8d0f1dd)
C          130.61927347003439      105.62782817960618      123.92854442648536
C          129.89865979383808      106.77620444901359      124.58974772677209
C          132.08276146211207      105.99947836418481      123.63937247486891
C          132.24635838925926      106.97018941943548      122.46923531223061
H          132.52758739104115      106.43490928677186      124.53645161279594
H          132.62525645536800      105.07899009135926      123.41407736905161
C          133.73317836539181      107.22802519788016      122.20586251484123
H          131.78331031155159      106.54772955722460      121.57420522023983
H          131.74370389799557      107.91165902710152      122.69294841658272
C          134.00479785515708      108.05140113757011      120.95855387103362
H          134.16112913429924      107.75675807051073      123.05957734718226
H          134.25406234956372      106.27520493529734      122.08933614039654
N          133.57648815571656      109.31211428478314      121.00979824112866
O          129.86134099343059      106.68300336793344      125.90457004168489
O          129.40424810980468      107.70538382973288      123.98759659127282
H          129.44812730882163      107.51441770526532      126.30934191089207
H          130.11461085179943      105.38466486702308      122.99280043130778
H          130.59631960933137      104.77335920970599      124.60442254118266
C          133.83941921799757      110.28558473147761      119.97280985153223
H          133.09247595500813      109.64794488623515      121.84045105698956
C          134.87170436653781      111.31720409878066      120.43124153948740
H          134.21916321903009      109.73633004042368      119.10860129497668
H          132.90757672499484      110.78952946927387      119.69772499807502
C          135.24939726096508      112.30269446189936      119.32485826173827
H          134.45760346145642      111.86011584610128      121.28322759998237
H          135.76681254831942      110.79000393361261      120.77045554330239
C          135.93077031400159      111.60549613010735      118.14593965988009
H          134.34897785471432      112.81698557529461      118.98385905863054
H          135.93064967637031      113.04548320157122      119.74588444916678
C          136.77526200223127      112.53527835194954      117.27299237250540
H          136.58910041359229      110.82543144084681      118.53468184481947
H          135.17390056825960      111.12277184557674      117.52709190730054
C          135.98185191889073      113.64260885294027      116.58895580042581
H          137.55238613208209      113.00127293822102      117.88066346819554
H          137.26558404417793      111.93552917511285      116.50289515904892
N          134.90126395945489      113.10916149227052      115.78689427461423
H          135.54000529755510      114.32234164923271      117.32334436093919
H          136.65492768370308      114.23236650892385      115.95371396641065
C          133.78283415230143      113.79415482864638      115.54968152377869
H          134.96243785971379      112.14554533166864      115.48166581420672
O          134.60206749357124      107.57983121556458      119.98833625921274
C          132.71686394090372      113.03123153465567      114.79523114608547
C          132.92253298659767      113.07101244668698      113.27858936200347
H          132.72980381647849      111.99469480956003      115.13250848164920
H          131.75391169814043      113.47519020666088      115.04066840278227
C          132.65685415019837      114.45466190553061      112.69078195925729
H          133.94035229516919      112.74900231915964      113.04681235346135
H          132.22963434721345      112.35768900242792      112.82588058631237
C          132.79975098762790      114.45005493530036      111.16657632134262
H          131.64064495439118      114.75965727474482      112.94659748329585
H          133.34810504179327      115.17856992520593      113.12430814953335
C          131.74692244848941      113.55464079680519      110.53812244997479
H          132.64689207245797      115.46433372077784      110.79053118828530
H          133.80001485612689      114.12249411287954      110.88394080721403
N          132.19356763439660      112.69317163202194      109.61658098730757
C          131.35281264873143      111.68698847977760      108.99842460909453
H          133.17015532170217      112.68030762933468      109.36628767444134
O          133.63170704198467      114.96208011104352      115.91063624641350
C          132.13491523560168      110.40085007504034      108.75096200192172
H          130.50929207842188      111.51114070419412      109.66900412430043
H          130.95778055580962      112.06677000561442      108.04874489155796
C          132.72883342700271      109.78928433813520      110.02235741512477
H          131.46305265945054      109.67435633600978      108.29095502871226
H          132.94034349082182      110.61267546924681      108.04469424113863
C          131.67724431936028      109.09200379605062      110.88339879583424
H          133.47597749839116      109.04936784602732      109.72865361582757
H          133.23653899345058      110.55806546583199      110.60744031020104
C          132.29484793616425      108.32150580060345      112.05245101571093
H          130.96972042144034      109.82224110953403      111.28027280879000
H          131.12672582829313      108.39941678499764      110.24510837534288
C          132.61714183299887      109.22532776266289      113.23720642242594
N          133.37512372111732      108.50493278899081      114.24176889472095
H          133.22376897429760      110.08180901023292      112.93460137129247
H          131.68058990606275      109.59958017814184      113.67140516091766
C          134.30194152559534      109.07549225926263      115.01591995537976
H          133.19110820012716      107.51465617468406      114.34435006104079
O          130.55851751332088      113.62585292104029      110.83761066547211
C          134.96519610708842      108.14466392046532      116.01419424264137
C          136.44914335518914      108.47387326366622      116.16434921230324
H          134.46376117762512      108.29110259813619      116.97575189624662
H          134.80877372517173      107.11083009834275      115.71136538829872
C          137.09294176025449      107.83565207974807      117.39294051085878
H          136.98060920870572      108.15770131530353      115.26378703909445
H          136.54000860397466      109.55872106666367      116.23747438414591
C          137.42048134291730      106.35331115520195      117.20038033213962
H          138.03284596255057      108.35198843087549      117.59772748174042
H          136.44215948084607      107.97309718337445      118.25819254861482
C          136.23003855081427      105.42351308899491      117.07702692362511
H          138.02798939149116      106.22457293125757      116.30253968760715
H          138.00288124968634      106.00491900239854      118.05670197212328
N          135.37168709616918      105.45072254452897      118.09203948940788
C          134.26756921473719      104.53579204532330      118.25875579510061
H          135.43689182883668      106.17273279286222      118.80013441352347
H          131.59929586108504      107.55603399317336      112.40100622595456
H          133.20691341702022      107.81958668018174      111.72169043543855
O          134.58623578055122      110.26997552975820      114.93909191493997
O          136.12912667944869      104.64327198976584      116.12265180923031
C          134.43564117276694      103.74610099931056      119.55923178496160
H          133.33477344354793      105.10651762292119      118.26729523065595
H          134.25028283967833      103.85914791643893      117.40187013252802
C          133.25454399863887      102.81332535066787      119.82271796268061
H          135.35729995408556      103.16550947507818      119.48965847766911
H          134.54156248709958      104.45339993103009      120.38402029515629
C          132.01927734922688      103.57740634606235      120.29489386160512
H          133.02112858068412      102.27972636178232      118.89892698448516
H          133.53533187463501      102.07271796142523      120.57300168345643
C          130.73160775422906      102.75588155223234      120.18962205859405
H          132.16799975994851      103.91367240543107      121.32126893758061
H          131.90641733412838      104.46759469081115      119.67476545516210
C          129.54679920301038      103.64086157089271      119.81190460218687
H          130.84345591614650      102.00209904192253      119.40787668928414
H          130.51865646033625      102.23972742238691      121.12500142186026
N          129.78526319343717      104.23386002651394      118.51399983896104
H          128.62930904896700      103.04217427003422      119.78380989699545
H          129.40907199715923      104.45579417529228      120.52758452171184
C          129.56789215189357      105.51784410479929      118.22466953812601
H          130.12305628186536      103.60651130769384      117.78470096420470
C          129.96854920841483      105.93808007719426      116.82340078842597
C          130.97170132976862      107.09860707125389      116.84539052848149
H          130.40609386076426      105.08565055193884      116.30406568237350
H          129.07273422257640      106.25520624488973      116.28375232479536
C          130.31447460393025      108.44932534758037      117.12381851982624
H          131.73839871539124      106.90323955390976      117.60045782717405
H          131.47590864629936      107.13593362330955      115.87814012925560
C          131.35596634033038      109.56805536329618      117.13899027043817
H          129.57434482091725      108.64535835608346      116.34773530367906
H          129.80381013854412      108.40886635612368      118.08659525356033
C          130.77196401617363      110.96211243008544      117.31331703430607
H          132.06427125068913      109.39619893345461      117.95040027166304
H          131.90775872429063      109.55694820472635      116.19661828648442
N          129.92942217865811      111.33219444806706      116.34567504561566
C          129.32801317540614      112.64738255120683      116.26563634693680
H          129.71915641230336      110.69591552930477      115.57818875651503
O          129.07314377492497      106.30159031362800      119.03401332600893
C          128.99111666436391      112.99368224580439      114.81795723777850
H          128.41865187096195      112.68036197619014      116.87960658591174
H          130.03599133019782      113.36558454205291      116.69255378200202
C          128.68120374829377      114.47640324690137      114.62788422681463
H          129.82882241580862      112.71364507835989      114.17770279784455
H          128.13216099725170      112.40202544035587      114.50006161785910
C          128.26945489729255      114.75878785245199      113.18351171816344
H          127.87774937886905      114.76776518567128      115.30662581349679
H          129.56412416211307      115.06752961315462      114.88223954056099
C          128.11143479482311      116.24393322185293      112.86674207789187
H          129.01916603964222      114.34215956493635      112.50844938726371
H          127.32495027375870      114.24942134076865      112.98561015156685
C          127.10930191318621      116.94306933643323      113.78158240920514
H          129.07761506406374      116.74280908206801      112.93897029872481
H          127.75956896962967      116.34751040846703      111.83818444466682
N          126.68977102566168      118.20864305972677      113.21594016164602
H          126.23564312295680      116.30020209202843      113.93510141582983
H          127.54631733515190      117.15207358217775      114.75975075310166
O          131.07740399215260      111.69161265784680      118.25410667551623
C          126.62006687211645      119.33623423582520      113.92384732735927
H          126.46628184084014      118.19340480671246      112.22599610727100
C          126.24760960545592      120.59785293269979      113.17465877938592
C          125.09787333812142      120.45281082959102      112.18154586883732
H          125.99521187171744      121.35173250150704      113.92463583104298
H          127.15110537114367      120.92770273444984      112.65770980173767
C          124.59662869666974      121.80590513996412      111.67748417851571
H          125.40721514239672      119.84741062851737      111.32827726572205
H          124.26271994561900      119.94517303567869      112.67049642988898
C          125.64776276254022      122.57770390736383      110.87875343120498
H          123.73526102918541      121.63744590578881      111.02815809390894
H          124.27146396882739      122.41400395917319      112.52425616258820
C          126.03775872386639      121.80110768510080      109.63299785675832
H          125.21480117510566      123.52666980933688      110.55654172303419
H          126.52746053395884      122.78111472776193      111.48599550271121
N          127.33964542756499      121.50095023816512      109.55058123139690
O          126.87280268848164      119.37773890464149      115.13100526965390
C          127.92114543488459      120.73863398120314      108.46899101601426
H          127.94553425777760      121.67253299952320      110.34269632638713
C          128.63474141418530      119.49988047434802      109.00343287211862
H          127.10871511039637      120.46771676990251      107.79015577435173
H          128.63177764675169      121.37533074821845      107.92818739886248
C          129.39976135592389      118.77014330962510      107.90178395684806
H          129.33182953303537      119.82069562459316      109.78126410203174
H          127.89608341640484      118.84279290121864      109.46481693656692
C          130.36251492157842      117.71822888611311      108.45291127078583
H          128.69298175496581      118.30720340066748      107.21151841106482
H          129.97987668225059      119.50186138956367      107.33438267583030
C          129.67801983324617      116.57536669932189      109.19981369416838
H          130.94675927851702      117.30491909579929      107.62758398502876
H          131.05713889195266      118.21372967694154      109.13425233984445
C          128.86940006503329      115.66435070241214      108.27972182674456
H          130.43933570871056      115.96718749321563      109.69136682982537
H          129.02504296780882      116.97228714221846      109.97591840211783
N          128.49593997399325      114.44586766411034      108.96076354595112
H          127.94339953012368      116.14799883465287      107.96008436536292
H          129.46636192528001      115.41451200053883      107.39204506691721
C          127.26206425660493      113.92532883864098      108.93656802187948
H          129.18521513415999      114.05463434891867      109.59635337642388
O          125.22082860007215      121.50435919386926      108.76549274301181
C          127.12902035667700      112.64162237094823      109.73411719882917
C          127.25945337776865      111.43926327259001      108.79191190216162
H          127.89771080058685      112.60273748316276      110.50614069582592
H          126.14681718261468      112.62082332105483      110.20590506880229
C          127.25519596242907      110.12915530496377      109.57575797487880
H          126.42811028219694      111.45165267463275      108.08372393335185
H          128.18656339789737      111.52453808547507      108.22154623485802
C          127.08535202469244      108.90124478200548      108.67365041516797
H          128.18487524006278      110.04042373302866      110.14115856245220
H          126.43085901838886      110.14984422129461      110.29169198400575
C          128.26679846975952      108.75454139658842      107.73637547098345
H          127.03644750294740      108.00803615193443      109.29884681573606
H          126.16156441638098      109.00264598029355      108.10591395404198
N          128.07726677121880      109.22371052944301      106.50709837948494
C          129.11582997438879      109.24119957552161      105.49894414588312
H          127.17080769925900      109.60150109380407      106.23634474631967
O          126.34040449090971      114.39570652070451      108.27831072139313
C          128.74814027959442      110.19056710312204      104.36559772299741
H          130.05416114240649      109.54474635162107      105.97501406513783
H          129.26000654842932      108.22751344507914      105.10449721953742
C          128.58722080199996      111.63641984163280      104.83354171656194
H          129.52616341298079      110.13596266191450      103.60271084279078
H          127.81086377569396      109.85736537923026      103.91664803615488
C          128.28070327293477      112.56280883946793      103.65893327857681
H          127.77474505436706      111.69138414506187      105.55732188902377
H          129.50598474735989      111.96435981318784      105.32458978096297
C          128.10993008247331      114.02540816164360      104.06816308304458
H          129.09546295359311      112.49680939160977      102.93452583648100
H          127.36920603515998      112.22458329962230      103.16280411543990
C          126.80665631530559      114.28823211249222      104.82407358994617
H          128.95491874920603      114.33311332453147      104.68767849900063
H          128.10778491840597      114.64692312043880      103.16982921486375
N          126.62368895604975      115.70708955041202      105.04038018242669
H          125.95181283027263      113.94898582101996      104.23597441635600
H          126.79718485445849      113.77958124843465      105.79204600419860
C          125.56005497625404      116.40494370998699      104.61614140473932
H          127.31019792340948      116.16241659647177      105.62013005259706
O          129.32580814907251      108.23569385033046      108.10191757335541
C          125.58597294231656      117.88316623762486      104.96924637035234
C          124.68083171733748      118.16480097315180      106.17321558493369
H          126.60313633484976      118.21365577303266      105.18043529127220
H          125.20635704447504      118.43525773664982      104.10802497797710
C          125.21326442742684      117.55100628751083      107.46360347281525
H          124.58777984284865      119.24530945869785      106.30687169001723
H          123.68832324302815      117.76255583237689      105.95870807228454
C          124.34318929901599      117.92949488139396      108.66601610587719
H          125.25692358640261      116.46235509368974      107.38143382185925
H          126.22428387790229      117.91970165465628      107.65114866076271
C          124.91193713921584      117.27371698797489      109.90486802652545
H          124.36376284384130      119.01553886623121      108.79048852265194
H          123.31720567310751      117.60112645498737      108.50888091836032
N          124.20670343262222      116.25321545762382      110.39179241398469
O          124.63811359550471      115.90296315372994      103.98579071083050
C          124.68080604466638      115.47126942745429      111.51426684432354
H          123.28467729806120      116.02912231852397      110.02619108316129
C          123.93959465321166      114.14847139417228      111.62384433106342
H          125.75207512414084      115.30017354463293      111.37221275548947
H          124.55392258619237      116.05054944092166      112.43722307967224
C          124.43512595475080      113.32528262445003      112.81326958662167
H          122.87396990631613      114.35690808569917      111.72474260907507
H          124.07809728708519      113.58593893249599      110.70068153224459
C          123.46287895660724      112.20938227285127      113.20083856045113
H          125.40409316490516      112.88737691407789      112.56439279628378
H          124.59293993730986      113.98239268166090      113.67046738129639
C          122.20157562884673      112.72517817777708      113.89446599976999
H          123.18182812369210      111.66281173883461      112.29818594412609
H          123.97108933830764      111.50858272980255      113.86664676929678
C          122.45494463697712      113.19153654331946      115.32142883874268
H          121.77722809595805      113.55593732417184      113.33109066786636
H          121.45769316242600      111.93081376827534      113.92560994317466
N          121.27917913978386      113.85433689886672      115.84892933893083
H          122.67849082628717      112.34444098303221      115.97540178897044
H          123.31369509302426      113.87147197198185      115.37258286572504
C          121.12012804240402      114.03251122404021      117.16215366716638
H          120.71159131736680      114.37712313324333      115.18645354917528
O          125.97377884221918      117.64582766573110      110.40999585052955
C          119.89022315561523      114.80950236946391      117.58621764315451
C          120.21361985747831      116.30682237637669      117.64555777756300
H          119.06950803532874      114.62336274686011      116.89430527058576
H          119.61587109912421      114.45987056333757      118.58216456675540
C          119.20171602335165      117.08237375817647      118.48375000677626
H          121.20645153933059      116.43361989797590      118.07648154760174
H          120.23555827294804      116.71312146809252      116.63283766657725
C          119.40181119939757      118.60099263170980      118.41065674201704
H          118.19484308371096      116.86052082160016      118.12280815728667
H          119.26918260516511      116.75485634742988      119.52178118678718
C          120.70605927588946      119.09567927509978      119.00574309024903
H          119.41157444068381      118.89660320696517      117.35955232197672
H          118.57519057792376      119.09205101680654      118.92206724945446
N          120.59394958960709      119.73655103938098      120.17234842331105
C          121.69625151753678      120.47209277415635      120.76040238404462
H          119.66576718692824      119.93211079146610      120.53785152059696
O          121.91316437781920      113.57978108802720      117.98493296633505
C          121.50141398199051      120.70938563066852      122.25325557251371
H          122.61934948960327      119.91797232637491      120.57185448966055
H          121.78384290152616      121.43853562316028      120.24945155722206
C          122.42650337555027      121.80647171903843      122.78453529972431
H          120.46271256878194      120.98467222500030      122.43780306500774
H          121.70132459209951      119.78566036970736      122.79701817280588
C          122.04244421537304      123.21502072896999      122.33546274304761
H          122.42037051927782      121.77049409287493      123.87485173147121
H          123.44621368762721      121.59726620370404      122.45706571931986
C          123.05510590874570      124.25859627931088      122.80390787297020
H          121.97044099149329      123.25477135033246      121.24784238704284
H          121.06422395623017      123.48360463665456      122.73768722708726
C          122.65766459216852      125.66024379752758      122.34787094850030
H          123.10720239250341      124.25522296958805      123.89343170420076
H          124.04994829485720      124.01580858752125      122.42140743903819
N          122.71823599181096      125.73869015876954      120.90234896292766
H          121.64281946177303      125.87566497181882      122.68947762134152
H          123.34034740667668      126.39775277175856      122.78806037368680
C          122.15548349453768      126.62798346855561      120.07830389921365
H          123.33716873148629      125.06933982882758      120.46173582903636
O          121.79151496917328      118.94688387030510      118.43879142920056
C          121.29057679962413      127.71556730261375      120.68091827350851
C          119.83376234784754      127.26917548481971      120.87209669658962
H          121.70894944663149      128.05056741678069      121.62901228804293
H          121.30732729017235      128.54953736905367      119.97528677435470
C          118.91729589644132      128.48551640010450      121.00359760156898
H          119.52690225277152      126.67664546394191      120.00742873647516
H          119.73798592276120      126.64146302343777      121.75911917410532
C          117.44012680621429      128.09801640750030      121.11980027707368
H          119.20906058308358      129.05442228327689      121.88946644891327
H          119.04892439877109      129.12732904008723      120.12987168942711
C          116.58659942196172      129.32361817031702      121.40089885904828
H          117.10612665530509      127.62902776117069      120.19230113970116
H          117.30936709428602      127.39025811924610      121.94047084000380
N          116.61220509818561      130.25941930861578      120.45030753979306
O          122.34493312249361      126.55629596348544      118.86412608616814
C          116.04272294609592      131.58111419507387      120.60884330645801
H          117.09787967226508      130.07647405343369      119.57484278553602
C          115.31098518466867      132.03521007761609      119.34861020591605
H          115.36624847095086      131.55317983589777      121.46661565006777
H          116.85386074678728      132.28113396414767      120.83707476602794
C          114.97628759618175      133.52747683293555      119.37354584132244
H          115.94269639362342      131.81875495114627      118.48486266262988
H          114.38878718790301      131.46195547077693      119.24475236103625
C          116.19868671078810      134.41616118046821      119.14956895435053
H          114.24810873985436      133.73477515383541      118.58730056124483
H          114.51324900159727      133.78021724295101      120.32908624857674
C          115.82950420790600      135.89664274680106      119.12348469754764
H          116.93117669676857      134.25304515550775      119.94157148386510
H          116.67163539465800      134.14505601583468      118.20259429734857
C          117.05455522797777      136.78356062388934      118.91155277452795
H          115.11104862217917      136.08245563164110      118.32160806622126
H          115.35742062406923      136.18000000828533      120.06501751335456
N          116.67832398113313      138.18974432711471      118.97900467164027
H          117.77944579010295      136.60077602278497      119.71072271479407
H          117.53692722900553      136.51101012250004      117.95582561923855
H          117.49470122989042      138.77422857432597      118.84135599819309
H          116.02061220161227      138.40276523947378      118.23656015944805
O          115.92470008008222      129.43735318963465      122.43203676115722
C          109.34407781146540       92.28426403721791      117.40130382906187
C          108.09696096303117       92.92106719824785      117.97215982401219
C          109.75262510482398       92.87726172194631      116.04744529836427
C          108.72392057821568       92.58618686913790      114.95813010777330
H          109.88879733340632       93.95476859908939      116.14551701273041
H          110.70975164927286       92.43902785553803      115.75986168661366
C          109.18860924485034       93.06667925322898      113.58328893979481
H          108.54045269643119       91.51093681440966      114.89920535894903
H          107.77285097197331       93.06249194754844      115.20971610157657
C          108.24576250249281       92.58550074053457      112.48952112080264
H          109.27244554075713       94.15231771548544      113.54708375553056
H          110.17027846321123       92.63632166877981      113.36902388785060
N          107.92698488563492       93.51180867044677      111.58192736854902
O          108.24647203493201       94.20796887169790      118.21191148104049
O          107.07097629057610       92.31813532130801      118.20842323207410
H          107.41873825185515       94.64136297275570      118.60892619807045
H          109.16539531920341       91.21345578971405      117.30421355659415
H          110.14624890383989       92.45229723945549      118.12228130488081
C          107.06624329785988       93.24197347667855      110.44624872719342
H          108.31607559390513       94.44637962545876      111.65878313020988
C          106.50292225986186       94.54489301273676      109.89450562390070
H          107.63171462015137       92.71013753158290      109.67023262021057
H          106.26801710834704       92.57175848647788      110.78303200564385
C          105.48849950901642       94.30953269215389      108.77428844611329
H          106.02443107985306       95.09319489555166      110.70651255162180
H          107.33660312862737       95.14671659231314      109.53192364538714
C          104.62599303890133       95.54221812490012      108.49847928820309
H          106.00936127883456       94.00877853901964      107.86369695605451
H          104.83174703661354       93.48654657753595      109.06420396953372
C          105.43623683130556       96.73316126593616      107.98959009455305
H          103.86492627798052       95.28314994573516      107.75974216230026
H          104.11425848136683       95.81821955356833      109.42199543896204
C          104.59146682872259       97.99713333524201      107.85696382529353
H          106.25551038399453       96.93572664840845      108.67878099682075
H          105.86498805883957       96.49242770285103      107.01657017456455
N          104.19213122155367       98.45789943584032      109.16976778542299
H          105.18669218883016       98.76906321877074      107.35728428153995
H          103.70679304801520       97.79489885525560      107.24752911953294