3795
 energy: -5103.642421830965 gnorm: 0.000868662277 xtb: 6.6.1 (8d0f1dd)
C          121.33831807185737       98.40475544279153      121.03520582323145
C          120.81118952214896       99.28676453191397      122.14123948400496
C          120.31094019247337       98.16553097504422      119.92904812045484
C          119.91460397907106       99.45663394750093      119.20979325318353
H          120.72597571576969       97.46385390504877      119.20489092703977
H          119.42222850337798       97.71273463581667      120.37008754564249
C          120.96346244857972       99.90998482383060      118.19171662473529
H          118.97889384145077       99.29315865918153      118.67093659088739
H          119.74465178392606      100.24763052398731      119.93998216866154
C          120.90218746072860       98.99118766619675      116.98567397975063
H          120.72733677835926      100.92229001929005      117.85716097685534
H          121.96341248470907       99.89844361025054      118.61923483876015
N          122.04531218494898       98.37472610894423      116.67172251001517
O          119.49941011085303       99.27930015226430      122.23364450550443
O          121.52326368466090       99.93056189032096      122.88574394940977
H          119.12346748198006       99.92117007946497      122.89083837941766
H          121.61686936114046       97.45230671734105      121.49257580564354
H          122.25161754244121       98.85269380286046      120.64056863079227
C          122.09755421043016       97.38373644047822      115.61484677496900
H          122.87935946008230       98.55256276458643      117.21838108740296
C          123.39436015407111       96.58035803839684      115.63136563781754
H          121.23312458161507       96.72262235481143      115.75142217743715
H          121.98210506875837       97.88250862323962      114.64430433942883
C          124.46550622155300       97.18236017915827      114.72233978853620
H          123.76096428502444       96.51397131982324      116.65770027781919
H          123.17970192907204       95.56739186423614      115.28712249851915
C          125.72556410513621       96.31070995261277      114.66685601747518
H          124.05103701953105       97.27494161088738      113.71525176624169
H          124.71553838175313       98.18783202908000      115.06680140718844
C          126.42307702115380       96.38337644949758      113.30888115892859
H          126.41928292544711       96.60876235363982      115.45540313701900
H          125.44599769795600       95.27109231657892      114.84725734727198
C          126.99864401390252       97.76410904904489      113.00600164998205
H          127.22440430562247       95.64273001788456      113.26864148607133
H          125.70131145772359       96.14580352980497      112.52633428917731
N          128.11122815896059       98.08551371846009      113.87237414042679
H          127.33386633583589       97.79991341793622      111.96432370850839
H          126.23651708062229       98.52591121962969      113.15600730364257
C          128.20170027120955       99.17777645755781      114.64595368609423
H          128.86321963993450       97.41332410549563      113.89394347964324
O          119.85676483281907       98.80435951755044      116.36860506375490
C          129.48906318957606       99.21588202201029      115.45457118146764
C          129.52308970896496      100.33751284489554      116.48795029627188
H          129.60409100053528       98.25478198149796      115.96095316446355
H          130.32361668328645       99.32858869911614      114.75861977965145
C          130.68757839880746      100.14132480172869      117.45674294971874
H          129.60648561428098      101.30214182511037      115.98360950026880
H          128.58330040340672      100.33957545825497      117.04220974972704
C          130.81530612480219      101.27547291141802      118.47007765850721
H          130.54026553577469       99.20703827868762      118.00256244842606
H          131.62055183551556      100.06572514769020      116.89486105705043
C          129.59623042303679      101.40906643048260      119.36128926615743
H          131.66628855531701      101.08058424706654      119.12803495785424
H          130.99573132662925      102.23187351602118      117.97855870758177
N          129.45180408358863      102.61717350111485      119.91362540828126
C          128.40599776703462      102.88493529797152      120.87913974551502
H          130.10170346297190      103.35500898349167      119.68254603646402
O          127.34387685902863      100.05076794384031      114.68759140738875
C          128.69692051453927      104.10286486687041      121.74312957015036
H          127.44881161787883      103.00815625339958      120.35905301720666
H          128.33582104426543      101.99822345575299      121.51737276814731
C          128.83645396025304      105.42206102877093      120.97940604077422
H          127.88017058136562      104.19521157697199      122.46183802839346
H          129.61513170841451      103.92269588952021      122.30525369659922
C          127.62245307881180      105.78271137469814      120.11086053881810
H          128.99311784313380      106.20343734861494      121.72547671136047
H          129.72786587757113      105.38956211142286      120.34969001910122
C          127.84499335401219      105.43221547369687      118.63858154425900
H          126.73493304840525      105.26909255010725      120.48445410211697
H          127.42895820582832      106.85397425469490      120.18638189989025
C          126.62333926899301      105.70041052208731      117.77284954915643
N          126.34860110608182      107.11820449820434      117.65792688016585
H          126.77412593199992      105.29605608409328      116.76394640329400
H          125.74371188631284      105.19519897480269      118.19126751153161
C          125.33879106265074      107.57831258977514      116.91669791298573
H          126.90883683668220      107.76356462396950      118.20194316555836
O          128.80439486344227      100.49204354796520      119.56656598468781
C          125.13907256075076      109.07511239905023      116.95675365053228
C          124.35308901762284      109.42724551089337      118.22273312614793
H          126.10658149183526      109.57535531557495      116.96819164594788
H          124.58782266648679      109.37213287167479      116.06369481818592
C          123.90512823836373      110.88489499545818      118.26206839986035
H          123.47323132396070      108.78377527447975      118.28877485819714
H          124.97709463548119      109.22433250927371      119.09554597394413
C          122.73776734545598      111.17751001040104      117.31531582823293
H          123.59674520340366      111.12308987775710      119.28193068967238
H          124.74989671555568      111.52630559990061      118.00759197087571
C          121.50027835475797      110.39482945870610      117.71597739010167
H          122.48434182969969      112.23791692178452      117.39015102905719
H          123.01042223757217      110.93298130369374      116.28976928355787
N          121.18386231841272      109.37509974982262      116.90676568792814
C          120.00999830573748      108.55634687542863      117.10848369487027
H          121.75346940844838      109.20238503527916      116.09004854290370
H          128.68535212417640      106.01715319127209      118.25752104726466
H          128.10981123005888      104.37965258882585      118.53968066343671
O          124.60445070904186      106.83086249614199      116.27096092579949
O          120.83911650190781      110.69093735746077      118.70599656267163
C          120.33989881999612      107.11904998592216      117.53758964303708
H          119.43285981683206      109.05311177212688      117.89314086997072
H          119.41692691468465      108.55169960275036      116.18915956713933
C          120.36314053692851      106.10912989268124      116.39083918765489
H          121.30813394758651      107.11990235298200      118.04156008685470
H          119.59106580648817      106.79467888895539      118.26216378375243
C          121.46475918149892      106.35538729425403      115.35990121050946
H          120.51227712996106      105.11585681107861      116.82125390070971
H          119.39097900193337      106.10916225686573      115.89284351216136
C          121.59504246392531      105.14713738011697      114.42997642245612
H          121.24160826695794      107.25022326506755      114.77734826687393
H          122.40657092581694      106.51954483936734      115.88379768134462
C          122.51503677303657      105.34893900866062      113.23023693321960
H          121.94908958132324      104.29257548703528      115.00594357460164
H          120.61265579842417      104.89205610986984      114.02739634358818
N          123.81801459206649      105.86693138039561      113.58238034652152
H          122.66192898071812      104.39028541006320      112.72487745990901
H          122.04648982269022      106.04639111404946      112.52336516538664
C          124.93678631856956      105.62301280050652      112.89271958871619
H          123.87295688635020      106.44547855591405      114.40932651258005
C          126.10486512298863      106.49911255731388      113.31174142319988
C          127.41616644760842      105.74497458373919      113.50882776486303
H          126.23902901043240      107.22823694845574      112.50769337609307
H          125.83716754042203      107.04177899360849      114.21479008034093
C          128.60519678224514      106.70117063247089      113.57569999858876
H          127.35892961770719      105.15381798983999      114.42645981757468
H          127.55962314911793      105.05192222967236      112.67859968619928
C          128.58020131377387      107.58205832558926      114.82817009034267
H          129.53136251350122      106.12529128219427      113.55638175214891
H          128.59671429590804      107.34568720281996      112.69379778355197
C          129.73884801467116      108.55698708105747      114.79148029357243
H          127.64397319576160      108.13431781920785      114.87648074508053
H          128.66982071195332      106.95670444731888      115.71867545757509
N          129.40154254027999      109.80788106077119      114.48534238351205
C          130.34158908634870      110.90949122692184      114.43867169707961
H          128.42148817343372      110.01900341004506      114.31212887206649
O          125.00557840153579      104.82704013750146      111.95851591336535
C          129.89631177083280      111.98636998912576      113.45445693215773
H          130.43473701353702      111.34018916252519      115.44381823343984
H          131.31373685760764      110.50142403942654      114.15316884123200
C          130.21178281695481      111.61816292459342      112.00584974989758
H          128.82059439743603      112.13348386278017      113.57028725550768
H          130.40268338661090      112.91692988915084      113.71096601511404
C          129.55789966473444      112.56064738887945      110.99599685631478
H          131.29454570036810      111.62953382551272      111.86467737707564
H          129.85825544128821      110.60334714148937      111.80953919021476
C          130.13874132141734      113.97397914614484      111.00209116123852
H          129.67497042708723      112.13172544915690      109.99846687237076
H          128.48706706315676      112.61434177240427      111.20538100527523
C          129.45208460779290      114.82037676957056      109.93924763323099
H          129.98555114559164      114.43173202883682      111.97815043975638
H          131.21298952955499      113.93717770849595      110.81821673802423
N          129.90578529739861      116.19857437085589      109.95531752366067
H          129.63530358170968      114.40148145071214      108.94386241700501
H          128.36871989850010      114.80213928338142      110.10805266786585
O          130.89940453700351      108.20281919145445      115.01368033331198
C          129.62186153975682      117.04879815505157      108.96508910242319
H          130.47061276727641      116.48651577720490      110.74976488221495
C          130.10011036058859      118.47038351720292      109.16584002621471
C          129.08595286277537      119.28614335368405      109.97973526970455
H          131.06138458728537      118.46786138797570      109.68045722101319
H          130.22231212108917      118.92599501561362      108.18152807675827
C          127.69108115577895      119.33758796487137      109.35528172288265
H          129.00555216103791      118.86756633387738      110.98306149546274
H          129.47691899104260      120.29895836416824      110.07578097851223
C          126.77776922936388      120.30436515724028      110.11365536370120
H          127.75574852963477      119.61567658764078      108.30217165645088
H          127.24525127768197      118.34213165272389      109.38834784455351
C          127.29205264936046      121.73384960737141      110.18823589559211
H          125.79078942215750      120.31946345520949      109.64947111279452
H          126.65268104391751      119.96584449682570      111.14420171991121
N          127.98440347589347      122.15080910467017      109.12520586006282
O          128.98241090261621      116.71973112717806      107.96688411317072
C          128.79086729051076      123.35460449417437      109.07609752562594
H          127.92103634707634      121.62546744369405      108.26294891324491
C          129.11991844865261      123.68990147803000      107.62661595761516
H          128.25555452663562      124.17553097005764      109.56039991415689
H          129.71721007266527      123.18538728384910      109.64027601147164
C          130.05638736981345      122.65539451433754      106.99543694243775
H          128.18663834863349      123.71433456897411      107.06078110019028
H          129.57176674700469      124.68012410176040      107.57573640446606
C          130.00243234004668      122.71924333150304      105.47186350566835
H          131.08172692859469      122.81536696255679      107.33358513837587
H          129.75272657573370      121.65701633953603      107.30743422085091
C          130.84418494769602      121.64381493764122      104.78581808750350
H          128.96422632629995      122.60134930035471      105.15904724323410
H          130.35057623184699      123.69878833617052      105.14005615202353
C          130.25964635032972      120.24311652827517      104.95888191205744
H          130.88100563608236      121.86466443112366      103.71653803921895
H          131.86624834610640      121.67657666168594      105.17040373936740
N          130.98922837644716      119.30683287307811      104.13039619615823
H          130.32080109995951      119.92149342031797      106.00350728115130
H          129.20303474581544      120.24649788797933      104.67451442692490
C          130.69707770198008      118.04168304200881      103.84553576870458
H          131.83023396784415      119.66917702181520      103.69777186660490
O          127.07903728430428      122.43726166311799      111.17455836276704
C          129.45036763930420      117.44008623772558      104.44430516285078
C          129.09479743325889      116.10437945758419      103.78817191972844
H          129.60451336761389      117.30721748463311      105.51936704654578
H          128.62670279181648      118.14506472116031      104.32388843951770
C          128.17512792748931      115.23204807721254      104.63945574368552
H          128.60420234211074      116.31282200064665      102.83526227803816
H          130.01204687088480      115.55358786320524      103.57417206550183
C          128.93797990376206      114.41843171080623      105.69185535923313
H          127.44063813141192      115.86742220928710      105.13569260851129
H          127.63559460091035      114.54322833773001      103.98631840831190
C          127.92466708424688      113.67246736973239      106.53857000029807
H          129.60367636058328      113.70333854894598      105.20757255773518
H          129.52345261630339      115.08531157723871      106.32417156613076
N          127.29213027886044      114.45916794538385      107.41287019608993
C          126.13943437952243      114.05393110149021      108.18208492241131
H          127.67102017741199      115.38785669742997      107.57653110057311
O          131.47691486771788      117.38667369255764      103.13163590794466
C          125.18761737598743      115.22722077014903      108.39737006402268
H          125.64943159347581      113.24430214942204      107.63408965195514
H          126.44779695755322      113.65991661111431      109.15958765433209
C          124.73803955733182      115.90229522212006      107.09076729132686
H          124.32513578926269      114.84786467820855      108.94240845187896
H          125.68660625401679      115.96343294841094      109.02818176323682
C          125.29200649746436      117.32323091258912      106.96917898367144
H          125.07364060421610      115.30843669299128      106.23846207830350
H          123.65009077424247      115.93982229694578      107.05822965451256
C          124.94640176151080      118.01498416535587      105.64952365753547
H          124.90143068642065      117.92370236184485      107.79313429198987
H          126.37937516639404      117.29379789165199      107.06185618962931
C          123.45055253547119      118.26223209282823      105.48258893493033
H          125.46831684235171      118.97379820754678      105.61055746928487
H          125.30320031636697      117.41417621851330      104.80922831580216
N          123.19322809820902      119.06381117643312      104.30181684315231
H          122.91814241523369      117.31034570394199      105.39775384325395
H          123.04313963801802      118.80206400881896      106.34029299777693
C          122.12588894731780      119.86064387615311      104.17015198950186
H          123.82836377446903      118.95386772261737      103.52411980833809
O          127.67782599019030      112.47757171419990      106.39872641545939
C          122.04835180356328      120.61743776582506      102.85381156257770
C          120.81626968239928      120.16936531903585      102.06010019430521
H          121.96925712707377      121.68006069198721      103.09329547722474
H          122.95837462974086      120.46281244357651      102.27813020921749
C          121.01812380923870      118.81136451835027      101.38461678903521
H          119.97331434870738      120.09816110278994      102.75107022347939
H          120.56538474504630      120.91489527250621      101.30322728345598
C          121.84519676632533      118.93162559137443      100.10001880372072
H          121.51417698287656      118.13480712472773      102.08018741186855
H          120.04751827821426      118.38566242750176      101.13213061780139
C          122.24271363649852      117.58385586360234       99.54194009332909
H          121.26065135380699      119.46421380967861       99.34837089510573
H          122.75532832065335      119.49563680121948      100.30329360510437
N          121.27965700607457      116.89438713370228       98.94450210250542
O          121.27078093003762      119.98166178036757      105.03925640974956
C          121.52954645364356      115.67631497076825       98.19970825876527
H          120.34149815712567      117.28501488662887       98.89109820903910
C          120.45823035803436      114.60942040798562       98.40275512013460
H          121.58155564081230      115.92447842262521       97.13304172098742
H          122.50727224918536      115.29536019616842       98.50497706500131
C          120.75130543789588      113.41758966025104       97.48985944215561
H          120.44926440282551      114.28956924936151       99.44607072289588
H          119.48029110562294      115.03483654623841       98.17288682252335
C          119.83836153569420      112.20908974044384       97.69616075186022
H          120.67227188967277      113.74316215698836       96.45032434217718
H          121.78243688691344      113.09247250286525       97.64689808065239
C          118.38086430196434      112.46839989442337       97.31574477868327
H          120.22390354629100      111.39526512978907       97.07720012921537
H          119.88430652306195      111.87953305079682       98.73352390370474
C          117.60188050101715      111.17776714867730       97.09678216212264
H          117.88970475256515      113.05473991464739       98.09361715929474
H          118.34348983554322      113.03863529733651       96.38606333258519
N          117.50025348012565      110.38213788219981       98.30544805397466
H          116.58852287805394      111.40681882963922       96.74211142002756
H          118.08377754129988      110.56473302411354       96.32651804945422
C          117.10319207435546      109.10721090317939       98.28356296941979
H          117.79520126065768      110.79299530670130       99.18133839010081
O          123.40616535096837      117.15624699138631       99.63604397558993
C          116.94149278376904      108.45496225676894       99.63733501428976
C          115.43913030617388      108.25373155430209       99.90645508495319
H          117.44558699496407      107.48649348695068       99.61807939789055
H          117.40036014670980      109.08366288456088      100.39717693108014
C          115.04590951481713      108.47347921996993      101.36661018410629
H          114.86244905072091      108.94653018978853       99.28878420776951
H          115.16227011860148      107.24406266729464       99.59623362580172
C          115.07662675564039      109.94262652759049      101.77410792357375
H          114.03045547405679      108.10166743938576      101.51439140279587
H          115.71274681146237      107.90163152082411      102.01211727122163
C          114.03911567579902      110.79195449189768      101.05421754822757
H          114.86906427352353      110.03134518280402      102.84396733442360
H          116.05754274452065      110.38046790281143      101.58743646564339
N          114.25158832330897      112.10116005232553      101.20441083403226
C          113.45918605497418      113.12467984624621      100.55660756291689
H          115.03929136190494      112.40566544600189      101.77136667733274
O          116.83663389241653      108.51519964693522       97.23584946042540
C          114.36932846929794      114.20118056570479       99.97154762589599
H          112.87980784029776      112.63593836279938       99.76800492842136
H          112.75177087074873      113.55544724413818      101.27129834974890
C          113.62921097360990      115.17969113349208       99.05972405960294
H          114.85489318570460      114.73651625494283      100.78901073097202
H          115.15317849457769      113.71049850287250       99.38888759780301
C          112.46505778195984      115.91300004321171       99.72611750669513
H          114.34719715373183      115.91450928847233       98.68623217118136
H          113.24158467657792      114.62811271463040       98.20038782379082
C          112.89591751073280      116.75854597611675      100.91911370951468
H          111.99581951412694      116.56032670476151       98.98138295337681
H          111.71804190892173      115.19071832710914      100.05680972795085
C          111.72967570788965      117.57147571300499      101.47720799966635
H          113.26403381254126      116.10749399053742      101.71314167180245
H          113.70135936457729      117.43645563447808      100.62938484353374
N          112.12047631304202      118.27227952045884      102.67807825193692
H          111.38541532315452      118.31417680965420      100.75293873787909
H          110.90301578472940      116.88991220705117      101.70487665105176
C          112.20289483770618      119.60602991744354      102.79032760941499
H          112.54536918889200      117.70073743121924      103.40854129529646
O          113.09601505635007      110.32086034390908      100.42198797290730
C          112.85467177875870      120.05307984783859      104.08350388411779
C          112.10778002486521      121.16950744640897      104.81069658819926
H          112.96017575242217      119.18740102935273      104.73641034728847
H          113.85400314897662      120.40870924822826      103.82304373194550
C          112.67534104328448      121.33662261180795      106.21651892368038
H          112.20938173389892      122.10085064328995      104.25326036032178
H          111.04029358772779      120.93563737347486      104.85840013816905
C          111.96507180102702      122.41597488807332      107.03421062135376
H          112.60246684515276      120.38285085525381      106.74449613792449
H          113.72984977531158      121.59753877894649      106.13485777071968
C          112.21992039237979      123.80020238379717      106.46777700401952
H          110.88793379807800      122.23891864949185      107.05286456622211
H          112.35330389246235      122.38784748973850      108.05368662715672
N          113.48138893648229      124.19549834849705      106.53340504545402
O          111.77372512404644      120.38322129688706      101.94005181148738
C          113.99734474407103      125.45099020231964      106.03829200006938
H          114.16817404127495      123.56770820469303      106.94483945248874
C          115.13010508302229      125.93081105453996      106.93650374066250
H          114.35842906347281      125.31725369542045      105.01148307938369
H          113.19578380538088      126.19293411127525      106.03395851658959
C          115.62982875536561      127.31845388988663      106.54673822852618
H          114.75959825604710      125.96580994916471      107.96308532941275
H          115.94854025655503      125.20917118553743      106.88776635274262
C          116.78727965000071      127.75517392098965      107.44155001516566
H          115.95488212278380      127.31166954252124      105.50404114888185
H          114.80260733491279      128.02605124851138      106.63232945576617
C          117.26225887262505      129.17536095943618      107.15663954088478
H          116.47298766317388      127.69354788230045      108.48585592095577
H          117.62864937376942      127.07204094800018      107.30247395871845
C          118.43484557127317      129.56086428937803      108.06974944128639
H          117.57755376583555      129.25287549048483      106.11237622839587
H          116.43458411978479      129.87463758509497      107.30631369222674
N          118.96747946523979      130.89810562244492      107.85751792308689
H          118.11494583375926      129.50033737538155      109.11426632259989
H          119.25254285710747      128.84931523485164      107.92401772778332
H          118.22502775789262      131.58044034796839      107.97101836049295
H          119.30740680365253      130.98141396102270      106.90553216847297
O          111.29975098728528      124.49558559192434      106.01694562327567
C          111.99141355373645       96.13074670392410      113.75912853951372
C          111.96801297315342       95.21968504549980      114.95828711712051
C          111.26768294858834       97.45076978506664      114.03262817645931
C          111.93157355386134       98.28494419872277      115.12869170717961
H          111.21664814263649       98.03324395159584      113.11143936171861
H          110.24820559326287       97.22089242111724      114.34835974801206
C          113.28408442979243       98.87311836540577      114.73071892011042
H          111.26330940050511       99.11245175419219      115.36899533813028
H          112.04128960312156       97.67322356608560      116.02590380275592
C          113.14139536700566      100.08789081840389      113.83003168640030
H          113.83034286896259       99.19318083995918      115.62509801404232
H          113.89820366645350       98.13375503692598      114.21722212041522
N          114.25780570718815      100.42074230114137      113.18658558950079
O          113.14610983421710       94.63477274009419      115.16389165688059
O          111.00827920783159       95.00129755838583      115.66000612075261
H          113.11515731168004       94.00350646856320      115.90403029402677
H          111.47627256596751       95.60282875677869      112.95307678051903
H          113.02732624456772       96.28412361937698      113.46156681471017
C          114.36322432609970      101.49918666972722      112.22773959109844
H          115.13537803328920       99.94875443248820      113.39772445738915
C          115.40846210933738      101.15787270316429      111.17507697390666
H          113.37903769285931      101.66117416331149      111.78014989483167
H          114.66911096095133      102.42173231408256      112.73086682877435
C          115.04219999030408       99.93637215124564      110.33806601678717
H          115.55636364400297      102.02792807537890      110.53547152530534
H          116.34761601635249      100.95885898478210      111.69081304685800
C          116.24746718085865       99.45129248832717      109.53915855779709
H          114.69765183181573       99.13417677758702      110.99388838903876
H          114.23230065167029      100.18990698537304      109.65146435674396
C          115.87805760664807       98.34960554598395      108.55144515706951
H          116.67354994552497      100.29609223908331      108.99546826359280
H          117.01115226888618       99.09024314579439      110.23120589322849
C          117.08643634151431       97.82257278424302      107.78830059057985
H          115.41136166542752       97.51756214653268      109.08033147324383
H          115.16578145332747       98.75297787958286      107.82909629234824
N          117.69241604356988       98.86817994656201      106.99161640284504
H          117.85420862879906       97.44848909924204      108.47076931520827
H          116.77995548874334       96.99939272393712      107.13147729510207