      -----------------------------------------------------------      
     |                   =====================                   |     
     |                           x T B                           |     
     |                   =====================                   |     
     |                         S. Grimme                         |     
     |          Mulliken Center for Theoretical Chemistry        |     
     |                    University of Bonn                     |     
      -----------------------------------------------------------      

   * xtb version 6.6.1 (8d0f1dd) compiled by 'stahn@M-Bot' on 2023-08-01

   xtb is free software: you can redistribute it and/or modify it under
   the terms of the GNU Lesser General Public License as published by
   the Free Software Foundation, either version 3 of the License, or
   (at your option) any later version.
   
   xtb is distributed in the hope that it will be useful,
   but WITHOUT ANY WARRANTY; without even the implied warranty of
   MERCHANTABILITY or FITNESS FOR A PARTICULAR PURPOSE.  See the
   GNU Lesser General Public License for more details.
   
   Cite this work as:
   * C. Bannwarth, E. Caldeweyher, S. Ehlert, A. Hansen, P. Pracht,
     J. Seibert, S. Spicher, S. Grimme, WIREs Comput. Mol. Sci., 2020, 11,
     e01493. DOI: 10.1002/wcms.1493
   
   for GFN2-xTB:
   * C. Bannwarth, S. Ehlert and S. Grimme., J. Chem. Theory Comput., 2019,
     15, 1652-1671. DOI: 10.1021/acs.jctc.8b01176
   for GFN1-xTB:
   * S. Grimme, C. Bannwarth, P. Shushkov, J. Chem. Theory Comput., 2017,
     13, 1989-2009. DOI: 10.1021/acs.jctc.7b00118
   for GFN0-xTB:
   * P. Pracht, E. Caldeweyher, S. Ehlert, S. Grimme, ChemRxiv, 2019, preprint.
     DOI: 10.26434/chemrxiv.8326202.v1
   for GFN-FF:
   * S. Spicher and S. Grimme, Angew. Chem. Int. Ed., 2020, 59, 15665-15673.
     DOI: 10.1002/anie.202004239
   
   for ALPB and GBSA implicit solvation:
   * S. Ehlert, M. Stahn, S. Spicher, S. Grimme, J. Chem. Theory Comput.,
     2021, 17, 4250-4261. DOI: 10.1021/acs.jctc.1c00471
   
   for DFT-D4:
   * E. Caldeweyher, C. Bannwarth and S. Grimme, J. Chem. Phys., 2017,
     147, 034112. DOI: 10.1063/1.4993215
   * E. Caldeweyher, S. Ehlert, A. Hansen, H. Neugebauer, S. Spicher,
     C. Bannwarth and S. Grimme, J. Chem. Phys., 2019, 150, 154122.
     DOI: 10.1063/1.5090222
   * E. Caldeweyher, J.-M. Mewes, S. Ehlert and S. Grimme, Phys. Chem. Chem. Phys.
     2020, 22, 8499-8512. DOI: 10.1039/D0CP00502A
   
   for sTDA-xTB:
   * S. Grimme and C. Bannwarth, J. Chem. Phys., 2016, 145, 054103.
     DOI: 10.1063/1.4959605
   
   in the mass-spec context:
   * V. Asgeirsson, C. Bauer and S. Grimme, Chem. Sci., 2017, 8, 4879.
     DOI: 10.1039/c7sc00601b
   * J. Koopman and S. Grimme, ACS Omega 2019, 4, 12, 15120-15133.
     DOI: 10.1021/acsomega.9b02011
   
   for metadynamics refer to:
   * S. Grimme, J. Chem. Theory Comput., 2019, 155, 2847-2862
     DOI: 10.1021/acs.jctc.9b00143
   
   for SPH calculations refer to:
   * S. Spicher and S. Grimme, J. Chem. Theory Comput., 2021, 17, 1701-1714
     DOI: 10.1021/acs.jctc.0c01306
   
   with help from (in alphabetical order)
   P. Atkinson, C. Bannwarth, F. Bohle, G. Brandenburg, E. Caldeweyher
   M. Checinski, S. Dohm, S. Ehlert, S. Ehrlich, I. Gerasimov, C. Hölzer
   A. Katbashev, J. Koopman, C. Lavigne, S. Lehtola, F. März, M. Müller,
   F. Musil, H. Neugebauer, J. Pisarek, C. Plett, P. Pracht, F. Pultar,
   J. Seibert, P. Shushkov, S. Spicher, M. Stahn, M. Steiner, T. Strunk,
   J. Stückrath, T. Rose, and J. Unsleber
   
 * started run on 2024/10/04 at 13:27:57.214     

           -------------------------------------------------
          |                Calculation Setup                |
           -------------------------------------------------

          program call               : /home/abt-grimme/AK-bin/xtb input.xyz --input input.inp --opt
          hostname                   : boar069.thch.uni-bonn.de
          coordinate file            : input.xyz
          omp threads                :                     8

   ID    Z sym.   atoms
    1    6 C      1-90, 273-362, 545-634, 817-906, 1089-1178, 1361-1450,
                  1633-1722, 1905-1994, 2177-2266, 2449-2538, 2721-2810,
                  2993-3082, 3265-3354
    2    1 H      91-272, 363-544, 635-816, 907-1088, 1179-1360, 1451-1632,
                  1723-1904, 1995-2176, 2267-2448, 2539-2720, 2811-2992,
                  3083-3264, 3355-3536

molecular fragmentation (1/2 indicates fragments):
111111111111111111111111111111111111111111111111111111111111111111111111
111111111111111111111111111111111111111111111111111111111111111111111111
111111111111111111111111111111111111111111111111111111111111111111111111
111111111111111111111111111111111111111111111111111111112222222222222222
222222222222222222222222222222222222222222222222222222222222222222222222
222222222222222222222222222222222222222222222222222222222222222222222222
222222222222222222222222222222222222222222222222222222222222222222222222
222222222222222222222222222222222222222222222222222222222222222222222222
222222222222222222222222222222222222222222222222222222222222222222222222
222222222222222222222222222222222222222222222222222222222222222222222222
222222222222222222222222222222222222222222222222222222222222222222222222
222222222222222222222222222222222222222222222222222222222222222222222222
222222222222222222222222222222222222222222222222222222222222222222222222
222222222222222222222222222222222222222222222222222222222222222222222222
222222222222222222222222222222222222222222222222222222222222222222222222
222222222222222222222222222222222222222222222222222222222222222222222222
222222222222222222222222222222222222222222222222222222222222222222222222
222222222222222222222222222222222222222222222222222222222222222222222222
222222222222222222222222222222222222222222222222222222222222222222222222
222222222222222222222222222222222222222222222222222222222222222222222222
222222222222222222222222222222222222222222222222222222222222222222222222
222222222222222222222222222222222222222222222222222222222222222222222222
222222222222222222222222222222222222222222222222222222222222222222222222
222222222222222222222222222222222222222222222222222222222222222222222222
222222222222222222222222222222222222222222222222222222222222222222222222
222222222222222222222222222222222222222222222222222222222222222222222222
222222222222222222222222222222222222222222222222222222222222222222222222
222222222222222222222222222222222222222222222222222222222222222222222222
222222222222222222222222222222222222222222222222222222222222222222222222
222222222222222222222222222222222222222222222222222222222222222222222222
222222222222222222222222222222222222222222222222222222222222222222222222
222222222222222222222222222222222222222222222222222222222222222222222222
222222222222222222222222222222222222222222222222222222222222222222222222
222222222222222222222222222222222222222222222222222222222222222222222222
222222222222222222222222222222222222222222222222222222222222222222222222
222222222222222222222222222222222222222222222222222222222222222222222222
222222222222222222222222222222222222222222222222222222222222222222222222
222222222222222222222222222222222222222222222222222222222222222222222222
222222222222222222222222222222222222222222222222222222222222222222222222
222222222222222222222222222222222222222222222222222222222222222222222222
222222222222222222222222222222222222222222222222222222222222222222222222
222222222222222222222222222222222222222222222222222222222222222222222222
222222222222222222222222222222222222222222222222222222222222222222222222
222222222222222222222222222222222222222222222222222222222222222222222222
222222222222222222222222222222222222222222222222222222222222222222222222
222222222222222222222222222222222222222222222222222222222222222222222222
222222222222222222222222222222222222222222222222222222222222222222222222
222222222222222222222222222222222222222222222222222222222222222222222222
222222222222222222222222222222222222222222222222222222222222222222222222
22222222
# atoms in fragment 1/2:   272  3264
 fragment masses (1/2) :     1264.41    15172.94
CMA distance (Bohr)    :  18.208
constraining FC (au)   :  0.0500

           -------------------------------------------------
          |                 G F N 2 - x T B                 |
           -------------------------------------------------

        Reference                      10.1021/acs.jctc.8b01176
      * Hamiltonian:
        H0-scaling (s, p, d)           1.850000    2.230000    2.230000
        zeta-weighting                 0.500000
      * Dispersion:
        s8                             2.700000
        a1                             0.520000
        a2                             5.000000
        s9                             5.000000
      * Repulsion:
        kExp                           1.500000    1.000000
        rExp                           1.000000
      * Coulomb:
        alpha                          2.000000
        third order                    shell-resolved
        anisotropic                    true
        a3                             3.000000
        a5                             4.000000
        cn-shift                       1.200000
        cn-exp                         4.000000
        max-rad                        5.000000


          ...................................................
          :                      SETUP                      :
          :.................................................:
          :  # basis functions                7046          :
          :  # atomic orbitals                7046          :
          :  # shells                         4706          :
          :  # electrons                      7046          :
          :  max. iterations                   250          :
          :  Hamiltonian                  GFN2-xTB          :
          :  restarted?                      false          :
          :  GBSA solvation                  false          :
          :  PC potential                    false          :
          :  electronic temp.          300.0000000     K    :
          :  accuracy                    1.0000000          :
          :  -> integral cutoff          0.2500000E+02      :
          :  -> integral neglect         0.1000000E-07      :
          :  -> SCF convergence          0.1000000E-05 Eh   :
          :  -> wf. convergence          0.1000000E-03 e    :
          :  Broyden damping             0.4000000          :
          ...................................................

 iter      E             dE          RMSdq      gap      omega  full diag
   1  -3766.6533045 -0.376665E+04  0.226E+00   11.44       0.0  T
   2  -3771.7384722 -0.508517E+01  0.126E+00   11.40       1.0  T
   3  -3771.9504424 -0.211970E+00  0.559E-01   11.40       1.0  T
   4  -3771.9721663 -0.217239E-01  0.144E-01   11.41       1.0  T
   5  -3771.9922891 -0.201228E-01  0.511E-02   11.41       1.0  T
   6  -3771.9923109 -0.217482E-04  0.720E-03   11.42       1.0  T
   7  -3771.9923425 -0.316084E-04  0.152E-03   11.42       1.1  T
   8  -3771.9923444 -0.187808E-05  0.545E-04   11.42       3.1  T
   9  -3771.9923444 -0.948094E-07  0.182E-04   11.42       9.2  T
  10  -3771.9923445 -0.158420E-07  0.692E-05   11.42      24.3  T

   *** convergence criteria satisfied after 10 iterations ***

         #    Occupation            Energy/Eh            Energy/eV
      -------------------------------------------------------------
         1        2.0000           -0.6274125             -17.0728
       ...           ...                  ...                  ...
      3517        2.0000           -0.3954422             -10.7605
      3518        2.0000           -0.3953516             -10.7581
      3519        2.0000           -0.3950944             -10.7511
      3520        2.0000           -0.3949637             -10.7475
      3521        2.0000           -0.3946675             -10.7394
      3522        2.0000           -0.3943591             -10.7311
      3523        2.0000           -0.3942843             -10.7290 (HOMO)
      3524                          0.0252142               0.6861 (LUMO)
      3525                          0.0279845               0.7615
      3526                          0.0286168               0.7787
      3527                          0.0299940               0.8162
      3528                          0.0300749               0.8184
       ...                                ...                  ...
      7046                          0.3804522              10.3526
      -------------------------------------------------------------
                  HL-Gap            0.4194985 Eh           11.4151 eV
             Fermi-level           -0.1845351 Eh           -5.0215 eV

 SCC (total)                   0 d,  0 h, 15 min, 55.160 sec
 SCC setup                      ...        0 min,  0.487 sec (  0.051%)
 Dispersion                     ...        0 min,  4.114 sec (  0.431%)
 classical contributions        ...        0 min,  0.135 sec (  0.014%)
 integral evaluation            ...        0 min,  7.271 sec (  0.761%)
 iterations                     ...       11 min, 39.091 sec ( 73.191%)
 molecular gradient             ...        3 min, 53.891 sec ( 24.487%)
 printout                       ...        0 min, 10.170 sec (  1.065%)

         :::::::::::::::::::::::::::::::::::::::::::::::::::::
         ::                     SUMMARY                     ::
         :::::::::::::::::::::::::::::::::::::::::::::::::::::
         :: total energy           -3716.232852069126 Eh    ::
         :: gradient norm              0.018873081036 Eh/a0 ::
         :: HOMO-LUMO gap             11.415134557149 eV    ::
         ::.................................................::
         :: SCC energy             -3771.992344464463 Eh    ::
         :: -> isotropic ES            0.587337997092 Eh    ::
         :: -> anisotropic ES          1.293590804626 Eh    ::
         :: -> anisotropic XC          2.078082254444 Eh    ::
         :: -> dispersion             -4.523068999229 Eh    ::
         :: repulsion energy          55.101605205081 Eh    ::
         :: add. restraining           0.000000000000 Eh    ::
         :: total charge              -0.000000000010 e     ::
         :::::::::::::::::::::::::::::::::::::::::::::::::::::

      ----------------------------------------------------------- 
     |              Fast Inertial Relaxation Engine              |
      ----------------------------------------------------------- 

          ...................................................
          :                      SETUP                      :
          :.................................................:
          :   energy convergence        0.5000000E-05 Eh    :
          :   grad. convergence         0.1000000E-02 Eh/a0 :
          :   optimization log               true           :
          :   writing optlog all                1     steps :
          :   Hessian reset                    20     steps :
          :   time step scaling                 5     steps :
          :   maximium step len.        1.0000000     a0    :
          :   initial time step         0.2500000     fs    :
          :   maximum time step         1.2500000     fs    :
          :   power reset thr           0.0000000     au    :
          :   alpha parameter           0.1000000           :
          :   BFGS update                   false           :
          :   preconditioning               false           :
          ...................................................

........................................................................
.............................. CYCLE    1 ..............................
........................................................................

 iter      E             dE          RMSdq      gap      omega  full diag
   1  -3771.9958156 -0.377200E+04  0.253E-04   11.42       0.0  T
   2  -3771.9958157 -0.276832E-07  0.149E-04   11.42      11.3  T
   3  -3771.9958157 -0.467935E-09  0.485E-05   11.42      34.6  T
     SCC iter.                  ...        3 min, 33.564 sec
     gradient                   ...        3 min, 52.584 sec
 * total energy  : -3716.2328923 Eh     change    :  -0.4019067E-04 Eh
   gradient norm :     0.0174745 Eh/a0  converged?    E=F G=F D=F
   time step     :     0.2500000 fs     power     :   0.2050763E-08
   step length   :     0.0022119 a0     speed     :   0.2140117E-03

........................................................................
.............................. CYCLE    2 ..............................
........................................................................

 iter      E             dE          RMSdq      gap      omega  full diag
   1  -3772.0008658 -0.377200E+04  0.370E-04   11.42       0.0  T
   2  -3772.0008658 -0.561381E-07  0.220E-04   11.42       7.7  T
   3  -3772.0008658 -0.861746E-09  0.682E-05   11.42      24.7  T
     SCC iter.                  ...        3 min, 29.159 sec
     gradient                   ...        3 min, 53.051 sec
 * total energy  : -3716.2329455 Eh     change    :  -0.5322761E-04 Eh
   gradient norm :     0.0154698 Eh/a0  converged?    E=F G=F D=F
   time step     :     0.2500000 fs     power     :   0.2651165E-08
   step length   :     0.0032356 a0     speed     :   0.3130595E-03

........................................................................
.............................. CYCLE    3 ..............................
........................................................................

 iter      E             dE          RMSdq      gap      omega  full diag
   1  -3772.0072704 -0.377201E+04  0.474E-04   11.42       0.0  T
   2  -3772.0072705 -0.901305E-07  0.281E-04   11.42       6.0  T
   3  -3772.0072705 -0.141790E-08  0.860E-05   11.42      19.6  T
     SCC iter.                  ...        3 min, 24.731 sec
     gradient                   ...        3 min, 51.680 sec
 * total energy  : -3716.2330042 Eh     change    :  -0.5868994E-04 Eh
   gradient norm :     0.0129881 Eh/a0  converged?    E=F G=F D=F
   time step     :     0.2500000 fs     power     :   0.2831743E-08
   step length   :     0.0041403 a0     speed     :   0.4005935E-03

........................................................................
.............................. CYCLE    4 ..............................
........................................................................

 iter      E             dE          RMSdq      gap      omega  full diag
   1  -3772.0147344 -0.377201E+04  0.560E-04   11.42       0.0  T
   2  -3772.0147346 -0.122700E-06  0.332E-04   11.42       5.1  T
   3  -3772.0147346 -0.190721E-08  0.997E-05   11.42      16.9  T
     SCC iter.                  ...        3 min, 29.184 sec
     gradient                   ...        3 min, 52.360 sec
 * total energy  : -3716.2330602 Eh     change    :  -0.5603657E-04 Eh
   gradient norm :     0.0102350 Eh/a0  converged?    E=F G=F D=F
   time step     :     0.2500000 fs     power     :   0.2587191E-08
   step length   :     0.0048943 a0     speed     :   0.4735513E-03

........................................................................
.............................. CYCLE    5 ..............................
........................................................................

 iter      E             dE          RMSdq      gap      omega  full diag
   1  -3772.0228844 -0.377202E+04  0.625E-04   11.42       0.0  T
   2  -3772.0228845 -0.147167E-06  0.371E-04   11.42       4.5  T
   3  -3772.0228845 -0.222326E-08  0.108E-04   11.42      15.5  T
     SCC iter.                  ...        3 min, 30.517 sec
     gradient                   ...        3 min, 52.212 sec
 * total energy  : -3716.2331065 Eh     change    :  -0.4625014E-04 Eh
   gradient norm :     0.0075646 Eh/a0  converged?    E=F G=F D=F
   time step     :     0.2500000 fs     power     :   0.1990181E-08
   step length   :     0.0054705 a0     speed     :   0.5292991E-03

........................................................................
.............................. CYCLE    6 ..............................
........................................................................

 iter      E             dE          RMSdq      gap      omega  full diag
   1  -3772.0321080 -0.377203E+04  0.737E-04   11.42       0.0  T
   2  -3772.0321082 -0.192628E-06  0.438E-04   11.42       3.8  T
   3  -3772.0321082 -0.288264E-08  0.122E-04   11.42      13.8  T
     SCC iter.                  ...        3 min, 30.569 sec
     gradient                   ...        3 min, 53.210 sec
 * total energy  : -3716.2331407 Eh     change    :  -0.3424506E-04 Eh
   gradient norm :     0.0055462 Eh/a0  converged?    E=F G=F D=F
   time step     :     0.2750000 fs     power     :   0.1098662E-08
   step length   :     0.0064650 a0     speed     :   0.5686550E-03

........................................................................
.............................. CYCLE    7 ..............................
........................................................................

 iter      E             dE          RMSdq      gap      omega  full diag
   1  -3772.0415046 -0.377204E+04  0.823E-04   11.42       0.0  T
   2  -3772.0415048 -0.206605E-06  0.490E-04   11.42       3.4  T
   3  -3772.0415048 -0.294494E-08  0.122E-04   11.42      13.8  T
     SCC iter.                  ...        3 min, 29.614 sec
     gradient                   ...        3 min, 52.112 sec
 * total energy  : -3716.2331572 Eh     change    :  -0.1646837E-04 Eh
   gradient norm :     0.0056686 Eh/a0  converged?    E=F G=F D=F
   time step     :     0.3025000 fs     power     :   0.1683494E-09
   step length   :     0.0072145 a0     speed     :   0.5768910E-03

........................................................................
.............................. CYCLE    8 ..............................
........................................................................

 iter      E             dE          RMSdq      gap      omega  full diag
   1  -3772.0495510 -0.377205E+04  0.849E-04   11.42       0.0  T
   2  -3772.0495512 -0.163316E-06  0.506E-04   11.42       3.3  T
   3  -3772.0495512 -0.235650E-08  0.101E-04   11.42      16.6  T
     SCC iter.                  ...        3 min, 31.036 sec
     gradient                   ...        3 min, 53.575 sec
 * total energy  : -3716.2331579 Eh     change    :  -0.7403273E-06 Eh
   gradient norm :     0.0073533 Eh/a0  converged?    E=T G=F D=F
   time step     :     0.3327500 fs     power     :  -0.4015235E-09
   step length   :     0.0074122 a0     speed     :   0.5388209E-03

........................................................................
.............................. CYCLE    9 ..............................
........................................................................
 * reset velocities

 iter      E             dE          RMSdq      gap      omega  full diag
   1  -3772.0492749 -0.377205E+04  0.295E-05   11.42       0.0  T
   2  -3772.0492749 -0.117598E-08  0.141E-05   11.42     118.9  T
   3  -3772.0492749 -0.115051E-09  0.778E-06   11.42     216.1  T
     SCC iter.                  ...        3 min, 24.995 sec
     gradient                   ...        3 min, 51.872 sec
 * total energy  : -3716.2331593 Eh     change    :  -0.1397194E-05 Eh
   gradient norm :     0.0072341 Eh/a0  converged?    E=T G=F D=T
   time step     :     0.1663750 fs     power     :   0.1101058E-09
   step length   :     0.0001908 a0     speed     :   0.2774578E-04

........................................................................
.............................. CYCLE   10 ..............................
........................................................................

 iter      E             dE          RMSdq      gap      omega  full diag
   1  -3772.0487271 -0.377205E+04  0.452E-05   11.42       0.0  T
   2  -3772.0487271 -0.579803E-09  0.268E-05   11.42      62.7  T
   3  -3772.0487271 -0.181899E-10  0.738E-06   11.42     227.8  T
     SCC iter.                  ...        3 min, 25.894 sec
     gradient                   ...        3 min, 52.891 sec
 * total energy  : -3716.2331620 Eh     change    :  -0.2693034E-05 Eh
   gradient norm :     0.0069929 Eh/a0  converged?    E=T G=F D=T
   time step     :     0.1663750 fs     power     :   0.2111158E-09
   step length   :     0.0003786 a0     speed     :   0.5504132E-04

........................................................................
.............................. CYCLE   11 ..............................
........................................................................

 iter      E             dE          RMSdq      gap      omega  full diag
   1  -3772.0479190 -0.377205E+04  0.655E-05   11.42       0.0  T
   2  -3772.0479190 -0.138607E-08  0.388E-05   11.42      43.3  T
   3  -3772.0479190  0.591172E-11  0.108E-05   11.42     156.4  T
     SCC iter.                  ...        3 min, 23.892 sec
     gradient                   ...        3 min, 52.730 sec
 * total energy  : -3716.2331658 Eh     change    :  -0.3819273E-05 Eh
   gradient norm :     0.0066410 Eh/a0  converged?    E=T G=F D=T
   time step     :     0.1663750 fs     power     :   0.2964676E-09
   step length   :     0.0005600 a0     speed     :   0.8142423E-04

........................................................................
.............................. CYCLE   12 ..............................
........................................................................

 iter      E             dE          RMSdq      gap      omega  full diag
   1  -3772.0468676 -0.377205E+04  0.856E-05   11.42       0.0  T
   2  -3772.0468676 -0.228056E-08  0.508E-05   11.42      33.1  T
   3  -3772.0468676 -0.477485E-10  0.139E-05   11.42     121.2  T
     SCC iter.                  ...        3 min, 26.893 sec
     gradient                   ...        3 min, 51.748 sec
 * total energy  : -3716.2331705 Eh     change    :  -0.4693570E-05 Eh
   gradient norm :     0.0061888 Eh/a0  converged?    E=T G=F D=T
   time step     :     0.1663750 fs     power     :   0.3608683E-09
   step length   :     0.0007323 a0     speed     :   0.1064691E-03

........................................................................
.............................. CYCLE   13 ..............................
........................................................................

 iter      E             dE          RMSdq      gap      omega  full diag
   1  -3772.0455958 -0.377205E+04  0.104E-04   11.42       0.0  T
   2  -3772.0455958 -0.327873E-08  0.618E-05   11.42      27.2  T
   3  -3772.0455958  0.118234E-10  0.167E-05   11.42     100.9  T
     SCC iter.                  ...        3 min, 31.037 sec
     gradient                   ...        3 min, 52.931 sec
 * total energy  : -3716.2331758 Eh     change    :  -0.5281578E-05 Eh
   gradient norm :     0.0056526 Eh/a0  converged?    E=F G=F D=T
   time step     :     0.1663750 fs     power     :   0.4007890E-09
   step length   :     0.0008926 a0     speed     :   0.1297792E-03

........................................................................
.............................. CYCLE   14 ..............................
........................................................................

 iter      E             dE          RMSdq      gap      omega  full diag
   1  -3772.0441322 -0.377204E+04  0.121E-04   11.42       0.0  T
   2  -3772.0441322 -0.428872E-08  0.717E-05   11.42      23.5  T
   3  -3772.0441322 -0.682121E-10  0.191E-05   11.42      88.2  T
     SCC iter.                  ...        3 min, 28.571 sec
     gradient                   ...        3 min, 51.505 sec
 * total energy  : -3716.2331813 Eh     change    :  -0.5527907E-05 Eh
   gradient norm :     0.0050538 Eh/a0  converged?    E=F G=F D=F
   time step     :     0.1663750 fs     power     :   0.4147027E-09
   step length   :     0.0010386 a0     speed     :   0.1509994E-03

........................................................................
.............................. CYCLE   15 ..............................
........................................................................

 iter      E             dE          RMSdq      gap      omega  full diag
   1  -3772.0423312 -0.377204E+04  0.150E-04   11.42       0.0  T
   2  -3772.0423312 -0.655973E-08  0.891E-05   11.42      18.9  T
   3  -3772.0423312 -0.700311E-10  0.234E-05   11.42      71.8  T
     SCC iter.                  ...        3 min, 34.253 sec
     gradient                   ...        3 min, 52.961 sec
 * total energy  : -3716.2331874 Eh     change    :  -0.6033235E-05 Eh
   gradient norm :     0.0043548 Eh/a0  converged?    E=F G=F D=F
   time step     :     0.1830125 fs     power     :   0.4007804E-09
   step length   :     0.0012991 a0     speed     :   0.1717076E-03

........................................................................
.............................. CYCLE   16 ..............................
........................................................................

 iter      E             dE          RMSdq      gap      omega  full diag
   1  -3772.0401843 -0.377204E+04  0.182E-04   11.42       0.0  T
   2  -3772.0401843 -0.942464E-08  0.108E-04   11.42      15.5  T
   3  -3772.0401843 -0.268301E-10  0.277E-05   11.42      60.8  T
     SCC iter.                  ...        3 min, 35.959 sec
     gradient                   ...        3 min, 51.314 sec
 * total energy  : -3716.2331935 Eh     change    :  -0.6106071E-05 Eh
   gradient norm :     0.0036057 Eh/a0  converged?    E=F G=F D=F
   time step     :     0.2013138 fs     power     :   0.3547788E-09
   step length   :     0.0015888 a0     speed     :   0.1909046E-03

........................................................................
.............................. CYCLE   17 ..............................
........................................................................

 iter      E             dE          RMSdq      gap      omega  full diag
   1  -3772.0377287 -0.377204E+04  0.215E-04   11.42       0.0  T
   2  -3772.0377287 -0.122664E-07  0.128E-04   11.42      13.2  T
   3  -3772.0377287 -0.723048E-10  0.312E-05   11.42      53.9  T
     SCC iter.                  ...        3 min, 28.935 sec
     gradient                   ...        3 min, 52.480 sec
 * total energy  : -3716.2331991 Eh     change    :  -0.5615809E-05 Eh
   gradient norm :     0.0029419 Eh/a0  converged?    E=F G=F D=F
   time step     :     0.2214451 fs     power     :   0.2786685E-09
   step length   :     0.0018966 a0     speed     :   0.2071708E-03

........................................................................
.............................. CYCLE   18 ..............................
........................................................................

 iter      E             dE          RMSdq      gap      omega  full diag
   1  -3772.0350922 -0.377204E+04  0.244E-04   11.41       0.0  T
   2  -3772.0350922 -0.142090E-07  0.145E-04   11.41      11.6  T
   3  -3772.0350922 -0.136879E-09  0.328E-05   11.41      51.3  T
     SCC iter.                  ...        3 min, 26.333 sec
     gradient                   ...        3 min, 52.520 sec
 * total energy  : -3716.2332036 Eh     change    :  -0.4550049E-05 Eh
   gradient norm :     0.0026223 Eh/a0  converged?    E=T G=F D=F
   time step     :     0.2435896 fs     power     :   0.1865109E-09
   step length   :     0.0021983 a0     speed     :   0.2182951E-03

........................................................................
.............................. CYCLE   19 ..............................
........................................................................

 iter      E             dE          RMSdq      gap      omega  full diag
   1  -3772.0325415 -0.377203E+04  0.262E-04   11.41       0.0  T
   2  -3772.0325415 -0.136529E-07  0.156E-04   11.41      10.8  T
   3  -3772.0325415 -0.103682E-09  0.306E-05   11.41      54.9  T
     SCC iter.                  ...        3 min, 27.459 sec
     gradient                   ...        3 min, 52.080 sec
 * total energy  : -3716.2332069 Eh     change    :  -0.3302121E-05 Eh
   gradient norm :     0.0028138 Eh/a0  converged?    E=T G=F D=F
   time step     :     0.2679486 fs     power     :   0.1079134E-09
   step length   :     0.0024508 a0     speed     :   0.2212459E-03

........................................................................
.............................. CYCLE   20 ..............................
........................................................................

 iter      E             dE          RMSdq      gap      omega  full diag
   1  -3772.0304241 -0.377203E+04  0.268E-04   11.41       0.0  T
   2  -3772.0304241 -0.103259E-07  0.159E-04   11.41      10.6  T
   3  -3772.0304241 -0.225100E-09  0.246E-05   11.41      68.4  T
     SCC iter.                  ...        3 min, 28.807 sec
     gradient                   ...        3 min, 50.943 sec
 * total energy  : -3716.2332095 Eh     change    :  -0.2597333E-05 Eh
   gradient norm :     0.0032772 Eh/a0  converged?    E=T G=F D=F
   time step     :     0.2947435 fs     power     :   0.7329280E-10
   step length   :     0.0026336 a0     speed     :   0.2161299E-03
 * RMSD in coord.:     0.0006568 a0     energy gain  -0.3574659E-03 Eh

........................................................................
.............................. CYCLE   21 ..............................
........................................................................

 iter      E             dE          RMSdq      gap      omega  full diag
   1  -3772.0293297 -0.377203E+04  0.204E-04   11.41       0.0  T
   2  -3772.0293297 -0.362661E-08  0.121E-04   11.41      13.9  T
   3  -3772.0293297 -0.235559E-09  0.136E-05   11.41     124.0  T
     SCC iter.                  ...        3 min, 27.366 sec
     gradient                   ...        3 min, 52.485 sec
 * total energy  : -3716.2332117 Eh     change    :  -0.2189777E-05 Eh
   gradient norm :     0.0035732 Eh/a0  converged?    E=T G=F D=F
   time step     :     0.2500000 fs     power     :   0.9501140E-10
   step length   :     0.0021282 a0     speed     :   0.2059172E-03

........................................................................
.............................. CYCLE   22 ..............................
........................................................................

 iter      E             dE          RMSdq      gap      omega  full diag
   1  -3772.0289368 -0.377203E+04  0.188E-04   11.41       0.0  T
   2  -3772.0289368 -0.209684E-08  0.110E-04   11.41      15.2  T
   3  -3772.0289368 -0.157797E-09  0.109E-05   11.41     154.8  T
     SCC iter.                  ...        3 min, 28.621 sec
     gradient                   ...        3 min, 52.189 sec
 * total energy  : -3716.2332146 Eh     change    :  -0.2880093E-05 Eh
   gradient norm :     0.0036539 Eh/a0  converged?    E=T G=F D=F
   time step     :     0.2500000 fs     power     :   0.1387352E-09
   step length   :     0.0020561 a0     speed     :   0.1989433E-03

........................................................................
.............................. CYCLE   23 ..............................
........................................................................

 iter      E             dE          RMSdq      gap      omega  full diag
   1  -3772.0292021 -0.377203E+04  0.180E-04   11.41       0.0  T
   2  -3772.0292021 -0.220916E-08  0.105E-04   11.41      16.0  T
   3  -3772.0292021 -0.900400E-10  0.132E-05   11.41     127.7  T
     SCC iter.                  ...        3 min, 25.890 sec
     gradient                   ...        3 min, 50.991 sec
 * total energy  : -3716.2332183 Eh     change    :  -0.3660223E-05 Eh
   gradient norm :     0.0035034 Eh/a0  converged?    E=T G=F D=F
   time step     :     0.2500000 fs     power     :   0.1828962E-09
   step length   :     0.0020350 a0     speed     :   0.1968941E-03

........................................................................
.............................. CYCLE   24 ..............................
........................................................................

 iter      E             dE          RMSdq      gap      omega  full diag
   1  -3772.0300573 -0.377203E+04  0.181E-04   11.41       0.0  T
   2  -3772.0300573 -0.360569E-08  0.105E-04   11.41      16.0  T
   3  -3772.0300573  0.000000E+00  0.182E-05   11.41      92.5  T
     SCC iter.                  ...        3 min, 24.781 sec
     gradient                   ...        3 min, 52.680 sec
 * total energy  : -3716.2332225 Eh     change    :  -0.4253821E-05 Eh
   gradient norm :     0.0031469 Eh/a0  converged?    E=T G=F D=F
   time step     :     0.2500000 fs     power     :   0.2109654E-09
   step length   :     0.0020604 a0     speed     :   0.1993519E-03

........................................................................
.............................. CYCLE   25 ..............................
........................................................................

 iter      E             dE          RMSdq      gap      omega  full diag
   1  -3772.0314162 -0.377203E+04  0.187E-04   11.41       0.0  T
   2  -3772.0314162 -0.559430E-08  0.108E-04   11.41      15.6  T
   3  -3772.0314162 -0.150067E-10  0.230E-05   11.41      73.0  T
     SCC iter.                  ...        3 min, 26.443 sec
     gradient                   ...        3 min, 52.613 sec
 * total energy  : -3716.2332269 Eh     change    :  -0.4415077E-05 Eh
   gradient norm :     0.0026406 Eh/a0  converged?    E=T G=F D=F
   time step     :     0.2500000 fs     power     :   0.2136696E-09
   step length   :     0.0021163 a0     speed     :   0.2047615E-03

........................................................................
.............................. CYCLE   26 ..............................
........................................................................

 iter      E             dE          RMSdq      gap      omega  full diag
   1  -3772.0333745 -0.377203E+04  0.215E-04   11.41       0.0  T
   2  -3772.0333745 -0.935552E-08  0.123E-04   11.41      13.6  T
   3  -3772.0333745 -0.250111E-10  0.297E-05   11.41      56.6  T
     SCC iter.                  ...        3 min, 27.941 sec
     gradient                   ...        3 min, 52.474 sec
 * total energy  : -3716.2332314 Eh     change    :  -0.4469964E-05 Eh
   gradient norm :     0.0020294 Eh/a0  converged?    E=T G=F D=F
   time step     :     0.2750000 fs     power     :   0.1854878E-09
   step length   :     0.0024153 a0     speed     :   0.2124502E-03

........................................................................
.............................. CYCLE   27 ..............................
........................................................................

 iter      E             dE          RMSdq      gap      omega  full diag
   1  -3772.0358645 -0.377204E+04  0.240E-04   11.41       0.0  T
   2  -3772.0358645 -0.132900E-07  0.138E-04   11.41      12.2  T
   3  -3772.0358645 -0.190994E-10  0.348E-05   11.41      48.3  T
     SCC iter.                  ...        3 min, 45.281 sec
     gradient                   ...        3 min, 52.661 sec
 * total energy  : -3716.2332352 Eh     change    :  -0.3823788E-05 Eh
   gradient norm :     0.0015918 Eh/a0  converged?    E=T G=F D=F
   time step     :     0.3025000 fs     power     :   0.1295900E-09
   step length   :     0.0027501 a0     speed     :   0.2199031E-03

........................................................................
.............................. CYCLE   28 ..............................
........................................................................

 iter      E             dE          RMSdq      gap      omega  full diag
   1  -3772.0385982 -0.377204E+04  0.251E-04   11.41       0.0  T
   2  -3772.0385982 -0.140531E-07  0.145E-04   11.41      11.6  T
   3  -3772.0385982 -0.932232E-10  0.350E-05   11.41      48.0  T
     SCC iter.                  ...        3 min, 27.900 sec
     gradient                   ...        3 min, 52.524 sec
 * total energy  : -3716.2332379 Eh     change    :  -0.2719339E-05 Eh
   gradient norm :     0.0017451 Eh/a0  converged?    E=T G=F D=F
   time step     :     0.3327500 fs     power     :   0.7118109E-10
   step length   :     0.0030592 a0     speed     :   0.2223857E-03

........................................................................
.............................. CYCLE   29 ..............................
........................................................................

 iter      E             dE          RMSdq      gap      omega  full diag
   1  -3772.0410549 -0.377204E+04  0.237E-04   11.41       0.0  T
   2  -3772.0410549 -0.962518E-08  0.137E-04   11.41      12.3  T
   3  -3772.0410549 -0.100499E-09  0.278E-05   11.41      60.4  T
     SCC iter.                  ...        3 min, 26.123 sec
     gradient                   ...        3 min, 51.107 sec
 * total energy  : -3716.2332400 Eh     change    :  -0.2007254E-05 Eh
   gradient norm :     0.0022297 Eh/a0  converged?    E=T G=F D=F
   time step     :     0.3660250 fs     power     :   0.4745844E-10
   step length   :     0.0032619 a0     speed     :   0.2155622E-03

........................................................................
.............................. CYCLE   30 ..............................
........................................................................

 iter      E             dE          RMSdq      gap      omega  full diag
   1  -3772.0428068 -0.377204E+04  0.210E-04   11.41       0.0  T
   2  -3772.0428068 -0.380533E-08  0.122E-04   11.41      13.8  T
   3  -3772.0428068 -0.186446E-10  0.162E-05   11.41     103.8  T
     SCC iter.                  ...        3 min, 24.555 sec
     gradient                   ...        3 min, 51.269 sec
 * total energy  : -3716.2332424 Eh     change    :  -0.2435364E-05 Eh
   gradient norm :     0.0025468 Eh/a0  converged?    E=T G=F D=F
   time step     :     0.4026275 fs     power     :   0.6671911E-10
   step length   :     0.0034329 a0     speed     :   0.2062418E-03

........................................................................
.............................. CYCLE   31 ..............................
........................................................................

 iter      E             dE          RMSdq      gap      omega  full diag
   1  -3772.0435558 -0.377204E+04  0.192E-04   11.41       0.0  T
   2  -3772.0435558 -0.114187E-08  0.113E-04   11.41      14.9  T
   3  -3772.0435558 -0.102773E-09  0.877E-06   11.41     191.6  T
     SCC iter.                  ...        3 min, 31.000 sec
     gradient                   ...        3 min, 51.710 sec
 * total energy  : -3716.2332462 Eh     change    :  -0.3835505E-05 Eh
   gradient norm :     0.0024724 Eh/a0  converged?    E=T G=F D=F
   time step     :     0.4428903 fs     power     :   0.1059874E-09
   step length   :     0.0036974 a0     speed     :   0.2019373E-03

........................................................................
.............................. CYCLE   32 ..............................
........................................................................

 iter      E             dE          RMSdq      gap      omega  full diag
   1  -3772.0431556 -0.377204E+04  0.201E-04   11.41       0.0  T
   2  -3772.0431556 -0.491400E-08  0.121E-04   11.41      13.9  T
   3  -3772.0431556  0.468390E-10  0.182E-05   11.41      92.6  T
     SCC iter.                  ...        3 min, 33.692 sec
     gradient                   ...        3 min, 51.814 sec
 * total energy  : -3716.2332515 Eh     change    :  -0.5271025E-05 Eh
   gradient norm :     0.0020051 Eh/a0  converged?    E=F G=F D=F
   time step     :     0.4871793 fs     power     :   0.1281235E-09
   step length   :     0.0041358 a0     speed     :   0.2053461E-03

........................................................................
.............................. CYCLE   33 ..............................
........................................................................

 iter      E             dE          RMSdq      gap      omega  full diag
   1  -3772.0417566 -0.377204E+04  0.227E-04   11.41       0.0  T
   2  -3772.0417566 -0.139080E-07  0.138E-04   11.41      12.2  T
   3  -3772.0417566  0.545697E-11  0.336E-05   11.41      50.1  T
     SCC iter.                  ...        3 min, 32.065 sec
     gradient                   ...        3 min, 51.496 sec
 * total energy  : -3716.2332570 Eh     change    :  -0.5523629E-05 Eh
   gradient norm :     0.0015381 Eh/a0  converged?    E=F G=F D=F
   time step     :     0.5358972 fs     power     :   0.1091093E-09
   step length   :     0.0047391 a0     speed     :   0.2139088E-03

........................................................................
.............................. CYCLE   34 ..............................
........................................................................

 iter      E             dE          RMSdq      gap      omega  full diag
   1  -3772.0401464 -0.377204E+04  0.230E-04   11.41       0.0  T
   2  -3772.0401464 -0.174232E-07  0.142E-04   11.41      11.9  T
   3  -3772.0401464 -0.135060E-09  0.374E-05   11.41      45.0  T
     SCC iter.                  ...        3 min, 31.791 sec
     gradient                   ...        3 min, 51.414 sec
 * total energy  : -3716.2332616 Eh     change    :  -0.4625673E-05 Eh
   gradient norm :     0.0017574 Eh/a0  converged?    E=T G=F D=F
   time step     :     0.5894869 fs     power     :   0.7551838E-10
   step length   :     0.0053829 a0     speed     :   0.2208786E-03

........................................................................
.............................. CYCLE   35 ..............................
........................................................................

 iter      E             dE          RMSdq      gap      omega  full diag
   1  -3772.0396321 -0.377204E+04  0.211E-04   11.42       0.0  T
   2  -3772.0396321 -0.809587E-08  0.129E-04   11.42      13.0  T
   3  -3772.0396321 -0.909495E-10  0.213E-05   11.42      78.9  T
     SCC iter.                  ...        3 min, 31.732 sec
     gradient                   ...        3 min, 51.877 sec
 * total energy  : -3716.2332664 Eh     change    :  -0.4765063E-05 Eh
   gradient norm :     0.0020828 Eh/a0  converged?    E=T G=F D=F
   time step     :     0.6484356 fs     power     :   0.8130007E-10
   step length   :     0.0059310 a0     speed     :   0.2212470E-03

........................................................................
.............................. CYCLE   36 ..............................
........................................................................

 iter      E             dE          RMSdq      gap      omega  full diag
   1  -3772.0410845 -0.377204E+04  0.253E-04   11.42       0.0  T
   2  -3772.0410845 -0.310911E-08  0.149E-04   11.42      11.3  T
   3  -3772.0410845 -0.110504E-09  0.154E-05   11.42     109.0  T
     SCC iter.                  ...        3 min, 36.593 sec
     gradient                   ...        3 min, 52.729 sec
 * total energy  : -3716.2332730 Eh     change    :  -0.6579594E-05 Eh
   gradient norm :     0.0018321 Eh/a0  converged?    E=F G=F D=F
   time step     :     0.7132792 fs     power     :   0.1093382E-09
   step length   :     0.0066155 a0     speed     :   0.2243471E-03

........................................................................
.............................. CYCLE   37 ..............................
........................................................................

 iter      E             dE          RMSdq      gap      omega  full diag
   1  -3772.0444944 -0.377204E+04  0.337E-04   11.42       0.0  T
   2  -3772.0444945 -0.145337E-07  0.196E-04   11.42       8.6  T
   3  -3772.0444945 -0.195541E-10  0.352E-05   11.42      47.8  T
     SCC iter.                  ...        3 min, 27.341 sec
     gradient                   ...        3 min, 51.756 sec
 * total energy  : -3716.2332805 Eh     change    :  -0.7501334E-05 Eh
   gradient norm :     0.0014123 Eh/a0  converged?    E=F G=F D=F
   time step     :     0.7846071 fs     power     :   0.9995519E-10
   step length   :     0.0076026 a0     speed     :   0.2343831E-03

........................................................................
.............................. CYCLE   38 ..............................
........................................................................

 iter      E             dE          RMSdq      gap      omega  full diag
   1  -3772.0480560 -0.377205E+04  0.333E-04   11.42       0.0  T
   2  -3772.0480561 -0.178220E-07  0.194E-04   11.42       8.7  T
   3  -3772.0480561 -0.448381E-09  0.368E-05   11.42      45.7  T
     SCC iter.                  ...        3 min, 37.468 sec
     gradient                   ...        3 min, 52.532 sec
 * total energy  : -3716.2332872 Eh     change    :  -0.6727893E-05 Eh
   gradient norm :     0.0017454 Eh/a0  converged?    E=F G=F D=F
   time step     :     0.8630678 fs     power     :   0.7831679E-10
   step length   :     0.0086931 a0     speed     :   0.2436366E-03

........................................................................
.............................. CYCLE   39 ..............................
........................................................................

 iter      E             dE          RMSdq      gap      omega  full diag
   1  -3772.0490826 -0.377205E+04  0.269E-04   11.42       0.0  T
   2  -3772.0490826 -0.788987E-08  0.158E-04   11.42      10.6  T
   3  -3772.0490826 -0.346063E-09  0.275E-05   11.42      61.2  T
     SCC iter.                  ...        3 min, 26.212 sec
     gradient                   ...        3 min, 52.014 sec
 * total energy  : -3716.2332953 Eh     change    :  -0.8117406E-05 Eh
   gradient norm :     0.0016684 Eh/a0  converged?    E=F G=F D=F
   time step     :     0.9493746 fs     power     :   0.9871305E-10
   step length   :     0.0097470 a0     speed     :   0.2483407E-03

........................................................................
.............................. CYCLE   40 ..............................
........................................................................

 iter      E             dE          RMSdq      gap      omega  full diag
   1  -3772.0469365 -0.377205E+04  0.339E-04   11.42       0.0  T
   2  -3772.0469366 -0.237374E-07  0.202E-04   11.42       8.3  T
   3  -3772.0469366  0.157797E-09  0.497E-05   11.42      33.8  T
     SCC iter.                  ...        3 min, 35.026 sec
     gradient                   ...        3 min, 53.322 sec
 * total energy  : -3716.2333047 Eh     change    :  -0.9327935E-05 Eh
   gradient norm :     0.0013974 Eh/a0  converged?    E=F G=F D=F
   time step     :     1.0443120 fs     power     :   0.9019015E-10
   step length   :     0.0111907 a0     speed     :   0.2592051E-03

........................................................................
.............................. CYCLE   41 ..............................
........................................................................

 iter      E             dE          RMSdq      gap      omega  full diag
   1  -3772.0451254 -0.377205E+04  0.356E-04   11.42       0.0  T
   2  -3772.0451254 -0.134232E-07  0.211E-04   11.42       8.0  T
   3  -3772.0451254 -0.636646E-10  0.303E-05   11.42      55.5  T
     SCC iter.                  ...        3 min, 29.262 sec
     gradient                   ...        3 min, 53.125 sec
 * total energy  : -3716.2333140 Eh     change    :  -0.9344156E-05 Eh
   gradient norm :     0.0016444 Eh/a0  converged?    E=F G=F D=F
   time step     :     1.1487432 fs     power     :   0.8643241E-10
   step length   :     0.0127605 a0     speed     :   0.2686949E-03

........................................................................
.............................. CYCLE   42 ..............................
........................................................................

 iter      E             dE          RMSdq      gap      omega  full diag
   1  -3772.0472259 -0.377205E+04  0.408E-04   11.42       0.0  T
   2  -3772.0472260 -0.209338E-07  0.236E-04   11.42       7.1  T
   3  -3772.0472260 -0.813998E-10  0.468E-05   11.42      36.0  T
     SCC iter.                  ...        3 min, 24.746 sec
     gradient                   ...        3 min, 51.747 sec
 * total energy  : -3716.2333250 Eh     change    :  -0.1096008E-04 Eh
   gradient norm :     0.0013097 Eh/a0  converged?    E=F G=F D=F
   time step     :     1.2500000 fs     power     :   0.9046375E-10
   step length   :     0.0143805 a0     speed     :   0.2782782E-03
 * RMSD in coord.:     0.0017834 a0     energy gain  -0.1154340E-03 Eh

........................................................................
.............................. CYCLE   43 ..............................
........................................................................

 iter      E             dE          RMSdq      gap      omega  full diag
   1  -3772.0476801 -0.377205E+04  0.674E-05   11.42       0.0  T
   2  -3772.0476801 -0.466571E-09  0.397E-05   11.42      42.4  T
   3  -3772.0476801 -0.668479E-10  0.620E-06   11.42     271.1  T
     SCC iter.                  ...        3 min, 29.970 sec
     gradient                   ...        3 min, 52.926 sec
 * total energy  : -3716.2333269 Eh     change    :  -0.1961082E-05 Eh
   gradient norm :     0.0013155 Eh/a0  converged?    E=T G=F D=F
   time step     :     0.2500000 fs     power     :   0.1002335E-09
   step length   :     0.0027725 a0     speed     :   0.2682500E-03

........................................................................
.............................. CYCLE   44 ..............................
........................................................................

 iter      E             dE          RMSdq      gap      omega  full diag
   1  -3772.0480831 -0.377205E+04  0.639E-05   11.42       0.0  T
   2  -3772.0480831 -0.703494E-09  0.375E-05   11.42      44.9  T
   3  -3772.0480831  0.682121E-11  0.758E-06   11.42     221.8  T
     SCC iter.                  ...        3 min, 29.801 sec
     gradient                   ...        3 min, 53.232 sec
 * total energy  : -3716.2333290 Eh     change    :  -0.2098510E-05 Eh
   gradient norm :     0.0012361 Eh/a0  converged?    E=T G=F D=F
   time step     :     0.2500000 fs     power     :   0.1082519E-09
   step length   :     0.0026958 a0     speed     :   0.2608308E-03

........................................................................
.............................. CYCLE   45 ..............................
........................................................................

 iter      E             dE          RMSdq      gap      omega  full diag
   1  -3772.0483763 -0.377205E+04  0.726E-05   11.42       0.0  T
   2  -3772.0483763 -0.590717E-09  0.426E-05   11.42      39.4  T
   3  -3772.0483763 -0.804903E-10  0.768E-06   11.42     218.9  T
     SCC iter.                  ...        3 min, 36.121 sec
     gradient                   ...        3 min, 52.564 sec
 * total energy  : -3716.2333312 Eh     change    :  -0.2189097E-05 Eh
   gradient norm :     0.0011097 Eh/a0  converged?    E=T G=F D=F
   time step     :     0.2500000 fs     power     :   0.1106242E-09
   step length   :     0.0026494 a0     speed     :   0.2563400E-03

........................................................................
.............................. CYCLE   46 ..............................
........................................................................

 iter      E             dE          RMSdq      gap      omega  full diag
   1  -3772.0485287 -0.377205E+04  0.829E-05   11.42       0.0  T
   2  -3772.0485287 -0.659838E-09  0.487E-05   11.42      34.6  T
   3  -3772.0485287 -0.504770E-10  0.784E-06   11.42     214.4  T
     SCC iter.                  ...        3 min, 36.294 sec
     gradient                   ...        3 min, 52.182 sec
 * total energy  : -3716.2333333 Eh     change    :  -0.2124243E-05 Eh
   gradient norm :     0.0010056 Eh/a0  converged?    E=T G=F D=F
   time step     :     0.2500000 fs     power     :   0.1073316E-09
   step length   :     0.0026287 a0     speed     :   0.2543367E-03

........................................................................
.............................. CYCLE   47 ..............................
........................................................................

 iter      E             dE          RMSdq      gap      omega  full diag
   1  -3772.0485455 -0.377205E+04  0.881E-05   11.42       0.0  T
   2  -3772.0485455 -0.686668E-09  0.516E-05   11.42      32.6  T
   3  -3772.0485455 -0.245564E-10  0.747E-06   11.42     225.3  T
     SCC iter.                  ...        3 min, 38.139 sec
     gradient                   ...        3 min, 51.647 sec
 * total energy  : -3716.2333354 Eh     change    :  -0.2036932E-05 Eh
   gradient norm :     0.0009811 Eh/a0  converged?    E=T G=T D=F
   time step     :     0.2500000 fs     power     :   0.1021351E-09
   step length   :     0.0026202 a0     speed     :   0.2535150E-03

   *** GEOMETRY OPTIMIZATION CONVERGED AFTER 47 CYCLES ***

------------------------------------------------------------------------
 total energy gain   :        -0.0004833 Eh       -0.3033 kcal/mol
 total RMSD          :         0.0022812 a0        0.0012 Å
 total power (kW/mol):        -0.0269985 (step)   -0.0001 (real)
------------------------------------------------------------------------

 FIRE (total)                  0 d,  6 h,  3 min, 41.821 sec
 setup                          ...        0 min,  0.135 sec (  0.001%)
 velocities                     ...        0 min,  0.004 sec (  0.000%)
 propagation                    ...        0 min,  0.007 sec (  0.000%)
 singlepoint calculation        ...      363 min, 40.872 sec ( 99.996%)
 log and printout               ...        0 min,  0.742 sec (  0.003%)
 preconditioner                 ...        0 min,  0.000 sec (  0.000%)
 model hessian                  ...        0 min,  0.000 sec (  0.000%)
 hessian update                 ...        0 min,  0.000 sec (  0.000%)

================
 final structure:
================
3536
 xtb: 6.6.1 (8d0f1dd)
C           55.40090473211661       57.33931972115165       56.64067287134682
C           55.86138714662921       55.96815420617578       56.14967362860268
C           56.93404337704620       55.42509979927132       57.08937501487522
C           56.37930461233392       56.09178295492844       54.71473508592574
C           56.68604420250227       54.77271620695508       53.99466256523421
C           57.58893297344712       55.08047534695804       52.80252464712626
C           55.40389397974385       54.06938727500294       53.52899162976471
C           55.60933831193519       52.60885257219156       53.08101913841648
C           54.90616929098879       52.35520508425536       51.74723358437157
C           55.09411404925262       51.59681918998235       54.11369949802532
C           55.82554925418884       51.60310923751810       55.45955959271395
C           57.26236769041723       51.10191098404668       55.31065856558125
C           55.11014702982995       50.72016393708989       56.49308778913844
C           53.71431364263185       51.17686583085455       56.93413279874630
C           53.70418703090875       52.66138660544632       57.30558150660534
C           53.21962176949231       50.38011903897073       58.15251586704449
C           53.20652010370745       48.85075285036067       58.04393927892358
C           52.37957991029947       48.38995259340616       56.84450859933319
C           52.61687443443866       48.23252088387149       59.32458074605863
C           53.51154230785030       48.34813569992620       60.57053843452446
C           54.45275990519173       47.15194039271766       60.69440107395032
C           52.72743888384320       48.60165924186747       61.87318936124781
C           52.03813999206569       47.41732282506851       62.56350634136035
C           51.01369267647757       46.71468540861897       61.67388866290899
C           51.31428965126285       47.89175138567386       63.83551319465414
C           52.18113146815623       48.45418254684910       64.96940342164703
C           53.19024063823571       47.41624084490299       65.45852221586206
C           51.29658405397614       48.89047344833804       66.14937137432460
C           50.48685458359486       50.17345790721138       65.92768180162933
C           51.39094550050184       51.40605854321272       65.96068172852446
C           49.39570007401291       50.33954655271688       66.99655195900625
C           48.25809948224161       49.30984631593789       66.98735484957938
C           47.63876369666095       49.17699406189293       65.59709503043720
C           47.15399071462380       49.70874998219175       67.97958805047104
C           47.52695825303723       49.68994840603027       69.46694663619699
C           47.82793450862012       48.27220087463731       69.94849387157394
C           46.37907726609082       50.29591963470572       70.29498038069640
C           46.51423557163259       51.80359078304910       70.55907615350981
C           47.56968013556840       52.04304730482836       71.63746183146701
C           45.14326871599292       52.35544966841812       70.97868466705322
C           45.10737303736402       53.81016525935716       71.46623291370037
C           43.76484192786749       54.07632575970061       72.14671079620948
C           45.34708085313165       54.79671721083928       70.31760141115035
C           45.68433363401548       56.22549034951478       70.78501772689440
C           44.50236462889335       57.17424964915887       70.57784102891520
C           46.90185921685364       56.79544695449312       70.04413820529420
C           48.23057405230247       56.07831451259776       70.31036800267695
C           48.76310016596823       56.41115538552291       71.70346871248897
C           49.27759349610406       56.47223174002859       69.25964248721343
C           49.04270264984113       55.90719674968501       67.85376568890578
C           49.34786421581690       54.41094627525637       67.79771786445249
C           49.92163070129198       56.64612787812343       66.83409409174502
C           49.37489876630094       57.99803783822735       66.35280530907370
C           48.20846940340197       57.78233164465102       65.38919507409210
C           50.48759261378016       58.81538640056255       65.66475706598220
C           51.01657853988632       60.02360946016059       66.45415577825501
C           51.44913295271270       59.65857428717475       67.87266095972204
C           49.99266191691056       61.17061190075267       66.46072966183415
C           50.12390505777048       62.08843336571812       65.23708620426122
C           51.24687603309665       63.10173681554286       65.45743396588793
C           48.81380630910935       62.83084173528110       64.93783170134492
C           47.76139620798815       62.00673046458217       64.18122102595996
C           48.18469537287957       61.81446344951627       62.72686266609327
C           46.40426981071360       62.71808509123588       64.27439729903224
C           45.21831620141085       61.98255728913460       63.63593264947394
C           44.04499254657153       62.95036365552269       63.48298261687243
C           44.79322641835057       60.76267923766202       64.46151556781635
C           44.04933000963302       59.69774834920447       63.64109865474785
C           43.24412202128491       58.81194882738106       64.59217564560186
C           45.03467196760506       58.86138198583911       62.80247326472099
C           44.61475275336178       58.53553278308796       61.35703477721998
C           44.62239040735060       59.78936464903349       60.48473589347259
C           43.26388331609299       57.81246415126459       61.31976187283463
C           42.85503003302314       57.17983565950471       59.97911915670085
C           41.38744484757541       56.75947009862266       60.07663441180085
C           43.75986214026432       55.98714138282848       59.64288746107640
C           43.42795939191004       55.22063016457113       58.35534219917752
C           44.23715044360793       53.92553049492864       58.32090413067014
C           43.70292121646266       56.04914228431421       57.09489608667919
C           43.02654011523067       55.48514981758505       55.82974143999807
C           44.05706261709877       54.90711101981255       54.85942164593826
C           42.20209932070475       56.55570831831006       55.10292883319529
C           40.97925854498738       57.06956564213512       55.87327539172951
C           39.84630748896041       56.04592004279151       55.84419321273470
C           40.50488482941030       58.40955939617702       55.29099925321468
C           39.71136957606267       59.28047594719011       56.27638803461512
C           38.90431628889591       60.32096660852977       55.50170240776534
C           40.65786349173089       59.95174429808210       57.27848560866842
C           39.95111279949485       60.59078771069353       58.47164532831744
C           40.95439444797187       61.12129578805325       59.48898408606738
H           54.61882948551943       57.74103386431995       55.99982024703136
H           55.00957828920237       57.27402578440088       57.65252258321163
H           56.23605607116453       58.03654437688522       56.63833978354062
H           41.56993573177832       60.31063855902271       59.87205715006080
H           41.60832318012476       61.85892551631158       59.02840971707390
H           40.44211393797156       61.59123440608167       60.32583779184547
H           41.35602391538751       59.20530008530731       57.66244681048866
H           41.24554134993116       60.71297343588338       56.76010723483790
H           41.36772775796956       58.98931297547356       54.95286734900864
H           39.88742312088732       58.20655764765529       54.41360554926302
H           41.26623835472794       57.22790456731637       56.91582221538386
H           39.55168124787988       55.83442864349931       54.81805546215673
H           40.15108305914519       55.11216711633006       56.31128215027572
H           38.97577503246962       56.41859712536785       56.37882753159600
H           42.86708043426741       57.39443684512513       54.88370077883197
H           41.86434801017701       56.15336807299067       54.14544007669989
H           43.36205708953500       57.07073850008280       57.25810878258746
H           44.78230244998534       56.10123231269436       56.93969231890053
H           39.01253486255629       58.64493690362815       56.83034936281648
H           38.31828666903802       60.94217499375986       56.17340112684403
H           39.56974318928233       60.96456687737471       54.92940750965216
H           38.22027555484271       59.83414500053092       54.80980453127034
H           42.35441684660965       54.67418416066013       56.12538275728546
H           44.66745264576177       54.15242906656554       55.34705959638948
H           43.56599802020685       54.44375517167248       54.00602475545260
H           44.71108881479739       55.69279746892943       54.48780395373397
H           42.36890240906738       54.95000926768537       58.37452770737681
H           44.02713523866174       53.31716066831263       59.19706472677626
H           43.98758376381327       53.34512702034765       57.43715195946924
H           45.30325860754909       54.14290202277731       58.30788164460838
H           44.79394643340333       56.33223263934844       59.57439936330123
H           43.70130164041698       55.28046773028856       60.47535873111441
H           42.94292979010262       57.93470574304582       59.19237215820237
H           41.27225291361383       55.96026543257120       60.80628845660053
H           40.77255622747609       57.60074823209862       60.39035013320170
H           41.00737321391051       56.41134827758292       59.12015526830697
H           43.27840782619243       57.01716780931530       62.06924727477141
H           42.48715705582328       58.52298203566128       61.61000724929008
H           45.38366280951255       57.86061442106708       60.96458620417958
H           44.38090796355798       59.54422003574759       59.45358922503352
H           43.90167457983230       60.52284008943994       60.83720591083307
H           45.61013579254399       60.24576683715073       60.49346000658893
H           45.99118831238390       59.38472406841968       62.74694794622929
H           45.21873416558012       57.92159164790429       63.32587860059401
H           43.34732450145501       60.20731292520647       62.97644717877734
H           42.71569724912813       58.03170815222059       64.05212909780359
H           43.90655123789663       58.34299432469519       65.31753472395400
H           42.50958097471553       59.40387576567577       65.13510591788140
H           45.66527153705165       60.29362043093165       64.92019939967875
H           44.14984351483911       61.10550173040828       65.27512265510357
H           45.50352446256165       61.64752001238256       62.63684068522442
H           43.77416809593293       63.37645846729870       64.44738505013787
H           44.30384515751572       63.76301455893160       62.80913426635738
H           43.17280503863783       62.44154562498414       63.07942071497550
H           46.16982794885990       62.89683693013281       65.32713298240974
H           46.50612874527521       63.69579595299280       63.79532499128707
H           47.68292414573486       61.02258118320690       64.65315803933997
H           48.19641123314659       62.76853011195718       62.20364066697235
H           49.18026753791769       61.38291901911661       62.67287458393975
H           47.51260023636053       61.14140049650779       62.20175723057130
H           48.39223955736056       63.17590060774901       65.88495083986091
H           49.03852692019362       63.71754465164304       64.34144832247877
H           50.38709623733843       61.47272038865863       64.37147028271625
H           52.16677989802847       62.60577570991215       65.75789166607420
H           51.44365581602538       63.66418798727291       64.54732786718657
H           50.97206428153227       63.80363615358797       66.24241188596096
H           48.98758340167691       60.74930167089589       66.49960185652452
H           50.12373266695884       61.77598186990714       67.36018444170273
H           51.91322076845434       60.37091363462549       65.92764424916079
H           51.96992307708234       60.49701244069829       68.33127872463295
H           50.59575332656004       59.41152513187350       68.49770482398355
H           52.12150407767702       58.80433866682331       67.85871070559755
H           51.32648240089782       58.15299134687233       65.44135195323912
H           50.11577068063317       59.18771175556184       64.70789594174133
H           48.99685668727732       58.55494523153239       67.21386585443499
H           47.79453352022519       58.73388019268814       65.06265406501085
H           48.54711722420718       57.23772044050021       64.51025598019979
H           47.40896929202977       57.21301473681584       65.85824385496535
H           50.90781069964504       56.78882354898887       67.27937892563125
H           50.04891017501984       56.00839790121136       65.95554119862315
H           47.99325403716531       56.04507631875159       67.58025728807398
H           50.40610415225814       54.23032112677956       67.97241324237933
H           48.78067545907837       53.86133567951205       68.54440560501007
H           49.09051440117452       54.01093580087191       66.81866767323531
H           49.30543261360321       57.56225993954448       69.20613898385861
H           50.26176057815018       56.13979650901485       69.59882699693975
H           48.07508340273616       54.99749546792242       70.26144437410908
H           48.96947206587583       57.47637646711745       71.78820735274472
H           48.04427281822255       56.13980389183165       72.47232447516502
H           49.68623946063767       55.86885358400945       71.89875006767072
H           46.68100731996916       56.76776665071473       68.97525573956257
H           47.01993275881660       57.84624421431681       70.32128943292257
H           45.91136926098400       56.20046302925958       71.85522575649473
H           43.60621677519949       56.79923822095373       71.06463617296581
H           44.72483961174908       58.15728337731273       70.98859137847927
H           44.29132998443722       57.29103333507614       69.51625413785712
H           46.16340195738439       54.41763458752413       69.70389570906832
H           44.46013189440870       54.81679092917103       69.68173934862847
H           45.89260980326303       53.94687986836402       72.21480508421119
H           43.60518987713785       53.37582813507542       72.96407775827848
H           43.73064484639024       55.08234661091748       72.55620194921075
H           42.94787554864165       53.96188245246240       71.43658887848038
H           44.45334608761635       52.25866667213059       70.13662915112725
H           44.76637674450313       51.72069334498947       71.78537810203176
H           46.83400024679906       52.29046739928946       69.63167287540030
H           47.85686556766466       53.08966899931587       71.69013286854677
H           47.18751023010500       51.73828177655459       72.60970319064393
H           48.46535242984544       51.46453783043449       71.42942251187726
H           45.43663684747362       50.10268009016099       69.77725552527816
H           46.32192280018131       49.79142289220733       71.26176320178300
H           48.42356843008118       50.29711013737721       69.61473441899901
H           48.65607626145909       47.84008603255702       69.39382404785160
H           48.09984895934390       48.27904918414777       71.00186158171006
H           46.95562221004253       47.63424723608735       69.82315760246752
H           46.80670809156474       50.71290259861954       67.72091877502916
H           46.31083207862898       49.02548084043934       67.84216766170344
H           48.65157606774814       48.33216838990646       67.27918899238422
H           46.75765690550651       48.53992626266117       65.63009254356118
H           47.33782025673487       50.15444131383023       65.22670751306951
H           48.34037991138607       48.73525064101067       64.89509457603566
H           49.88036254747610       50.31753733999931       67.97486800225424
H           48.95229316837333       51.33121518345973       66.87352892892461
H           50.01306628402995       50.13574905143961       64.94478045298523
H           51.82877505204821       51.52981175719739       66.94826055862804
H           52.19479160958168       51.32258121689572       65.23388447345349
H           50.82181869591090       52.30305277438890       65.72815036202016
H           50.61797979792868       48.06840251269153       66.38132254288942
H           51.93168302517888       49.04198675277014       67.02575158544953
H           52.73341509727958       49.32553089346625       64.60790697556641
H           53.89542579829061       47.15248727258445       64.67535586619476
H           53.76026261809878       47.80436626525061       66.29956433020716
H           52.67615918076010       46.51145296444717       65.77714225359396
H           50.58996847071398       48.65177238857064       63.53559549375606
H           50.75250947457466       47.04497693886370       64.23788513294592
H           52.79622224605541       46.68240078464046       62.84469711596481
H           50.49679065543023       45.94212270710451       62.24048741690724
H           50.27174930928148       47.42089881223882       61.30989887345928
H           51.48747333769871       46.24053634107080       60.82100065147519
H           53.43595644783308       49.02046644238969       62.59209894404309
H           51.98027054108390       49.37470991062843       61.67784701338407
H           54.14000495375831       49.23534691114725       60.43941555864424
H           53.89863691565199       46.22735912841742       60.83366573428650
H           55.05964237665776       47.05621520787531       59.79715609759328
H           55.12310742469678       47.27946898845144       61.54227505391223
H           51.65690665000211       48.71510213394819       59.51797714681449
H           52.41698518434592       47.17979642788549       59.12391652710880
H           54.22911062340221       48.48211622464035       57.92082167541349
H           51.36177221463174       48.76742381309580       56.91869192203092
H           52.80942877859010       48.74118707076351       55.91140558688375
H           52.34058587887622       47.30347054139175       56.80585784640022
H           53.83694341775447       50.66500725743428       59.00712853330602
H           52.19926172513115       50.70688846196519       58.36697698385459
H           53.00772506447134       51.02487110995310       56.11411523687037
H           54.55258125539569       52.90141223399350       57.94301188153820
H           53.75097152027872       53.28779513725257       56.41919763702758
H           52.79369686290256       52.91182493209177       57.84506106121965
H           55.04139545273284       49.70786038298146       56.08853432443242
H           55.74469670076413       50.67667660993016       57.38010743215931
H           55.86178960348914       52.62520205536203       55.84026287066217
H           57.76277209866824       51.09162064981360       56.27756305566396
H           57.27032578081339       50.08927895059822       54.91124557770521
H           57.83707228704598       51.73795808778804       54.64370195039385
H           54.03403641961533       51.79921684863167       54.28055642237909
H           55.17304742333037       50.59437337928347       53.68372210589945
H           56.67644241233614       52.42853083971589       52.92692647689560
H           55.27253894602271       53.03753420409031       50.98365963834779
H           55.08891325597845       51.33814404763387       51.40670554634072
H           53.83220265476943       52.49651032797687       51.84733142490268
H           54.66280212419943       54.09534133793879       54.32879696824277
H           54.99083372559667       54.64607796785436       52.69751406814854
H           57.22858168211262       54.11241327382806       54.67478103493595
H           58.55830396211964       55.44004119357403       53.14074241305738
H           57.74304997778024       54.19637862778458       52.18878042668057
H           57.13694028015182       55.84977329816353       52.18209537819471
H           55.64812967910513       56.64605763282667       54.11994218261574
H           57.29296788984036       56.68994573672384       54.74179841511017
H           55.00244848488225       55.28970167387420       56.17169683614436
H           56.56391628269736       55.41577027387780       58.11030364570437
H           57.22227766685138       54.41130927999398       56.82552134802020
H           57.82267502216789       56.05177829357087       57.05041819731336
H           39.31733778130129       61.41272198981008       58.13529299621762
H           39.30739036982256       59.84865800762901       58.95029071197782
[...]
  3284   6 C     3286   6 C                                       1.5343501
  3286   6 C     3287   6 C                                       1.5356372
  3287   6 C     3288   6 C                                       1.5284885
  3287   6 C     3289   6 C                                       1.5330521
  3290   6 C     3291   6 C                                       1.5291887
  3290   6 C     3292   6 C                                       1.5348502
  3292   6 C     3293   6 C                                       1.5365258
  3293   6 C     3294   6 C                                       1.5264992
  3293   6 C     3295   6 C                                       1.5348529
  3295   6 C     3296   6 C                                       1.5371513
  3296   6 C     3297   6 C                                       1.5296704
  3296   6 C     3298   6 C                                       1.5347211
  3299   6 C     3300   6 C                                       1.5300559
  3299   6 C     3301   6 C                                       1.5343141
  3301   6 C     3302   6 C                                       1.5347535
  3302   6 C     3303   6 C                                       1.5266478
  3302   6 C     3304   6 C                                       1.5361094
  3304   6 C     3305   6 C                                       1.5369110
  3305   6 C     3306   6 C                                       1.5285503
  3305   6 C     3307   6 C                                       1.5324176
  3307   6 C     3308   6 C                                       1.5355125
  3308   6 C     3309   6 C                                       1.5277588
  3308   6 C     3310   6 C                                       1.5329889
  3311   6 C     3312   6 C                                       1.5286317
  3311   6 C     3313   6 C                                       1.5346995
  3313   6 C     3314   6 C                                       1.5367760
  3314   6 C     3315   6 C                                       1.5269208
  3314   6 C     3316   6 C                                       1.5340197
  3316   6 C     3317   6 C                                       1.5351319
  3317   6 C     3318   6 C                                       1.5291383
  3317   6 C     3319   6 C                                       1.5333121
  3319   6 C     3320   6 C                                       1.5354425
  3320   6 C     3321   6 C                                       1.5289513
  3320   6 C     3322   6 C                                       1.5348203
  3323   6 C     3324   6 C                                       1.5297282
  3323   6 C     3325   6 C                                       1.5354670
  3325   6 C     3326   6 C                                       1.5329227
  3326   6 C     3327   6 C                                       1.5295974
  3326   6 C     3328   6 C                                       1.5370483
  3328   6 C     3329   6 C                                       1.5341981
  3329   6 C     3330   6 C                                       1.5281838
  3329   6 C     3331   6 C                                       1.5377117
  3331   6 C     3332   6 C                                       1.5338750
  3332   6 C     3333   6 C                                       1.5272469
  3332   6 C     3334   6 C                                       1.5376043
  3334   6 C     3335   6 C                                       1.5356075
  3335   6 C     3336   6 C                                       1.5273229
  3335   6 C     3337   6 C                                       1.5349545
  3337   6 C     3338   6 C                                       1.5362746
  3338   6 C     3339   6 C                                       1.5280705
  3338   6 C     3340   6 C                                       1.5338054
  3340   6 C     3341   6 C                                       1.5367992
  3341   6 C     3342   6 C                                       1.5298085
  3341   6 C     3343   6 C                                       1.5323635
  3343   6 C     3344   6 C                                       1.5360365
  3344   6 C     3345   6 C                                       1.5293071
  3344   6 C     3346   6 C                                       1.5394204
  3346   6 C     3347   6 C                                       1.5363848
  3347   6 C     3348   6 C                                       1.5272821
  3347   6 C     3349   6 C                                       1.5341794
  3349   6 C     3350   6 C                                       1.5344403
  3350   6 C     3351   6 C                                       1.5286835
  3350   6 C     3352   6 C                                       1.5361551
  3352   6 C     3353   6 C                                       1.5276392
  3353   6 C     3354   6 C                                       1.5241325
  3265   6 C     3355   1 H                                       1.0865342
  3265   6 C     3356   1 H                                       1.0883164
  3265   6 C     3357   1 H                                       1.0884727
  3354   6 C     3358   1 H                                       1.0883098
  3354   6 C     3359   1 H                                       1.0881024
  3354   6 C     3360   1 H                                       1.0885132
  3352   6 C     3361   1 H                                       1.0934946
  3352   6 C     3362   1 H                                       1.0922298
  3349   6 C     3363   1 H                                       1.0919429
  3349   6 C     3364   1 H                                       1.0932256
  3347   6 C     3365   1 H                                       1.0909878
  3348   6 C     3366   1 H                                       1.0870593
  3348   6 C     3367   1 H                                       1.0884222
  3348   6 C     3368   1 H                                       1.0874513
  3346   6 C     3369   1 H                                       1.0921192
  3346   6 C     3370   1 H                                       1.0922675
  3343   6 C     3371   1 H                                       1.0910343
  3343   6 C     3372   1 H                                       1.0932970
  3350   6 C     3373   1 H                                       1.0956403
  3351   6 C     3374   1 H                                       1.0878301
  3351   6 C     3375   1 H                                       1.0872471
  3351   6 C     3376   1 H                                       1.0879684
  3344   6 C     3377   1 H                                       1.0933641
  3345   6 C     3378   1 H                                       1.0883240
  3345   6 C     3379   1 H                                       1.0879250
  3345   6 C     3380   1 H                                       1.0870011
  3341   6 C     3381   1 H                                       1.0913744
  3342   6 C     3382   1 H                                       1.0888543
  3342   6 C     3383   1 H                                       1.0865363
  3342   6 C     3384   1 H                                       1.0887474
  3340   6 C     3385   1 H                                       1.0914596
  3340   6 C     3386   1 H                                       1.0939707
  3338   6 C     3387   1 H                                       1.0941110
  3339   6 C     3388   1 H                                       1.0867294
  3339   6 C     3389   1 H                                       1.0881784
  3339   6 C     3390   1 H                                       1.0882560
  3337   6 C     3391   1 H                                       1.0922501
  3337   6 C     3392   1 H                                       1.0930236
  3335   6 C     3393   1 H                                       1.0927456
  3336   6 C     3394   1 H                                       1.0873299
  3336   6 C     3395   1 H                                       1.0880849
  3336   6 C     3396   1 H                                       1.0884613
  3334   6 C     3397   1 H                                       1.0922935
  3334   6 C     3398   1 H                                       1.0919413
  3332   6 C     3399   1 H                                       1.0937758
  3333   6 C     3400   1 H                                       1.0870157
  3333   6 C     3401   1 H                                       1.0885548
  3333   6 C     3402   1 H                                       1.0861187
  3331   6 C     3403   1 H                                       1.0931854
  3331   6 C     3404   1 H                                       1.0924467
  3329   6 C     3405   1 H                                       1.0929605
  3330   6 C     3406   1 H                                       1.0884006
  3330   6 C     3407   1 H                                       1.0879921
  3330   6 C     3408   1 H                                       1.0864122
  3328   6 C     3409   1 H                                       1.0921305
  3328   6 C     3410   1 H                                       1.0933968
  3326   6 C     3411   1 H                                       1.0917175
  3327   6 C     3412   1 H                                       1.0881141
  3327   6 C     3413   1 H                                       1.0866133
  3327   6 C     3414   1 H                                       1.0882799
  3325   6 C     3415   1 H                                       1.0920731
  3325   6 C     3416   1 H                                       1.0931754
  3323   6 C     3417   1 H                                       1.0935912
  3324   6 C     3418   1 H                                       1.0876339
  3324   6 C     3419   1 H                                       1.0882479
  3324   6 C     3420   1 H                                       1.0882662
  3322   6 C     3421   1 H                                       1.0905629
  3322   6 C     3422   1 H                                       1.0920321
  3320   6 C     3423   1 H                                       1.0926590
  3321   6 C     3424   1 H                                       1.0874992
  3321   6 C     3425   1 H                                       1.0886586
  3321   6 C     3426   1 H                                       1.0879076
  3319   6 C     3427   1 H                                       1.0910294
  3319   6 C     3428   1 H                                       1.0925903
  3317   6 C     3429   1 H                                       1.0928337
  3318   6 C     3430   1 H                                       1.0882387
  3318   6 C     3431   1 H                                       1.0880857
  3318   6 C     3432   1 H                                       1.0865863
  3316   6 C     3433   1 H                                       1.0935429
  3316   6 C     3434   1 H                                       1.0932696
  3314   6 C     3435   1 H                                       1.0937416
  3315   6 C     3436   1 H                                       1.0864282
  3315   6 C     3437   1 H                                       1.0877366
  3315   6 C     3438   1 H                                       1.0874291
  3313   6 C     3439   1 H                                       1.0925015
  3313   6 C     3440   1 H                                       1.0923988
  3311   6 C     3441   1 H                                       1.0944821
  3312   6 C     3442   1 H                                       1.0884375
  3312   6 C     3443   1 H                                       1.0867965
  3312   6 C     3444   1 H                                       1.0886339
  3310   6 C     3445   1 H                                       1.0899829
  3310   6 C     3446   1 H                                       1.0924120
  3308   6 C     3447   1 H                                       1.0946802
  3309   6 C     3448   1 H                                       1.0862148
  3309   6 C     3449   1 H                                       1.0886109
  3309   6 C     3450   1 H                                       1.0875032
  3307   6 C     3451   1 H                                       1.0912493
  3307   6 C     3452   1 H                                       1.0933566
  3305   6 C     3453   1 H                                       1.0930276
  3306   6 C     3454   1 H                                       1.0881283
  3306   6 C     3455   1 H                                       1.0882222
  3306   6 C     3456   1 H                                       1.0860693
  3304   6 C     3457   1 H                                       1.0934428
  3304   6 C     3458   1 H                                       1.0937877
  3302   6 C     3459   1 H                                       1.0924314
  3303   6 C     3460   1 H                                       1.0868232
  3303   6 C     3461   1 H                                       1.0867068
  3303   6 C     3462   1 H                                       1.0883075
  3301   6 C     3463   1 H                                       1.0931788
  3301   6 C     3464   1 H                                       1.0933582
  3299   6 C     3465   1 H                                       1.0918199
  3300   6 C     3466   1 H                                       1.0877033
  3300   6 C     3467   1 H                                       1.0881298
  3300   6 C     3468   1 H                                       1.0883675
  3298   6 C     3469   1 H                                       1.0901733
  3298   6 C     3470   1 H                                       1.0926816
  3296   6 C     3471   1 H                                       1.0931296
  3297   6 C     3472   1 H                                       1.0866214
  3297   6 C     3473   1 H                                       1.0883506
  3297   6 C     3474   1 H                                       1.0880659
  3295   6 C     3475   1 H                                       1.0936622
  3295   6 C     3476   1 H                                       1.0933140
  3293   6 C     3477   1 H                                       1.0926460
  3294   6 C     3478   1 H                                       1.0867086
  3294   6 C     3479   1 H                                       1.0882837
  3294   6 C     3480   1 H                                       1.0874276
  3292   6 C     3481   1 H                                       1.0930641
  3292   6 C     3482   1 H                                       1.0928047
  3290   6 C     3483   1 H                                       1.0942985
  3291   6 C     3484   1 H                                       1.0882763
  3291   6 C     3485   1 H                                       1.0869040
  3291   6 C     3486   1 H                                       1.0882012
  3289   6 C     3487   1 H                                       1.0894980
  3289   6 C     3488   1 H                                       1.0922954
  3287   6 C     3489   1 H                                       1.0925561
  3288   6 C     3490   1 H                                       1.0879422
  3288   6 C     3491   1 H                                       1.0870303
  3288   6 C     3492   1 H                                       1.0886141
  3286   6 C     3493   1 H                                       1.0915540
  3286   6 C     3494   1 H                                       1.0936355
  3284   6 C     3495   1 H                                       1.0934630
  3285   6 C     3496   1 H                                       1.0865546
  3285   6 C     3497   1 H                                       1.0885388
  3285   6 C     3498   1 H                                       1.0867364
  3283   6 C     3499   1 H                                       1.0931563
  3283   6 C     3500   1 H                                       1.0941442
  3281   6 C     3501   1 H                                       1.0935479
  3282   6 C     3502   1 H                                       1.0868623
  3282   6 C     3503   1 H                                       1.0883441
  3282   6 C     3504   1 H                                       1.0880485
  3280   6 C     3505   1 H                                       1.0918800
  3280   6 C     3506   1 H                                       1.0922500
  3278   6 C     3507   1 H                                       1.0948357
  3279   6 C     3508   1 H                                       1.0882183
  3279   6 C     3509   1 H                                       1.0873900
  3279   6 C     3510   1 H                                       1.0884812
  3277   6 C     3511   1 H                                       1.0922603
  3277   6 C     3512   1 H                                       1.0919989
  3275   6 C     3513   1 H                                       1.0940283
  3276   6 C     3514   1 H                                       1.0868951
  3276   6 C     3515   1 H                                       1.0867327
  3276   6 C     3516   1 H                                       1.0884625
  3274   6 C     3517   1 H                                       1.0932823
  3274   6 C     3518   1 H                                       1.0934233
  3272   6 C     3519   1 H                                       1.0937507
  3273   6 C     3520   1 H                                       1.0882356
  3273   6 C     3521   1 H                                       1.0869898
  3273   6 C     3522   1 H                                       1.0881982
  3271   6 C     3523   1 H                                       1.0908134
  3271   6 C     3524   1 H                                       1.0908754
  3269   6 C     3525   1 H                                       1.0974954
  3270   6 C     3526   1 H                                       1.0883362
  3270   6 C     3527   1 H                                       1.0877165
  3270   6 C     3528   1 H                                       1.0872106
  3268   6 C     3529   1 H                                       1.0928956
  3268   6 C     3530   1 H                                       1.0928599
  3266   6 C     3531   1 H                                       1.0934355
  3267   6 C     3532   1 H                                       1.0880023
  3267   6 C     3533   1 H                                       1.0877635
  3267   6 C     3534   1 H                                       1.0881127
  3353   6 C     3535   1 H                                       1.0904268
  3353   6 C     3536   1 H                                       1.0908963

 * 2 distinct bonds (by element types)

   Z      Z             #   av. dist./Å        max./Å        min./Å
   1 H    6 C        2366     1.0900826     1.0974954     1.0841297
   6 C    6 C        1102     1.5325480     1.5399110     1.5224496


optimized geometry written to: xtbopt.xyz


           -------------------------------------------------
          | TOTAL ENERGY            -3716.233335378955 Eh   |
          | GRADIENT NORM               0.000981076375 Eh/α |
          | HOMO-LUMO GAP              11.419314740058 eV   |
           -------------------------------------------------

------------------------------------------------------------------------
 * finished run on 2024/10/04 at 19:56:47.696     
------------------------------------------------------------------------
 total:
 * wall-time:     0 d,  6 h, 28 min, 50.480 sec
 *  cpu-time:     1 d, 12 h, 39 min, 55.420 sec
 * ratio c/w:     5.658 speedup
 SCF:
 * wall-time:     0 d,  0 h, 15 min, 55.304 sec
 *  cpu-time:     0 d,  1 h, 46 min, 11.236 sec
 * ratio c/w:     6.669 speedup
 ANC optimizer:
 * wall-time:     0 d,  6 h, 11 min, 27.706 sec
 *  cpu-time:     1 d, 10 h, 51 min, 59.588 sec
 * ratio c/w:     5.632 speedup

