3536
 energy: -3716.263752109433 gnorm: 0.000716480760 xtb: 6.6.1 (8d0f1dd)
C           53.55643713280716       63.09980988476376       71.95484188300478
C           53.19758831790573       64.17224009299466       70.92865991103150
C           52.06180182611685       63.67345001851093       70.03544397391775
C           54.40107725206238       64.55204525164704       70.05775698226131
C           55.60184596572059       65.15964761553086       70.79334829638701
C           55.21369346331130       66.43784534784527       71.53803127474475
C           56.73189834892451       65.49156403525838       69.80647331819489
C           57.38358774931257       64.29619264993252       69.10307875400748
C           58.08942594228810       63.38634853081877       70.10888655717916
C           58.40018487443789       64.76109412209838       68.04864671114922
C           57.85474486616886       65.65522701053548       66.92640851800790
C           56.59130062250933       65.07163899648724       66.29546989098164
C           58.90836658380420       65.85989076423510       65.82579702707868
C           60.21576149972788       66.52988339016291       66.26057191613666
C           59.95059671793322       67.90010911866786       66.88752645466757
C           61.17347675583812       66.71949094992142       65.07355049172162
C           61.64010800664145       65.46173387139163       64.32273527901202
C           62.18306977415359       64.40489405788588       65.27711830122425
C           62.70958393888616       65.89613528534710       63.30826358072112
C           63.30889716086733       64.81549180635574       62.39392093471781
C           64.45330958062894       65.44887278346079       61.60162294516341
C           62.23682800249184       64.21734136793347       61.47501633529124
C           62.71939721985414       63.23437838178045       60.39460484366576
C           61.50948148017251       62.79037948452018       59.57256426471953
C           63.43379871397643       62.03243818816697       61.02214195260954
C           63.94911369250141       60.95862814234968       60.05131004356725
C           64.32268930707153       59.71265960130567       60.85426256829142
C           65.15344008508886       61.46366266234530       59.24759930411428
C           65.54858372298392       60.55773373676298       58.07327949924993
C           66.95907836386833       60.90274444351218       57.59875604374758
C           64.55761227789345       60.67017478408459       56.90107029136009
C           63.95311830486465       59.34228206981296       56.43345282841718
C           65.04194503502524       58.38110275368614       55.96072977884509
C           62.97344632651799       59.57383299488222       55.27500855834048
C           61.67383581916710       60.30102373380103       55.64248386425816
C           60.69738813737501       59.33576957983095       56.30416288830443
C           61.07133819347148       60.92791672609451       54.37919675768921
C           59.74416595810619       61.67953136169993       54.55411280995956
C           59.30732807645708       62.21582282464255       53.19252509121195
C           59.88515593651139       62.81162799675917       55.57566446065352
C           58.61941813095855       63.62750079421482       55.87635389770502
C           58.98850803028100       64.72029654094908       56.87831613053707
C           57.50415277942302       62.71798836202108       56.40596748120377
C           56.25902451178756       63.41203885848272       56.97858812993182
C           55.25383233105651       62.33749398688573       57.39042799595688
C           55.64504960635310       64.39277648440358       55.97420617585502
C           54.44117903880631       65.21810058959493       56.46209459795946
C           54.09995815633312       66.23530919185900       55.37186809192811
C           54.75081736680702       65.89926268126351       57.80030969683914
C           53.73901602710826       66.93485286842346       58.31293338730740
C           54.20559129780673       67.45315473839173       59.67359242504674
C           52.26359861613690       66.49344289947277       58.35909591534595
C           51.77503960774245       65.67613014189710       59.56124374957684
C           52.36624144167835       64.26871040873695       59.58026891213836
C           50.24251017568031       65.55297783188266       59.53891581589199
C           49.44647653734776       66.85793612212777       59.66248902596121
C           49.78701569682228       67.60228232962075       60.95125371644426
C           47.94063797023711       66.55848291668048       59.60284124062284
C           47.10035843086875       67.73092668049097       59.08047247908267
C           45.61914786236649       67.45212473335908       59.33692074030050
C           47.35943601601058       67.98016039339339       57.58042799712948
C           48.03546536118363       69.32096568925205       57.26449057459493
C           47.04049294364789       70.47084348814960       57.41197937894785
C           48.62536524784790       69.30457381784922       55.84640185537562
C           49.97956305912110       68.58534052814925       55.75546523865216
C           51.11081556840881       69.54443073599076       56.12181529725315
C           50.21311822474911       68.00201531346679       54.35564780084528
C           49.43789506023490       66.70555871849632       54.08679400645875
C           50.09945780916109       65.52601064570781       54.79853515198690
C           49.36143001806150       66.40209612660973       52.58418890206313
C           48.42137676328150       67.30124257772988       51.77337515573753
C           46.95792082718032       67.01620642417456       52.11449758263088
C           48.61996166924445       67.08421877593744       50.26588337370107
C           49.95132742625066       67.56165756090697       49.67617365723986
C           50.09052201518481       69.08065872140116       49.78030501731904
C           50.06681619173656       67.15309052885637       48.20013496131534
C           50.19473742684040       65.65332667706195       47.90526361904281
C           51.48474635663774       65.07407516510774       48.48504382007899
C           50.17255358863286       65.40895843782366       46.38830595719109
C           48.80413485095244       65.56048313690250       45.71481149822419
C           47.88078774276046       64.40186717339370       46.09023971957865
C           48.93525362114899       65.59396979800955       44.18487841964576
C           49.68382120875550       66.78769009830800       43.57801709627692
C           49.15098826937977       68.12070657345711       44.10491756746508
C           49.55476507591543       66.78233938845203       42.04639707330541
C           50.17959442236502       65.58771877916497       41.31614478011974
C           51.70244287377263       65.61399765587123       41.42739213311516
C           49.77842523886235       65.58440073333013       39.83419440052445
C           48.32940477517819       65.17666259231082       39.57767564240737
C           48.01939501802311       65.12947232471620       38.08606260019493
H           54.28656526702203       63.46732498614668       72.67137850390800
H           52.67003018010385       62.79245381536850       72.50617113679468
H           53.96984552774966       62.22486722180777       71.45720828776302
H           48.66055308253797       64.40689338243850       37.58530507221987
H           46.98330049617677       64.84508808887077       37.91435733856001
H           48.18490869958148       66.10419150198182       37.63182468162067
H           49.95440632540082       66.57690069677004       39.41104727083465
H           50.42565075838029       64.88271685636246       39.30155141321619
H           48.49095813955575       66.83239167202363       41.80440564161143
H           50.01805299164688       67.69350241153158       41.65629414661261
H           50.74355373401987       66.72306167828714       43.84099101841756
H           49.61050887966029       68.94985402642223       43.56955121952939
H           48.07333661759246       68.18418127531994       43.96515998211557
H           49.37307164603195       68.24265558863600       45.16159627371908
H           49.43308787593108       64.67279642501136       43.87571768776579
H           47.92795222431900       65.57938816417011       43.75937054947057
H           50.88193350146715       66.09938832717894       45.92756881083010
H           50.52760618606932       64.39498820939319       46.19253649841687
H           49.81652139124688       64.65847735304081       41.76397636332782
H           52.10133739979520       66.51651403235972       40.96704064135136
H           52.01499980708859       65.58948284335480       42.46694607166182
H           52.13637563921797       64.75254181953510       40.92402361965121
H           48.32970931906305       66.48699121091477       46.04861185871530
H           46.91248778356452       64.51930018601819       45.60869693981519
H           48.30707439244449       63.45535097575520       45.76721614531243
H           47.71945191381435       64.35491979703224       47.16352249426173
H           49.35405494465112       65.12182972712125       48.35714526801628
H           51.51210481581139       65.17877259588717       49.56644453172965
H           51.55830741290686       64.01388181389483       48.25193796126580
H           52.35379671596564       65.57832359790123       48.06605658908527
H           49.18941334813138       67.54395865655785       47.67912306623258
H           50.94185623696032       67.65297095858064       47.77461522350175
H           50.77882758915075       67.11205633640917       50.23037592666706
H           50.11207570516183       69.40268304821723       50.81785679391335
H           51.01435909620135       69.41108117934866       49.31044067416420
H           49.25823994328128       69.57583760216980       49.28270819599459
H           48.51012605787458       66.01653247449637       50.07196197548745
H           47.81410547504907       67.59792242477766       49.73321472182292
H           48.62211391635989       68.34920981008263       52.01265032975962
H           46.30048254998005       67.68375540205078       51.56045537433629
H           46.70013595328061       65.99187124144692       51.85365950762485
H           46.76205010846407       67.15919954085066       53.17400330236917
H           50.37233606114585       66.47874852371409       52.17998246425165
H           49.03494777761507       65.36781113182076       52.45081073506181
H           48.42291266363232       66.80954632501903       54.48164156134246
H           51.10596292327667       65.37046550215435       54.41606280413065
H           50.16384827616770       65.70052141371870       55.86961165478913
H           49.52693437210074       64.61541216103764       54.63907292009946
H           49.93874052155378       68.76065736799337       53.62010432583605
H           51.27874777525069       67.79826012501536       54.22334368656025
H           49.98909367566631       67.76323234758067       56.47617864432135
H           50.94363149005355       69.98648430139531       57.10182405739528
H           52.06602159827487       69.02446126367678       56.14458873477989
H           51.17722229211621       70.34795014054795       55.39008122494923
H           47.90257804103613       68.83028999891728       55.17937116800730
H           48.75463433875509       70.33190988369722       55.49596560862878
H           48.85086303798130       69.48265870704400       57.97827995675040
H           46.25002087088755       70.38521517864943       56.66839557822820
H           46.58187244470505       70.46428472927653       58.39850673875380
H           47.53555521148247       71.43063621015418       57.27455152188866
H           47.97799383850840       67.17229011758192       57.18700271136935
H           46.41268383066807       67.94432982569039       57.03630933588573
H           47.37335149740642       68.62950971673291       59.64393837705445
H           45.00354583245493       68.27605396898534       58.98197025003022
H           45.30989801594033       66.54486388184590       58.82159126489766
H           45.43006890822548       67.32065241740936       60.40081564107241
H           47.75820455667026       65.70069158694233       58.95175790083138
H           47.59606129838214       66.28256992468505       60.60311085531966
H           49.69222419710695       67.50380920899441       58.81657879192612
H           49.11504700720901       68.44522894357273       61.09561887454930
H           49.69033388660024       66.93835193166915       61.80854863478475
H           50.80344929252581       67.98612419422976       60.92684463065225
H           49.95534731573183       65.05554489701836       58.60780648437671
H           49.94020003800850       64.89837442079897       60.36262292856517
H           52.05808585415006       66.18571689923940       60.48450609605814
H           51.88829863665195       63.66559841012720       60.35134825573904
H           52.20566884824084       63.78113815490540       58.62179098077831
H           53.43138587081005       64.28830840555155       59.78867912754187
H           51.67984351402371       67.41555147756870       58.33717544043141
H           52.02668741564960       65.94099465455824       57.44874245201185
H           53.77145382449745       67.78262041225832       57.61620532320612
H           55.19890178370564       67.89111654199471       59.59541904219840
H           53.52697805323984       68.21751007635785       60.04745340931165
H           54.25184477368865       66.64562233411431       60.39998138507823
H           54.88040190273146       65.12989349572975       58.55961603185965
H           55.71060189615937       66.41715633228227       57.69734623279314
H           53.58363803257527       64.55062513027215       56.59042117038327
H           53.99107941022936       65.73517100871048       54.41065304662906
H           53.17111720590900       66.75688605866596       55.58618194684546
H           54.89548511506256       66.97385152057012       55.27978096862363
H           56.41377977947802       65.10065103021604       55.65962301556412
H           55.33848292262888       63.83331912259041       55.08518541924077
H           56.56234409533452       63.96038032788111       57.87393222714972
H           54.39003323215155       62.77306112412335       57.88338309038138
H           54.91131939987858       61.78469637255730       56.51740594594482
H           55.71539540077357       61.63330688459487       58.07941588535009
H           57.18400646032487       62.05552039278694       55.60008099866146
H           57.92423349558529       62.08970463363450       57.19691682909585
H           58.28306064106226       64.10827689131627       54.95247843567797
H           58.16775259457427       65.41091460351736       57.04621912827401
H           59.26045529400203       64.27361848454980       57.83256048203506
H           59.83643809766966       65.29504704731877       56.51025871002023
H           60.23163520292240       62.39425711484948       56.52287886845478
H           60.65992594242741       63.49594596164631       55.21706212915448
H           58.98779125959462       60.97059840427867       54.90018056112788
H           59.27718284860122       61.41218427069577       52.46024084607002
H           58.31623916797342       62.65645740184936       53.24773852401681
H           60.00380325774957       62.97345136465754       52.83884692288683
H           61.80314412971921       61.62229072861795       53.95686351282534
H           60.91735484655120       60.13450657981367       53.64240155122258
H           61.90975525782655       61.10322284125488       56.34626336356389
H           60.35892801884459       58.59971832631711       55.57793197851265
H           61.17591234737579       58.80769256756442       57.12476300166001
H           59.83239404988764       59.86262996512168       56.69901201451415
H           63.49686732408525       60.14252684792194       54.50383089682878
H           62.71214311783068       58.60606413986172       54.84207549083792
H           63.42419902435861       58.87862824255621       57.27360238706226
H           65.75545310307193       58.16394291650466       56.75185347855248
H           64.60434342937243       57.44118797976974       55.63136811295308
H           65.58307506875586       58.81617463135478       55.12193533649928
H           63.74945567758355       61.34470665418846       57.18383396211737
H           65.06375303093529       61.12601729622411       56.04755831551424
H           65.56352181294920       59.52678159132849       58.43586396047431
H           67.24289129152605       60.27392247593505       56.75767799501076
H           67.00935838775372       61.94306552613447       57.28327730659313
H           67.68359266310598       60.75172972724341       58.39480865186441
H           64.94424650175250       62.46247486643392       58.85911613981531
H           66.00493794180090       61.55342182648403       59.92882957089756
H           63.14809964062117       60.68359625995193       59.36035211630300
H           63.48727797949429       59.39295798049130       61.47326244897339
H           64.59116934711550       58.88515080446044       60.20303001535851
H           65.16574198046523       59.92298174831976       61.50940199931814
H           64.28416901998578       62.38527852721737       61.60914555076030
H           62.73384603894601       61.55939174119693       61.71678038983580
H           63.40547159470863       63.75862958363320       59.72340085042453
H           61.81539719031522       62.26587580407717       58.67151179085751
H           60.87115557840119       62.12894967021368       60.15521342056006
H           60.92376363814449       63.65612919794189       59.27269451313082
H           61.50243820819652       63.69873472503932       62.09415785164721
H           61.72113792259767       65.04272018983863       60.97684973197230
H           63.73411850845192       64.02340354930266       63.01662881903464
H           65.18263519069811       65.89146603405051       62.27822588605049
H           64.96840550864493       64.71105980084346       60.99290536452985
H           64.07594286492451       66.23690277847396       60.95282301970802
H           62.28161294639910       66.67472503818904       62.67132501589221
H           63.53135094359828       66.35246391130553       63.86923008833906
H           60.78942049382594       65.04089184269084       63.77883066110532
H           61.40712280391210       64.05656031896693       65.95420799998553
H           62.55260833266352       63.54830384388840       64.72094933887330
H           63.00187160987621       64.80741107454770       65.87028831032021
H           60.69604712298559       67.38947529197843       64.35315348546806
H           62.06385463576178       67.23354957881276       65.44957066350308
H           60.71467523315843       65.90742857204783       67.00875086538282
H           59.41739649576191       67.80659066695759       67.82984505284836
H           60.88817334014579       68.41677670934187       67.08600509869783
H           59.35534159218380       68.51689423059038       66.21668384808466
H           59.13780295325076       64.88444048245168       65.39203060878208
H           58.46460387364296       66.47156730954806       65.03728791001257
H           57.59965813717749       66.63346379128505       67.34262802182596
H           56.25008314747922       65.71457420489141       65.48795204800346
H           56.78654680826899       64.08154361630193       65.89189031777205
H           55.78609085878703       64.99702123169541       67.02028399395721
H           59.20227277822240       65.29406809816788       68.56528697784586
H           58.84261011243475       63.87012924767060       67.59276999155487
H           56.61351523249692       63.70655662275446       68.60020150975906
H           58.64512160813099       62.60610956250081       69.59328152547262
H           58.78912616303450       63.95797151931320       70.71504128933043
H           57.37462671051358       62.90442679098701       70.77082554934589
H           56.32505323581225       66.17261106265771       69.05693478942062
H           57.51447760574843       66.03325270763293       70.34607939294143
H           55.97566117219536       64.44075850057651       71.52704292316250
H           54.78025163415627       67.16330673647209       70.85197218307813
H           54.49213031444696       66.23456674928669       72.32491427033894
H           56.09057807607348       66.88842411121357       71.99924150726574
H           54.72542002700697       63.65065965716490       69.53434542201366
H           54.06583936686261       65.26774409620499       69.30169164039626
H           52.84022168035983       65.06020299978157       71.46051093949480
H           51.78068117478529       64.43432491620985       69.31103840221351
H           52.36592611914944       62.78027225761397       69.49468192059756
H           51.18492365146562       63.42938906603439       70.63130961352155
H           48.15152599531431       64.19102344590624       40.01452579052521
H           47.64863590854225       65.88145322466728       40.05904430363595
C           54.02699957652992       58.68260811524083       68.68127891457084
C           53.52293574544538       57.67360751882843       69.70905597077753
C           54.62017888555545       57.39488899803985       70.73655302863439
C           53.09276415472442       56.35520702266746       69.05330752774105
C           52.01681900365763       56.46408960836642       67.96637251696913
C           50.75949270633414       57.16254565119442       68.48552920082449
C           51.62204195724421       55.07541361583929       67.43938103106400
C           52.75218005610166       54.22694783980373       66.84533169690965
C           53.47601809105570       54.97489292901006       65.72564903597087
C           52.22106822519291       52.89885071009713       66.28221874605069
C           51.46180855701843       51.98362537352896       67.25309747535690
C           52.32502204844967       51.63388114467648       68.46586169434232
C           51.02018888739599       50.69000474978024       66.53687373736736
C           49.54097403787588       50.61181148092103       66.13101322076282
C           49.16467679813387       51.65869800291829       65.08653797053120
C           48.60393147631186       50.69789876831314       67.34780530925605
C           47.39834497934688       49.74754229311568       67.27350206885035
C           46.30044215687677       50.24253011846933       68.21388778101917
C           47.83100653449528       48.32320745902363       67.64619278161089
C           46.78020164974092       47.22527123391496       67.39063533630792
C           46.60523919841668       46.35991629930692       68.64021718431025
C           47.15498609604116       46.32421836711968       66.20576573358493
C           47.09573937942804       46.99918117592740       64.83163152881841
C           45.65378789460352       47.36117568018162       64.47302924363524
C           47.65195111387011       46.08765334393058       63.72644503521424
C           49.10260263291138       45.61473909620815       63.87799597873505
C           50.06463873362064       46.78507936068071       64.07704205690320
C           49.54327430626632       44.81475449386571       62.64202652658066
C           48.75335549596424       43.53470147428150       62.34400644117169
C           48.71140001769039       42.60341984562807       63.55673597202993
C           49.38089230522994       42.76651173349486       61.17153693288190
C           49.38053161508818       43.45851032815300       59.80377008798023
C           47.96284394539468       43.83494274503670       59.37331175582856
C           49.99717066197827       42.53998374923265       58.73571098569962
C           51.47482948051979       42.16537292984093       58.91678161712508
C           52.36136720800590       43.40654864894604       58.91239973663249
C           51.88683203578548       41.18372493331012       57.80876721211637
C           53.29810149447804       40.58860548435331       57.97882983675116
C           54.25944535314957       41.17186361970304       56.94077514248194
C           53.32451562809140       39.05940593613619       57.84387001872943
C           52.54161636136492       38.24748512740158       58.88311394204581
C           52.92165154157141       38.63990637082137       60.30990823302500
C           52.82284476970431       36.74618839542595       58.71311668751540
C           52.38779849408395       36.10185302844243       57.38981465290129
C           50.86964115252321       35.96233577816724       57.32710188366893
C           53.09413058106684       34.74514763253333       57.25597369373509
C           52.79145999920282       33.94824373582983       55.98203566583741
C           53.48877603471554       32.58858430148542       56.04411964757514
C           53.14148215211130       34.69612438104692       54.68781836829130
C           54.63167980347262       35.03620053733333       54.47538463692216
C           54.81934015105600       36.54161134006081       54.30643276120900
C           55.16136904004005       34.27419920315777       53.25259119253440
C           56.65169866544203       34.44130667609135       52.91824312630097
C           56.91331251567911       33.78781043697364       51.56080899702037
C           57.53050111204988       33.82827634641166       54.01336333234811
C           59.05029129331245       33.97143648375336       53.84157170924104
C           59.73924103004081       33.14639173318152       54.93188745174155
C           59.52981579778824       35.43154815534607       53.92040502950012
C           59.70396678183398       36.15837619523700       52.58058760739683
C           60.84341900836395       35.55466371671167       51.76159400140272
C           59.97664272606737       37.65131320629303       52.82161522053399
C           59.69659486628107       38.53554560958938       51.59112791971931
C           60.93859634406144       39.33689985170491       51.20174780897641
C           58.53356720506496       39.50844172967683       51.82990873391775
C           57.18102250145686       38.85008210940952       52.12535261642392
C           56.63251874880594       38.12396656034350       50.90067789024710
C           56.18602116702672       39.86119623524368       52.72542027442198
C           55.80736194109322       41.07972807668812       51.86564782634002
C           55.51763229003475       42.27389602867152       52.77622691634561
C           54.58534176110804       40.80853690950889       50.97552601868498
C           54.52576091170804       41.67672560388205       49.70864041995750
C           53.10170530437382       41.68062522640947       49.15801260056416
C           55.52530195145087       41.15803431530345       48.66707694117872
C           55.72821972574162       42.01238018396771       47.40729474817558
C           56.56053814281234       41.20357055512408       46.41041995953423
C           56.40850583625668       43.34681227922430       47.73339871028375
C           56.36674414850985       44.38783202407605       46.60645612516789
C           57.33641182419322       45.52426175818056       46.92827472292655
C           54.95343301702241       44.95075817551849       46.39334100372718
C           54.65326067234529       45.33202884298618       44.93677770221363
C           53.45960395438043       46.28290621070998       44.89037051239335
C           54.36453592487849       44.07691824674312       44.10320613948688
C           54.46814209735106       44.26413956578302       42.58156128757268
C           53.68979183742438       43.15046100869302       41.88356862631912
C           55.93803622958738       44.28825097059796       42.14235000236726
C           56.20313484917120       44.36289618055149       40.63049239833013
C           57.71404452631695       44.35301070402585       40.39489478331048
C           55.55335708176033       45.59890239453122       40.00193530684631
C           55.68037833766062       45.66702614546661       38.48109907016163
C           54.86424908187554       46.82108675452949       37.90905089747487
H           53.22008765051400       59.01515471871678       68.03370427568733
H           54.44389062981624       59.55524172701219       69.18045354081681
H           54.80635249420649       58.23952292007510       68.06454996574625
H           55.20167292908263       47.76731786187419       38.32664160782380
H           54.96811605653629       46.86738394638238       36.82699384475357
H           53.80960635847823       46.70058352639008       38.14694655718043
H           54.49023169102963       45.60188315230639       40.24519366947825
H           55.99449809247284       46.49525224046864       40.44090621014394
H           56.43123173567799       45.14065416292982       42.61504411568510
H           56.42051465388992       43.38091824020428       42.51872033281529
H           54.00619630113546       45.22000106171578       42.31912222563034
H           52.66258228745136       43.13314194806591       42.24092606861715
H           53.66646237589788       43.29649663873585       40.80717578999932
H           54.14059707830536       42.18158031700457       42.09068916117741
H           55.04456713478410       43.27465506975918       44.39646089418897
H           53.35359675439575       43.74001769092870       44.34678621750931
H           54.20419061407913       44.22443515437133       46.71309428029499
H           54.83387362906710       45.83361214209893       47.02542872745333
H           55.78552190128605       43.46887872682456       40.15441402554592
H           58.16381973241296       45.26912507517381       40.77071917852361
H           58.17388145523218       43.51164936540569       40.90948115321738