      -----------------------------------------------------------      
     |                   =====================                   |     
     |                           x T B                           |     
     |                   =====================                   |     
     |                         S. Grimme                         |     
     |          Mulliken Center for Theoretical Chemistry        |     
     |                    University of Bonn                     |     
      -----------------------------------------------------------      

   * xtb version 6.6.1 (8d0f1dd) compiled by 'stahn@M-Bot' on 2023-08-01

   xtb is free software: you can redistribute it and/or modify it under
   the terms of the GNU Lesser General Public License as published by
   the Free Software Foundation, either version 3 of the License, or
   (at your option) any later version.
   
   xtb is distributed in the hope that it will be useful,
   but WITHOUT ANY WARRANTY; without even the implied warranty of
   MERCHANTABILITY or FITNESS FOR A PARTICULAR PURPOSE.  See the
   GNU Lesser General Public License for more details.
   
   Cite this work as:
   * C. Bannwarth, E. Caldeweyher, S. Ehlert, A. Hansen, P. Pracht,
     J. Seibert, S. Spicher, S. Grimme, WIREs Comput. Mol. Sci., 2020, 11,
     e01493. DOI: 10.1002/wcms.1493
   
   for GFN2-xTB:
   * C. Bannwarth, S. Ehlert and S. Grimme., J. Chem. Theory Comput., 2019,
     15, 1652-1671. DOI: 10.1021/acs.jctc.8b01176
   for GFN1-xTB:
   * S. Grimme, C. Bannwarth, P. Shushkov, J. Chem. Theory Comput., 2017,
     13, 1989-2009. DOI: 10.1021/acs.jctc.7b00118
   for GFN0-xTB:
   * P. Pracht, E. Caldeweyher, S. Ehlert, S. Grimme, ChemRxiv, 2019, preprint.
     DOI: 10.26434/chemrxiv.8326202.v1
   for GFN-FF:
   * S. Spicher and S. Grimme, Angew. Chem. Int. Ed., 2020, 59, 15665-15673.
     DOI: 10.1002/anie.202004239
   
   for ALPB and GBSA implicit solvation:
   * S. Ehlert, M. Stahn, S. Spicher, S. Grimme, J. Chem. Theory Comput.,
     2021, 17, 4250-4261. DOI: 10.1021/acs.jctc.1c00471
   
   for DFT-D4:
   * E. Caldeweyher, C. Bannwarth and S. Grimme, J. Chem. Phys., 2017,
     147, 034112. DOI: 10.1063/1.4993215
   * E. Caldeweyher, S. Ehlert, A. Hansen, H. Neugebauer, S. Spicher,
     C. Bannwarth and S. Grimme, J. Chem. Phys., 2019, 150, 154122.
     DOI: 10.1063/1.5090222
   * E. Caldeweyher, J.-M. Mewes, S. Ehlert and S. Grimme, Phys. Chem. Chem. Phys.
     2020, 22, 8499-8512. DOI: 10.1039/D0CP00502A
   
   for sTDA-xTB:
   * S. Grimme and C. Bannwarth, J. Chem. Phys., 2016, 145, 054103.
     DOI: 10.1063/1.4959605
   
   in the mass-spec context:
   * V. Asgeirsson, C. Bauer and S. Grimme, Chem. Sci., 2017, 8, 4879.
     DOI: 10.1039/c7sc00601b
   * J. Koopman and S. Grimme, ACS Omega 2019, 4, 12, 15120-15133.
     DOI: 10.1021/acsomega.9b02011
   
   for metadynamics refer to:
   * S. Grimme, J. Chem. Theory Comput., 2019, 155, 2847-2862
     DOI: 10.1021/acs.jctc.9b00143
   
   for SPH calculations refer to:
   * S. Spicher and S. Grimme, J. Chem. Theory Comput., 2021, 17, 1701-1714
     DOI: 10.1021/acs.jctc.0c01306
   
   with help from (in alphabetical order)
   P. Atkinson, C. Bannwarth, F. Bohle, G. Brandenburg, E. Caldeweyher
   M. Checinski, S. Dohm, S. Ehlert, S. Ehrlich, I. Gerasimov, C. Hölzer
   A. Katbashev, J. Koopman, C. Lavigne, S. Lehtola, F. März, M. Müller,
   F. Musil, H. Neugebauer, J. Pisarek, C. Plett, P. Pracht, F. Pultar,
   J. Seibert, P. Shushkov, S. Spicher, M. Stahn, M. Steiner, T. Strunk,
   J. Stückrath, T. Rose, and J. Unsleber
   
 * started run on 2024/10/04 at 14:12:37.295     

           -------------------------------------------------
          |                Calculation Setup                |
           -------------------------------------------------

          program call               : /home/abt-grimme/AK-bin/xtb input.xyz --input input.inp --opt
          hostname                   : boar048.thch.uni-bonn.de
          coordinate file            : input.xyz
          omp threads                :                     8

   ID    Z sym.   atoms
    1    6 C      1-90, 273-362, 545-634, 817-906, 1089-1178, 1361-1450,
                  1633-1722, 1905-1994, 2177-2266, 2449-2538, 2721-2810,
                  2993-3082, 3265-3354
    2    1 H      91-272, 363-544, 635-816, 907-1088, 1179-1360, 1451-1632,
                  1723-1904, 1995-2176, 2267-2448, 2539-2720, 2811-2992,
                  3083-3264, 3355-3536

molecular fragmentation (1/2 indicates fragments):
111111111111111111111111111111111111111111111111111111111111111111111111
111111111111111111111111111111111111111111111111111111111111111111111111
111111111111111111111111111111111111111111111111111111111111111111111111
111111111111111111111111111111111111111111111111111111112222222222222222
222222222222222222222222222222222222222222222222222222222222222222222222
222222222222222222222222222222222222222222222222222222222222222222222222
222222222222222222222222222222222222222222222222222222222222222222222222
222222222222222222222222222222222222222222222222222222222222222222222222
222222222222222222222222222222222222222222222222222222222222222222222222
222222222222222222222222222222222222222222222222222222222222222222222222
222222222222222222222222222222222222222222222222222222222222222222222222
222222222222222222222222222222222222222222222222222222222222222222222222
222222222222222222222222222222222222222222222222222222222222222222222222
222222222222222222222222222222222222222222222222222222222222222222222222
222222222222222222222222222222222222222222222222222222222222222222222222
222222222222222222222222222222222222222222222222222222222222222222222222
222222222222222222222222222222222222222222222222222222222222222222222222
222222222222222222222222222222222222222222222222222222222222222222222222
222222222222222222222222222222222222222222222222222222222222222222222222
222222222222222222222222222222222222222222222222222222222222222222222222
222222222222222222222222222222222222222222222222222222222222222222222222
222222222222222222222222222222222222222222222222222222222222222222222222
222222222222222222222222222222222222222222222222222222222222222222222222
222222222222222222222222222222222222222222222222222222222222222222222222
222222222222222222222222222222222222222222222222222222222222222222222222
222222222222222222222222222222222222222222222222222222222222222222222222
222222222222222222222222222222222222222222222222222222222222222222222222
222222222222222222222222222222222222222222222222222222222222222222222222
222222222222222222222222222222222222222222222222222222222222222222222222
222222222222222222222222222222222222222222222222222222222222222222222222
222222222222222222222222222222222222222222222222222222222222222222222222
222222222222222222222222222222222222222222222222222222222222222222222222
222222222222222222222222222222222222222222222222222222222222222222222222
222222222222222222222222222222222222222222222222222222222222222222222222
222222222222222222222222222222222222222222222222222222222222222222222222
222222222222222222222222222222222222222222222222222222222222222222222222
222222222222222222222222222222222222222222222222222222222222222222222222
222222222222222222222222222222222222222222222222222222222222222222222222
222222222222222222222222222222222222222222222222222222222222222222222222
222222222222222222222222222222222222222222222222222222222222222222222222
222222222222222222222222222222222222222222222222222222222222222222222222
222222222222222222222222222222222222222222222222222222222222222222222222
222222222222222222222222222222222222222222222222222222222222222222222222
222222222222222222222222222222222222222222222222222222222222222222222222
222222222222222222222222222222222222222222222222222222222222222222222222
222222222222222222222222222222222222222222222222222222222222222222222222
222222222222222222222222222222222222222222222222222222222222222222222222
222222222222222222222222222222222222222222222222222222222222222222222222
222222222222222222222222222222222222222222222222222222222222222222222222
22222222
# atoms in fragment 1/2:   272  3264
 fragment masses (1/2) :     1264.41    15172.94
CMA distance (Bohr)    :  22.531
constraining FC (au)   :  0.0500

           -------------------------------------------------
          |                 G F N 2 - x T B                 |
           -------------------------------------------------

        Reference                      10.1021/acs.jctc.8b01176
      * Hamiltonian:
        H0-scaling (s, p, d)           1.850000    2.230000    2.230000
        zeta-weighting                 0.500000
      * Dispersion:
        s8                             2.700000
        a1                             0.520000
        a2                             5.000000
        s9                             5.000000
      * Repulsion:
        kExp                           1.500000    1.000000
        rExp                           1.000000
      * Coulomb:
        alpha                          2.000000
        third order                    shell-resolved
        anisotropic                    true
        a3                             3.000000
        a5                             4.000000
        cn-shift                       1.200000
        cn-exp                         4.000000
        max-rad                        5.000000


          ...................................................
          :                      SETUP                      :
          :.................................................:
          :  # basis functions                7046          :
          :  # atomic orbitals                7046          :
          :  # shells                         4706          :
          :  # electrons                      7046          :
          :  max. iterations                   250          :
          :  Hamiltonian                  GFN2-xTB          :
          :  restarted?                      false          :
          :  GBSA solvation                  false          :
          :  PC potential                    false          :
          :  electronic temp.          300.0000000     K    :
          :  accuracy                    1.0000000          :
          :  -> integral cutoff          0.2500000E+02      :
          :  -> integral neglect         0.1000000E-07      :
          :  -> SCF convergence          0.1000000E-05 Eh   :
          :  -> wf. convergence          0.1000000E-03 e    :
          :  Broyden damping             0.4000000          :
          ...................................................

 iter      E             dE          RMSdq      gap      omega  full diag
   1  -3766.6973694 -0.376670E+04  0.226E+00   11.46       0.0  T
   2  -3771.7703580 -0.507299E+01  0.126E+00   11.40       1.0  T
   3  -3771.9820261 -0.211668E+00  0.559E-01   11.35       1.0  T
   4  -3772.0037784 -0.217524E-01  0.142E-01   11.36       1.0  T
   5  -3772.0232747 -0.194962E-01  0.511E-02   11.36       1.0  T
   6  -3772.0232968 -0.220942E-04  0.727E-03   11.36       1.0  T
   7  -3772.0233294 -0.326121E-04  0.154E-03   11.36       1.1  T
   8  -3772.0233313 -0.192238E-05  0.548E-04   11.36       3.1  T
   9  -3772.0233314 -0.996665E-07  0.184E-04   11.36       9.1  T
  10  -3772.0233314 -0.158097E-07  0.705E-05   11.36      23.9  T

   *** convergence criteria satisfied after 10 iterations ***

         #    Occupation            Energy/Eh            Energy/eV
      -------------------------------------------------------------
         1        2.0000           -0.6272993             -17.0697
       ...           ...                  ...                  ...
      3517        2.0000           -0.3955977             -10.7648
      3518        2.0000           -0.3954748             -10.7614
      3519        2.0000           -0.3952506             -10.7553
      3520        2.0000           -0.3952074             -10.7541
      3521        2.0000           -0.3949941             -10.7483
      3522        2.0000           -0.3940070             -10.7215
      3523        2.0000           -0.3929346             -10.6923 (HOMO)
      3524                          0.0246937               0.6720 (LUMO)
      3525                          0.0275195               0.7488
      3526                          0.0295074               0.8029
      3527                          0.0298327               0.8118
      3528                          0.0299455               0.8149
       ...                                ...                  ...
      7046                          0.3829717              10.4212
      -------------------------------------------------------------
                  HL-Gap            0.4176283 Eh           11.3642 eV
             Fermi-level           -0.1841205 Eh           -5.0102 eV

 SCC (total)                   0 d,  0 h, 17 min,  7.438 sec
 SCC setup                      ...        0 min,  0.492 sec (  0.048%)
 Dispersion                     ...        0 min,  4.105 sec (  0.400%)
 classical contributions        ...        0 min,  0.148 sec (  0.014%)
 integral evaluation            ...        0 min,  7.098 sec (  0.691%)
 iterations                     ...       12 min, 35.935 sec ( 73.575%)
 molecular gradient             ...        4 min,  8.867 sec ( 24.222%)
 printout                       ...        0 min, 10.793 sec (  1.051%)

         :::::::::::::::::::::::::::::::::::::::::::::::::::::
         ::                     SUMMARY                     ::
         :::::::::::::::::::::::::::::::::::::::::::::::::::::
         :: total energy           -3716.244872606133 Eh    ::
         :: gradient norm              0.019283241302 Eh/a0 ::
         :: HOMO-LUMO gap             11.364245740334 eV    ::
         ::.................................................::
         :: SCC energy             -3772.023331435033 Eh    ::
         :: -> isotropic ES            0.586190838109 Eh    ::
         :: -> anisotropic ES          1.295827108668 Eh    ::
         :: -> anisotropic XC          2.078924377851 Eh    ::
         :: -> dispersion             -4.530999457741 Eh    ::
         :: repulsion energy          55.108151176951 Eh    ::
         :: add. restraining           0.000000000000 Eh    ::
         :: total charge              -0.000000000008 e     ::
         :::::::::::::::::::::::::::::::::::::::::::::::::::::

      ----------------------------------------------------------- 
     |              Fast Inertial Relaxation Engine              |
      ----------------------------------------------------------- 

          ...................................................
          :                      SETUP                      :
          :.................................................:
          :   energy convergence        0.5000000E-05 Eh    :
          :   grad. convergence         0.1000000E-02 Eh/a0 :
          :   optimization log               true           :
          :   writing optlog all                1     steps :
          :   Hessian reset                    20     steps :
          :   time step scaling                 5     steps :
          :   maximium step len.        1.0000000     a0    :
          :   initial time step         0.2500000     fs    :
          :   maximum time step         1.2500000     fs    :
          :   power reset thr           0.0000000     au    :
          :   alpha parameter           0.1000000           :
          :   BFGS update                   false           :
          :   preconditioning               false           :
          ...................................................

........................................................................
.............................. CYCLE    1 ..............................
........................................................................

 iter      E             dE          RMSdq      gap      omega  full diag
   1  -3772.0268193 -0.377203E+04  0.258E-04   11.36       0.0  T
   2  -3772.0268194 -0.283981E-07  0.152E-04   11.36      11.0  T
   3  -3772.0268194 -0.496584E-09  0.491E-05   11.36      34.2  T
     SCC iter.                  ...        3 min, 41.330 sec
     gradient                   ...        4 min,  9.194 sec
 * total energy  : -3716.2449146 Eh     change    :  -0.4199309E-04 Eh
   gradient norm :     0.0178726 Eh/a0  converged?    E=F G=F D=F
   time step     :     0.2500000 fs     power     :   0.2143036E-08
   step length   :     0.0022600 a0     speed     :   0.2186628E-03

........................................................................
.............................. CYCLE    2 ..............................
........................................................................

 iter      E             dE          RMSdq      gap      omega  full diag
   1  -3772.0318933 -0.377203E+04  0.377E-04   11.36       0.0  T
   2  -3772.0318934 -0.575410E-07  0.224E-04   11.36       7.5  T
   3  -3772.0318934 -0.894943E-09  0.690E-05   11.36      24.4  T
     SCC iter.                  ...        3 min, 47.221 sec
     gradient                   ...        4 min,  9.324 sec
 * total energy  : -3716.2449703 Eh     change    :  -0.5572480E-04 Eh
   gradient norm :     0.0158512 Eh/a0  converged?    E=F G=F D=F
   time step     :     0.2500000 fs     power     :   0.2776250E-08
   step length   :     0.0033070 a0     speed     :   0.3199659E-03

........................................................................
.............................. CYCLE    3 ..............................
........................................................................

 iter      E             dE          RMSdq      gap      omega  full diag
   1  -3772.0383271 -0.377204E+04  0.483E-04   11.36       0.0  T
   2  -3772.0383272 -0.924206E-07  0.287E-04   11.36       5.9  T
   3  -3772.0383272 -0.147520E-08  0.870E-05   11.36      19.3  T
     SCC iter.                  ...        3 min, 45.459 sec
     gradient                   ...        4 min, 10.994 sec
 * total energy  : -3716.2450319 Eh     change    :  -0.6156536E-04 Eh
   gradient norm :     0.0133512 Eh/a0  converged?    E=F G=F D=F
   time step     :     0.2500000 fs     power     :   0.2976088E-08
   step length   :     0.0042339 a0     speed     :   0.4096519E-03

........................................................................
.............................. CYCLE    4 ..............................
........................................................................

 iter      E             dE          RMSdq      gap      omega  full diag
   1  -3772.0458225 -0.377205E+04  0.571E-04   11.36       0.0  T
   2  -3772.0458226 -0.125817E-06  0.339E-04   11.37       5.0  T
   3  -3772.0458226 -0.194495E-08  0.101E-04   11.37      16.7  T
     SCC iter.                  ...        3 min, 41.870 sec
     gradient                   ...        4 min,  9.233 sec
 * total energy  : -3716.2450910 Eh     change    :  -0.5908679E-04 Eh
   gradient norm :     0.0105823 Eh/a0  converged?    E=F G=F D=F
   time step     :     0.2500000 fs     power     :   0.2736551E-08
   step length   :     0.0050088 a0     speed     :   0.4846322E-03

........................................................................
.............................. CYCLE    5 ..............................
........................................................................

 iter      E             dE          RMSdq      gap      omega  full diag
   1  -3772.0540016 -0.377205E+04  0.639E-04   11.37       0.0  T
   2  -3772.0540018 -0.150849E-06  0.380E-04   11.37       4.4  T
   3  -3772.0540018 -0.230557E-08  0.109E-04   11.37      15.4  T
     SCC iter.                  ...        3 min, 47.210 sec
     gradient                   ...        4 min, 10.488 sec
 * total energy  : -3716.2451402 Eh     change    :  -0.4920365E-04 Eh
   gradient norm :     0.0079017 Eh/a0  converged?    E=F G=F D=F
   time step     :     0.2500000 fs     power     :   0.2131993E-08
   step length   :     0.0056044 a0     speed     :   0.5422532E-03

........................................................................
.............................. CYCLE    6 ..............................
........................................................................

 iter      E             dE          RMSdq      gap      omega  full diag
   1  -3772.0632501 -0.377206E+04  0.755E-04   11.37       0.0  T
   2  -3772.0632503 -0.197269E-06  0.449E-04   11.37       3.7  T
   3  -3772.0632503 -0.310183E-08  0.123E-04   11.37      13.7  T
     SCC iter.                  ...        3 min, 45.253 sec
     gradient                   ...        4 min, 10.208 sec
 * total energy  : -3716.2451774 Eh     change    :  -0.3719504E-04 Eh
   gradient norm :     0.0058569 Eh/a0  converged?    E=F G=F D=F
   time step     :     0.2750000 fs     power     :   0.1221640E-08
   step length   :     0.0066342 a0     speed     :   0.5835413E-03

........................................................................
.............................. CYCLE    7 ..............................
........................................................................

 iter      E             dE          RMSdq      gap      omega  full diag
   1  -3772.0726753 -0.377207E+04  0.847E-04   11.37       0.0  T
   2  -3772.0726755 -0.212070E-06  0.505E-04   11.37       3.3  T
   3  -3772.0726756 -0.311002E-08  0.123E-04   11.37      13.7  T
     SCC iter.                  ...        3 min, 46.131 sec
     gradient                   ...        4 min,  9.761 sec
 * total energy  : -3716.2451965 Eh     change    :  -0.1909238E-04 Eh
   gradient norm :     0.0058807 Eh/a0  converged?    E=F G=F D=F
   time step     :     0.3025000 fs     power     :   0.2620280E-09
   step length   :     0.0074316 a0     speed     :   0.5942571E-03

........................................................................
.............................. CYCLE    8 ..............................
........................................................................

 iter      E             dE          RMSdq      gap      omega  full diag
   1  -3772.0807615 -0.377208E+04  0.882E-04   11.37       0.0  T
   2  -3772.0807616 -0.168963E-06  0.526E-04   11.37       3.2  T
   3  -3772.0807616 -0.251066E-08  0.102E-04   11.37      16.6  T
     SCC iter.                  ...        3 min, 43.714 sec
     gradient                   ...        4 min,  9.436 sec
 * total energy  : -3716.2451993 Eh     change    :  -0.2792824E-05 Eh
   gradient norm :     0.0074905 Eh/a0  converged?    E=T G=F D=F
   time step     :     0.3327500 fs     power     :  -0.3426638E-09
   step length   :     0.0076947 a0     speed     :   0.5593557E-03

........................................................................
.............................. CYCLE    9 ..............................
........................................................................
 * reset velocities

 iter      E             dE          RMSdq      gap      omega  full diag
   1  -3772.0804857 -0.377208E+04  0.300E-05   11.37       0.0  T
   2  -3772.0804857 -0.114687E-08  0.145E-05   11.37     116.2  T
   3  -3772.0804857 -0.954969E-11  0.792E-06   11.37     212.4  T
     SCC iter.                  ...        3 min, 44.813 sec
     gradient                   ...        4 min, 11.323 sec
 * total energy  : -3716.2452007 Eh     change    :  -0.1451169E-05 Eh
   gradient norm :     0.0073708 Eh/a0  converged?    E=T G=F D=T
   time step     :     0.1663750 fs     power     :   0.1142789E-09
   step length   :     0.0001944 a0     speed     :   0.2826342E-04

........................................................................
.............................. CYCLE   10 ..............................
........................................................................

 iter      E             dE          RMSdq      gap      omega  full diag
   1  -3772.0799386 -0.377208E+04  0.459E-05   11.37       0.0  T
   2  -3772.0799386 -0.688942E-09  0.272E-05   11.37      61.8  T
   3  -3772.0799386 -0.245564E-10  0.744E-06   11.37     226.1  T
     SCC iter.                  ...        3 min, 44.644 sec
     gradient                   ...        4 min, 10.931 sec
 * total energy  : -3716.2452035 Eh     change    :  -0.2796142E-05 Eh
   gradient norm :     0.0071285 Eh/a0  converged?    E=T G=F D=T
   time step     :     0.1663750 fs     power     :   0.2192483E-09
   step length   :     0.0003857 a0     speed     :   0.5607463E-04

........................................................................
.............................. CYCLE   11 ..............................
........................................................................

 iter      E             dE          RMSdq      gap      omega  full diag
   1  -3772.0791317 -0.377208E+04  0.665E-05   11.37       0.0  T
   2  -3772.0791317 -0.128057E-08  0.394E-05   11.37      42.6  T
   3  -3772.0791317 -0.582077E-10  0.108E-05   11.37     155.1  T
     SCC iter.                  ...        3 min, 45.346 sec
     gradient                   ...        4 min, 10.164 sec
 * total energy  : -3716.2452075 Eh     change    :  -0.3967221E-05 Eh
   gradient norm :     0.0067749 Eh/a0  converged?    E=T G=F D=T
   time step     :     0.1663750 fs     power     :   0.3081762E-09
   step length   :     0.0005707 a0     speed     :   0.8296899E-04

........................................................................
.............................. CYCLE   12 ..............................
........................................................................

 iter      E             dE          RMSdq      gap      omega  full diag
   1  -3772.0780821 -0.377208E+04  0.869E-05   11.37       0.0  T
   2  -3772.0780821 -0.223599E-08  0.516E-05   11.37      32.6  T
   3  -3772.0780821 -0.500222E-11  0.140E-05   11.37     120.2  T
     SCC iter.                  ...        3 min, 45.201 sec
     gradient                   ...        4 min,  9.964 sec
 * total energy  : -3716.2452124 Eh     change    :  -0.4883080E-05 Eh
   gradient norm :     0.0063209 Eh/a0  converged?    E=T G=F D=T
   time step     :     0.1663750 fs     power     :   0.3756574E-09
   step length   :     0.0007464 a0     speed     :   0.1085183E-03

........................................................................
.............................. CYCLE   13 ..............................
........................................................................

 iter      E             dE          RMSdq      gap      omega  full diag
   1  -3772.0768128 -0.377208E+04  0.106E-04   11.37       0.0  T
   2  -3772.0768128 -0.330874E-08  0.628E-05   11.37      26.8  T
   3  -3772.0768128  0.291038E-10  0.168E-05   11.37     100.1  T
     SCC iter.                  ...        3 min, 45.713 sec
     gradient                   ...        4 min, 11.436 sec
 * total energy  : -3716.2452179 Eh     change    :  -0.5495911E-05 Eh
   gradient norm :     0.0057828 Eh/a0  converged?    E=F G=F D=T
   time step     :     0.1663750 fs     power     :   0.4180382E-09
   step length   :     0.0009102 a0     speed     :   0.1323255E-03

........................................................................
.............................. CYCLE   14 ..............................
........................................................................

 iter      E             dE          RMSdq      gap      omega  full diag
   1  -3772.0753528 -0.377208E+04  0.123E-04   11.37       0.0  T
   2  -3772.0753528 -0.434784E-08  0.728E-05   11.37      23.1  T
   3  -3772.0753528  0.409273E-10  0.192E-05   11.37      87.6  T
     SCC iter.                  ...        3 min, 45.190 sec
     gradient                   ...        4 min, 10.471 sec
 * total energy  : -3716.2452236 Eh     change    :  -0.5788615E-05 Eh
   gradient norm :     0.0051826 Eh/a0  converged?    E=F G=F D=F
   time step     :     0.1663750 fs     power     :   0.4337777E-09
   step length   :     0.0010595 a0     speed     :   0.1540328E-03

........................................................................
.............................. CYCLE   15 ..............................
........................................................................

 iter      E             dE          RMSdq      gap      omega  full diag
   1  -3772.0735574 -0.377207E+04  0.153E-04   11.36       0.0  T
   2  -3772.0735574 -0.656610E-08  0.907E-05   11.36      18.5  T
   3  -3772.0735574 -0.113232E-09  0.236E-05   11.36      71.3  T
     SCC iter.                  ...        3 min, 39.601 sec
     gradient                   ...        4 min,  9.060 sec
 * total energy  : -3716.2452300 Eh     change    :  -0.6340091E-05 Eh
   gradient norm :     0.0044823 Eh/a0  converged?    E=F G=F D=F
   time step     :     0.1830125 fs     power     :   0.4210757E-09
   step length   :     0.0013261 a0     speed     :   0.1752671E-03

........................................................................
.............................. CYCLE   16 ..............................
........................................................................

 iter      E             dE          RMSdq      gap      omega  full diag
   1  -3772.0714195 -0.377207E+04  0.186E-04   11.36       0.0  T
   2  -3772.0714195 -0.943419E-08  0.110E-04   11.36      15.3  T
   3  -3772.0714195 -0.795808E-10  0.278E-05   11.36      60.4  T
     SCC iter.                  ...        3 min, 47.450 sec
     gradient                   ...        4 min,  9.233 sec
 * total energy  : -3716.2452364 Eh     change    :  -0.6439388E-05 Eh
   gradient norm :     0.0037320 Eh/a0  converged?    E=F G=F D=F
   time step     :     0.2013138 fs     power     :   0.3755319E-09
   step length   :     0.0016232 a0     speed     :   0.1950302E-03

........................................................................
.............................. CYCLE   17 ..............................
........................................................................

 iter      E             dE          RMSdq      gap      omega  full diag
   1  -3772.0689777 -0.377207E+04  0.219E-04   11.36       0.0  T
   2  -3772.0689777 -0.123196E-07  0.130E-04   11.36      12.9  T
   3  -3772.0689777 -0.682121E-11  0.314E-05   11.36      53.6  T
     SCC iter.                  ...        3 min, 44.659 sec
     gradient                   ...        4 min, 16.209 sec
 * total energy  : -3716.2452424 Eh     change    :  -0.5973898E-05 Eh
   gradient norm :     0.0030640 Eh/a0  converged?    E=F G=F D=F
   time step     :     0.2214451 fs     power     :   0.2989987E-09
   step length   :     0.0019400 a0     speed     :   0.2119114E-03

........................................................................
.............................. CYCLE   18 ..............................
........................................................................

 iter      E             dE          RMSdq      gap      omega  full diag
   1  -3772.0663606 -0.377207E+04  0.250E-04   11.36       0.0  T
   2  -3772.0663606 -0.142536E-07  0.148E-04   11.36      11.3  T
   3  -3772.0663606 -0.110958E-09  0.329E-05   11.36      51.1  T
     SCC iter.                  ...        3 min, 40.777 sec
     gradient                   ...        4 min,  9.810 sec
 * total energy  : -3716.2452473 Eh     change    :  -0.4934594E-05 Eh
   gradient norm :     0.0027267 Eh/a0  converged?    E=T G=F D=F
   time step     :     0.2435896 fs     power     :   0.2054189E-09
   step length   :     0.0022532 a0     speed     :   0.2237483E-03

........................................................................
.............................. CYCLE   19 ..............................
........................................................................

 iter      E             dE          RMSdq      gap      omega  full diag
   1  -3772.0638333 -0.377206E+04  0.271E-04   11.36       0.0  T
   2  -3772.0638333 -0.137520E-07  0.161E-04   11.36      10.4  T
   3  -3772.0638333 -0.141881E-09  0.307E-05   11.36      54.7  T
     SCC iter.                  ...        3 min, 46.898 sec
     gradient                   ...        4 min, 10.740 sec
 * total energy  : -3716.2452510 Eh     change    :  -0.3710191E-05 Eh
   gradient norm :     0.0028880 Eh/a0  converged?    E=T G=F D=F
   time step     :     0.2679486 fs     power     :   0.1242658E-09
   step length   :     0.0025213 a0     speed     :   0.2276091E-03

........................................................................
.............................. CYCLE   20 ..............................
........................................................................

 iter      E             dE          RMSdq      gap      omega  full diag
   1  -3772.0617447 -0.377206E+04  0.279E-04   11.36       0.0  T
   2  -3772.0617447 -0.105215E-07  0.166E-04   11.36      10.1  T
   3  -3772.0617447 -0.201453E-09  0.247E-05   11.36      68.0  T
     SCC iter.                  ...        3 min, 48.870 sec
     gradient                   ...        4 min, 11.408 sec
 * total energy  : -3716.2452540 Eh     change    :  -0.2941319E-05 Eh
   gradient norm :     0.0033274 Eh/a0  converged?    E=T G=F D=F
   time step     :     0.2947435 fs     power     :   0.8646643E-10
   step length   :     0.0027222 a0     speed     :   0.2234077E-03
 * RMSD in coord.:     0.0006857 a0     energy gain  -0.3813756E-03 Eh

........................................................................
.............................. CYCLE   21 ..............................
........................................................................

 iter      E             dE          RMSdq      gap      omega  full diag
   1  -3772.0606808 -0.377206E+04  0.215E-04   11.36       0.0  T
   2  -3772.0606808 -0.381806E-08  0.128E-04   11.36      13.2  T
   3  -3772.0606808 -0.214186E-09  0.137E-05   11.36     123.1  T
     SCC iter.                  ...        3 min, 45.286 sec
     gradient                   ...        4 min, 10.683 sec
 * total energy  : -3716.2452564 Eh     change    :  -0.2449497E-05 Eh
   gradient norm :     0.0036109 Eh/a0  converged?    E=T G=F D=F
   time step     :     0.2500000 fs     power     :   0.1061441E-09
   step length   :     0.0022080 a0     speed     :   0.2136338E-03

........................................................................
.............................. CYCLE   22 ..............................
........................................................................

 iter      E             dE          RMSdq      gap      omega  full diag
   1  -3772.0603257 -0.377206E+04  0.199E-04   11.36       0.0  T
   2  -3772.0603257 -0.219097E-08  0.117E-04   11.36      14.3  T
   3  -3772.0603257 -0.165983E-09  0.111E-05   11.36     151.9  T
     SCC iter.                  ...        3 min, 48.777 sec
     gradient                   ...        4 min, 10.305 sec
 * total energy  : -3716.2452595 Eh     change    :  -0.3058046E-05 Eh
   gradient norm :     0.0036807 Eh/a0  converged?    E=T G=F D=F
   time step     :     0.2500000 fs     power     :   0.1482815E-09
   step length   :     0.0021370 a0     speed     :   0.2067689E-03

........................................................................
.............................. CYCLE   23 ..............................
........................................................................

 iter      E             dE          RMSdq      gap      omega  full diag
   1  -3772.0606356 -0.377206E+04  0.192E-04   11.36       0.0  T
   2  -3772.0606356 -0.243745E-08  0.112E-04   11.36      15.0  T
   3  -3772.0606356 -0.964064E-10  0.134E-05   11.36     125.2  T
     SCC iter.                  ...        3 min, 41.536 sec
     gradient                   ...        4 min, 11.053 sec
 * total energy  : -3716.2452633 Eh     change    :  -0.3849762E-05 Eh
   gradient norm :     0.0035180 Eh/a0  converged?    E=T G=F D=F
   time step     :     0.2500000 fs     power     :   0.1907891E-09
   step length   :     0.0021143 a0     speed     :   0.2045680E-03

........................................................................
.............................. CYCLE   24 ..............................
........................................................................

 iter      E             dE          RMSdq      gap      omega  full diag
   1  -3772.0615404 -0.377206E+04  0.192E-04   11.36       0.0  T
   2  -3772.0615404 -0.386626E-08  0.112E-04   11.36      15.1  T
   3  -3772.0615404 -0.102773E-09  0.185E-05   11.36      91.0  T
     SCC iter.                  ...        3 min, 43.544 sec
     gradient                   ...        4 min,  9.710 sec
 * total energy  : -3716.2452677 Eh     change    :  -0.4383103E-05 Eh
   gradient norm :     0.0031478 Eh/a0  converged?    E=T G=F D=F
   time step     :     0.2500000 fs     power     :   0.2166730E-09
   step length   :     0.0021362 a0     speed     :   0.2066856E-03

........................................................................
.............................. CYCLE   25 ..............................
........................................................................

 iter      E             dE          RMSdq      gap      omega  full diag
   1  -3772.0629511 -0.377206E+04  0.197E-04   11.36       0.0  T
   2  -3772.0629511 -0.617774E-08  0.114E-04   11.36      14.7  T
   3  -3772.0629511 -0.381988E-10  0.235E-05   11.36      71.7  T
     SCC iter.                  ...        3 min, 46.367 sec
     gradient                   ...        4 min, 10.679 sec
 * total energy  : -3716.2452722 Eh     change    :  -0.4476383E-05 Eh
   gradient norm :     0.0026277 Eh/a0  converged?    E=T G=F D=F
   time step     :     0.2500000 fs     power     :   0.2164780E-09
   step length   :     0.0021872 a0     speed     :   0.2116241E-03

........................................................................
.............................. CYCLE   26 ..............................
........................................................................

 iter      E             dE          RMSdq      gap      omega  full diag
   1  -3772.0649644 -0.377206E+04  0.224E-04   11.36       0.0  T
   2  -3772.0649644 -0.100558E-07  0.129E-04   11.36      13.0  T
   3  -3772.0649644 -0.563887E-10  0.303E-05   11.36      55.5  T
     SCC iter.                  ...        3 min, 42.586 sec
     gradient                   ...        4 min, 10.785 sec
 * total energy  : -3716.2452767 Eh     change    :  -0.4476152E-05 Eh
   gradient norm :     0.0020071 Eh/a0  converged?    E=T G=F D=F
   time step     :     0.2750000 fs     power     :   0.1844780E-09
   step length   :     0.0024865 a0     speed     :   0.2187151E-03

........................................................................
.............................. CYCLE   27 ..............................
........................................................................

 iter      E             dE          RMSdq      gap      omega  full diag
   1  -3772.0675034 -0.377207E+04  0.250E-04   11.36       0.0  T
   2  -3772.0675034 -0.139103E-07  0.144E-04   11.36      11.7  T
   3  -3772.0675034 -0.654836E-10  0.354E-05   11.36      47.5  T
     SCC iter.                  ...        3 min, 48.869 sec
     gradient                   ...        4 min, 11.228 sec
 * total energy  : -3716.2452804 Eh     change    :  -0.3760530E-05 Eh
   gradient norm :     0.0015832 Eh/a0  converged?    E=T G=F D=F
   time step     :     0.3025000 fs     power     :   0.1246819E-09
   step length   :     0.0028182 a0     speed     :   0.2253506E-03

........................................................................
.............................. CYCLE   28 ..............................
........................................................................

 iter      E             dE          RMSdq      gap      omega  full diag
   1  -3772.0702589 -0.377207E+04  0.259E-04   11.36       0.0  T
   2  -3772.0702589 -0.143382E-07  0.149E-04   11.36      11.3  T
   3  -3772.0702589 -0.254659E-10  0.353E-05   11.36      47.6  T
     SCC iter.                  ...        3 min, 45.050 sec
     gradient                   ...        4 min,  9.656 sec
 * total energy  : -3716.2452830 Eh     change    :  -0.2586150E-05 Eh
   gradient norm :     0.0017713 Eh/a0  converged?    E=T G=F D=F
   time step     :     0.3327500 fs     power     :   0.6440651E-10
   step length   :     0.0031154 a0     speed     :   0.2264699E-03

........................................................................
.............................. CYCLE   29 ..............................
........................................................................

 iter      E             dE          RMSdq      gap      omega  full diag
   1  -3772.0727019 -0.377207E+04  0.244E-04   11.36       0.0  T
   2  -3772.0727019 -0.959380E-08  0.140E-04   11.36      12.0  T
   3  -3772.0727019 -0.800355E-10  0.278E-05   11.36      60.6  T
     SCC iter.                  ...        3 min, 42.128 sec
     gradient                   ...        4 min,  9.322 sec
 * total energy  : -3716.2452849 Eh     change    :  -0.1847441E-05 Eh
   gradient norm :     0.0022678 Eh/a0  converged?    E=T G=F D=F
   time step     :     0.3660250 fs     power     :   0.4143066E-10
   step length   :     0.0032998 a0     speed     :   0.2180691E-03

........................................................................
.............................. CYCLE   30 ..............................
........................................................................

 iter      E             dE          RMSdq      gap      omega  full diag
   1  -3772.0744148 -0.377207E+04  0.217E-04   11.36       0.0  T
   2  -3772.0744148 -0.373711E-08  0.125E-04   11.36      13.4  T
   3  -3772.0744148 -0.100044E-09  0.160E-05   11.36     104.9  T
     SCC iter.                  ...        3 min, 45.957 sec
     gradient                   ...        4 min, 10.451 sec
 * total energy  : -3716.2452872 Eh     change    :  -0.2293847E-05 Eh
   gradient norm :     0.0025775 Eh/a0  converged?    E=T G=F D=F
   time step     :     0.4026275 fs     power     :   0.6222545E-10
   step length   :     0.0034556 a0     speed     :   0.2076053E-03

........................................................................
.............................. CYCLE   31 ..............................
........................................................................

 iter      E             dE          RMSdq      gap      omega  full diag
   1  -3772.0751107 -0.377208E+04  0.199E-04   11.36       0.0  T
   2  -3772.0751107 -0.128966E-08  0.117E-04   11.36      14.4  T
   3  -3772.0751107 -0.877662E-10  0.905E-06   11.36     185.8  T
     SCC iter.                  ...        3 min, 45.192 sec
     gradient                   ...        4 min, 11.694 sec
 * total energy  : -3716.2452909 Eh     change    :  -0.3720312E-05 Eh
   gradient norm :     0.0024872 Eh/a0  converged?    E=T G=F D=F
   time step     :     0.4428903 fs     power     :   0.1021579E-09
   step length   :     0.0037078 a0     speed     :   0.2025067E-03

........................................................................
.............................. CYCLE   32 ..............................
........................................................................

 iter      E             dE          RMSdq      gap      omega  full diag
   1  -3772.0746572 -0.377207E+04  0.208E-04   11.36       0.0  T
   2  -3772.0746572 -0.525188E-08  0.125E-04   11.36      13.5  T
   3  -3772.0746572  0.818545E-10  0.187E-05   11.36      89.8  T
     SCC iter.                  ...        3 min, 40.820 sec
     gradient                   ...        4 min, 10.078 sec
 * total energy  : -3716.2452960 Eh     change    :  -0.5136012E-05 Eh
   gradient norm :     0.0020044 Eh/a0  converged?    E=F G=F D=F
   time step     :     0.4871793 fs     power     :   0.1233601E-09
   step length   :     0.0041340 a0     speed     :   0.2052583E-03

........................................................................
.............................. CYCLE   33 ..............................
........................................................................

 iter      E             dE          RMSdq      gap      omega  full diag
   1  -3772.0732235 -0.377207E+04  0.233E-04   11.36       0.0  T
   2  -3772.0732235 -0.142441E-07  0.142E-04   11.36      11.8  T
   3  -3772.0732235 -0.372893E-10  0.340E-05   11.36      49.5  T
     SCC iter.                  ...        3 min, 42.298 sec
     gradient                   ...        4 min, 11.453 sec
 * total energy  : -3716.2453013 Eh     change    :  -0.5289837E-05 Eh
   gradient norm :     0.0015390 Eh/a0  converged?    E=F G=F D=F
   time step     :     0.5358972 fs     power     :   0.1024923E-09
   step length   :     0.0047197 a0     speed     :   0.2130351E-03

........................................................................
.............................. CYCLE   34 ..............................
........................................................................

 iter      E             dE          RMSdq      gap      omega  full diag
   1  -3772.0716199 -0.377207E+04  0.237E-04   11.36       0.0  T
   2  -3772.0716199 -0.175710E-07  0.146E-04   11.36      11.6  T
   3  -3772.0716199 -0.121872E-09  0.373E-05   11.36      45.1  T
     SCC iter.                  ...        3 min, 48.625 sec
     gradient                   ...        4 min, 11.425 sec
 * total energy  : -3716.2453056 Eh     change    :  -0.4338572E-05 Eh
   gradient norm :     0.0017747 Eh/a0  converged?    E=T G=F D=F
   time step     :     0.5894869 fs     power     :   0.6809199E-10
   step length   :     0.0053326 a0     speed     :   0.2188161E-03

........................................................................
.............................. CYCLE   35 ..............................
........................................................................

 iter      E             dE          RMSdq      gap      omega  full diag
   1  -3772.0711405 -0.377207E+04  0.221E-04   11.36       0.0  T
   2  -3772.0711405 -0.814816E-08  0.135E-04   11.36      12.5  T
   3  -3772.0711405 -0.659384E-10  0.208E-05   11.36      80.7  T
     SCC iter.                  ...        3 min, 44.561 sec
     gradient                   ...        4 min, 11.695 sec
 * total energy  : -3716.2453101 Eh     change    :  -0.4432277E-05 Eh
   gradient norm :     0.0021009 Eh/a0  converged?    E=T G=F D=F
   time step     :     0.6484356 fs     power     :   0.7426181E-10
   step length   :     0.0058434 a0     speed     :   0.2179773E-03

........................................................................
.............................. CYCLE   36 ..............................
........................................................................

 iter      E             dE          RMSdq      gap      omega  full diag
   1  -3772.0726240 -0.377207E+04  0.264E-04   11.36       0.0  T
   2  -3772.0726240 -0.330738E-08  0.155E-04   11.36      10.8  T
   3  -3772.0726240 -0.100954E-09  0.157E-05   11.36     106.9  T
     SCC iter.                  ...        3 min, 42.042 sec
     gradient                   ...        4 min,  9.233 sec
 * total energy  : -3716.2453163 Eh     change    :  -0.6252390E-05 Eh
   gradient norm :     0.0018417 Eh/a0  converged?    E=F G=F D=F
   time step     :     0.7132792 fs     power     :   0.1024639E-09
   step length   :     0.0064931 a0     speed     :   0.2201962E-03

........................................................................
.............................. CYCLE   37 ..............................
........................................................................

 iter      E             dE          RMSdq      gap      omega  full diag
   1  -3772.0760264 -0.377208E+04  0.347E-04   11.36       0.0  T
   2  -3772.0760264 -0.149121E-07  0.201E-04   11.36       8.3  T
   3  -3772.0760264  0.227374E-10  0.357E-05   11.36      47.1  T
     SCC iter.                  ...        3 min, 42.421 sec
     gradient                   ...        4 min,  9.370 sec
 * total energy  : -3716.2453234 Eh     change    :  -0.7112805E-05 Eh
   gradient norm :     0.0014103 Eh/a0  converged?    E=F G=F D=F
   time step     :     0.7846071 fs     power     :   0.9232672E-10
   step length   :     0.0074421 a0     speed     :   0.2294350E-03

........................................................................
.............................. CYCLE   38 ..............................
........................................................................

 iter      E             dE          RMSdq      gap      omega  full diag
   1  -3772.0795241 -0.377208E+04  0.342E-04   11.36       0.0  T
   2  -3772.0795242 -0.182790E-07  0.199E-04   11.36       8.5  T
   3  -3772.0795242 -0.372893E-09  0.375E-05   11.36      44.9  T
     SCC iter.                  ...        3 min, 51.660 sec
     gradient                   ...        4 min, 10.632 sec
 * total energy  : -3716.2453296 Eh     change    :  -0.6203367E-05 Eh
   gradient norm :     0.0017516 Eh/a0  converged?    E=F G=F D=F
   time step     :     0.8630678 fs     power     :   0.6936350E-10
   step length   :     0.0084773 a0     speed     :   0.2375892E-03

........................................................................
.............................. CYCLE   39 ..............................
........................................................................

 iter      E             dE          RMSdq      gap      omega  full diag
   1  -3772.0804626 -0.377208E+04  0.276E-04   11.37       0.0  T
   2  -3772.0804626 -0.826776E-08  0.162E-04   11.37      10.4  T
   3  -3772.0804626 -0.326509E-09  0.279E-05   11.37      60.3  T
     SCC iter.                  ...        3 min, 40.360 sec
     gradient                   ...        4 min,  9.591 sec
 * total energy  : -3716.2453372 Eh     change    :  -0.7534749E-05 Eh
   gradient norm :     0.0016904 Eh/a0  converged?    E=F G=F D=F
   time step     :     0.9493746 fs     power     :   0.8990435E-10
   step length   :     0.0094620 a0     speed     :   0.2410784E-03

........................................................................
.............................. CYCLE   40 ..............................
........................................................................

 iter      E             dE          RMSdq      gap      omega  full diag
   1  -3772.0782486 -0.377208E+04  0.344E-04   11.37       0.0  T
   2  -3772.0782487 -0.241107E-07  0.204E-04   11.37       8.2  T
   3  -3772.0782487  0.243290E-09  0.502E-05   11.37      33.5  T
     SCC iter.                  ...        3 min, 44.628 sec
     gradient                   ...        4 min, 10.213 sec
 * total energy  : -3716.2453459 Eh     change    :  -0.8688453E-05 Eh
   gradient norm :     0.0013920 Eh/a0  converged?    E=F G=F D=F
   time step     :     1.0443120 fs     power     :   0.8254586E-10
   step length   :     0.0108342 a0     speed     :   0.2509473E-03

........................................................................
.............................. CYCLE   41 ..............................
........................................................................

 iter      E             dE          RMSdq      gap      omega  full diag
   1  -3772.0763721 -0.377208E+04  0.361E-04   11.37       0.0  T
   2  -3772.0763721 -0.140517E-07  0.214E-04   11.37       7.8  T
   3  -3772.0763721 -0.209184E-10  0.317E-05   11.37      53.1  T
     SCC iter.                  ...        3 min, 45.803 sec
     gradient                   ...        4 min, 11.319 sec
 * total energy  : -3716.2453544 Eh     change    :  -0.8518485E-05 Eh
   gradient norm :     0.0016608 Eh/a0  converged?    E=F G=F D=F
   time step     :     1.1487432 fs     power     :   0.7673268E-10
   step length   :     0.0123279 a0     speed     :   0.2595866E-03

........................................................................
.............................. CYCLE   42 ..............................
........................................................................

 iter      E             dE          RMSdq      gap      omega  full diag
   1  -3772.0784652 -0.377208E+04  0.404E-04   11.37       0.0  T
   2  -3772.0784652 -0.204036E-07  0.235E-04   11.37       7.2  T
   3  -3772.0784652 -0.268301E-10  0.455E-05   11.37      36.9  T
     SCC iter.                  ...        3 min, 41.454 sec
     gradient                   ...        4 min,  9.741 sec
 * total energy  : -3716.2453646 Eh     change    :  -0.1020802E-04 Eh
   gradient norm :     0.0013098 Eh/a0  converged?    E=F G=F D=F
   time step     :     1.2500000 fs     power     :   0.8312232E-10
   step length   :     0.0138515 a0     speed     :   0.2680419E-03
 * RMSD in coord.:     0.0017359 a0     energy gain  -0.1106162E-03 Eh

........................................................................
.............................. CYCLE   43 ..............................
........................................................................

 iter      E             dE          RMSdq      gap      omega  full diag
   1  -3772.0789343 -0.377208E+04  0.684E-05   11.37       0.0  T
   2  -3772.0789343 -0.591172E-09  0.402E-05   11.37      41.8  T
   3  -3772.0789343  0.318323E-11  0.657E-06   11.37     255.9  T
     SCC iter.                  ...        3 min, 46.565 sec
     gradient                   ...        4 min, 10.159 sec
 * total energy  : -3716.2453664 Eh     change    :  -0.1809865E-05 Eh
   gradient norm :     0.0013060 Eh/a0  converged?    E=T G=F D=F
   time step     :     0.2500000 fs     power     :   0.9260866E-10
   step length   :     0.0026651 a0     speed     :   0.2578663E-03

........................................................................
.............................. CYCLE   44 ..............................
........................................................................

 iter      E             dE          RMSdq      gap      omega  full diag
   1  -3772.0793651 -0.377208E+04  0.653E-05   11.37       0.0  T
   2  -3772.0793651 -0.608452E-09  0.382E-05   11.37      44.0  T
   3  -3772.0793651 -0.331966E-10  0.821E-06   11.37     204.8  T
     SCC iter.                  ...        3 min, 46.352 sec
     gradient                   ...        4 min, 10.677 sec
 * total energy  : -3716.2453684 Eh     change    :  -0.1953642E-05 Eh
   gradient norm :     0.0012241 Eh/a0  converged?    E=T G=F D=F
   time step     :     0.2500000 fs     power     :   0.1000420E-09
   step length   :     0.0025877 a0     speed     :   0.2503702E-03

........................................................................
.............................. CYCLE   45 ..............................
........................................................................

 iter      E             dE          RMSdq      gap      omega  full diag
   1  -3772.0796921 -0.377208E+04  0.730E-05   11.37       0.0  T
   2  -3772.0796921 -0.677119E-09  0.428E-05   11.37      39.2  T
   3  -3772.0796921 -0.645741E-10  0.818E-06   11.37     205.5  T
     SCC iter.                  ...        3 min, 45.506 sec
     gradient                   ...        4 min, 11.899 sec
 * total energy  : -3716.2453704 Eh     change    :  -0.2042606E-05 Eh
   gradient norm :     0.0011004 Eh/a0  converged?    E=T G=F D=F
   time step     :     0.2500000 fs     power     :   0.1020993E-09
   step length   :     0.0025395 a0     speed     :   0.2457088E-03

........................................................................
.............................. CYCLE   46 ..............................
........................................................................

 iter      E             dE          RMSdq      gap      omega  full diag
   1  -3772.0798752 -0.377208E+04  0.826E-05   11.37       0.0  T
   2  -3772.0798752 -0.726232E-09  0.484E-05   11.37      34.7  T
   3  -3772.0798752 -0.118234E-10  0.803E-06   11.37     209.5  T
     SCC iter.                  ...        3 min, 42.715 sec
     gradient                   ...        4 min, 11.388 sec
 * total energy  : -3716.2453724 Eh     change    :  -0.1972918E-05 Eh
   gradient norm :     0.0009983 Eh/a0  converged?    E=T G=T D=F
   time step     :     0.2500000 fs     power     :   0.9894023E-10
   step length   :     0.0025154 a0     speed     :   0.2433740E-03

   *** GEOMETRY OPTIMIZATION CONVERGED AFTER 46 CYCLES ***

------------------------------------------------------------------------
 total energy gain   :        -0.0004998 Eh       -0.3136 kcal/mol
 total RMSD          :         0.0022044 a0        0.0012 Å
 total power (kW/mol):        -0.0285250 (step)   -0.0001 (real)
------------------------------------------------------------------------

 FIRE (total)                  0 d,  6 h, 21 min, 52.237 sec
 setup                          ...        0 min,  0.135 sec (  0.001%)
 velocities                     ...        0 min,  0.003 sec (  0.000%)
 propagation                    ...        0 min,  0.006 sec (  0.000%)
 singlepoint calculation        ...      381 min, 51.250 sec ( 99.996%)
 log and printout               ...        0 min,  0.773 sec (  0.003%)
 preconditioner                 ...        0 min,  0.000 sec (  0.000%)
 model hessian                  ...        0 min,  0.000 sec (  0.000%)
 hessian update                 ...        0 min,  0.000 sec (  0.000%)

================
 final structure:
================
3536
 xtb: 6.6.1 (8d0f1dd)
C           53.55724023919035       63.09981013999458       71.95379850566374
C           53.19798616210269       64.17225168890968       70.92821655828848
C           52.06209164089888       63.67328827706339       70.03513614851930
C           54.40149583873382       64.55158231306577       70.05695854650480
C           55.60202130430441       65.15937169794556       70.79324023615651
C           55.21340918142884       66.43755871963411       71.53706269361317
C           56.73207729565567       65.49171499767647       69.80647400974462
C           57.38324418802677       64.29579286510564       69.10317503793004
C           58.08986631941002       63.38634726650963       70.10904790608910
C           58.40075513661113       64.76065823538519       68.04924782682585
C           57.85560737919666       65.65521573588056       66.92718909654720
C           56.59154027473130       65.07216475518915       66.29625445869706
C           58.90901203104952       65.85960416950087       65.82608109711941
C           60.21640792996507       66.52993819220288       66.26135996209509
C           59.95006962584952       67.90008544384295       66.88745985097684
C           61.17341948735458       66.71982922770272       65.07370546797659
C           61.63937395389613       65.46172553871757       64.32253733284102
C           62.18317340895326       64.40536218299080       65.27740803358630
C           62.70942635910824       65.89643971624044       63.30844402505098
C           63.30961145761864       64.81559522520278       62.39474797779004
C           64.45323148848820       65.44934534796933       61.60170057769176
C           62.23704330305788       64.21755963340622       61.47578804528251
C           62.71976231428740       63.23494037736936       60.39481212607068
C           61.50947936943903       62.79092015729389       59.57256363355328
C           63.43383849537579       62.03261232176744       61.02225675414117
C           63.94807344970886       60.95841960593439       60.05085541772311
C           64.32232075548727       59.71291213314449       60.85485336151267
C           65.15268552299038       61.46381814009328       59.24738020750994
C           65.54827324419227       60.55730718133072       58.07345367716453
C           66.95860077772964       60.90306243446847       57.59865636244083
C           64.55699825126949       60.67060671770330       56.90109090896627
C           63.95252025914756       59.34234721992259       56.43377721370075
C           65.04180384211880       58.38160720129856       55.96077959515173
C           62.97358488340006       59.57407368712177       55.27431193067193
C           61.67374385975341       60.30124183252086       55.64199882570775
C           60.69674750191938       59.33497059483275       56.30220494736216
C           61.07154797351024       60.92846415780451       54.37854692843913
C           59.74353823890145       61.67898923907943       54.55408215818110
C           59.30796474964411       62.21659540620937       53.19237395032952
C           59.88492119428838       62.81099086530990       55.57617829947424
C           58.61909670505645       63.62758423686678       55.87585238677222
C           58.98834943016068       64.71987856776579       56.87848364442986
C           57.50410930783054       62.71772627188487       56.40625148535575
C           56.25895290379163       63.41273192706650       56.97856012908597
C           55.25349004219851       62.33776763892004       57.38995333736818
C           55.64519239965014       64.39337052064667       55.97363465707719
C           54.44046522870394       65.21798828417010       56.46179349164586
C           54.10018496066913       66.23547884426486       55.37144710913476
C           54.75078618828486       65.89936815382130       57.80028385277840
C           53.73868507593646       66.93530106138635       58.31298048373528
C           54.20515634300823       67.45337180214472       59.67402034487791
C           52.26338180253713       66.49335372718085       58.35912185531507
C           51.77481156329529       65.67657851295989       59.56188308142119
C           52.36584369427900       64.26857062877598       59.58065778407697
C           50.24215726920870       65.55362041737509       59.53888658132256
C           49.44670892482755       66.85928906630537       59.66255209480001
C           49.78752174868310       67.60279335932736       60.95181302722757
C           47.94081186888202       66.55895887787645       59.60317384757028
C           47.10082509900218       67.73153067869825       59.08027614538983
C           45.62008134098053       67.45165945851134       59.33605885467272
C           47.36016278234972       67.98027488969419       57.58016863637118
C           48.03672462396243       69.32127792517041       57.26500455949159
C           47.04157400919291       70.47076002282920       57.41204043081368
C           48.62565169823840       69.30504939347104       55.84647386035817
C           49.97960446833194       68.58533271696589       55.75562207930839
C           51.11116020073956       69.54472825048060       56.12153756085780
C           50.21333620625352       68.00281765458394       54.35520312242055
C           49.43784422060987       66.70645794169121       54.08638963732846
C           50.09929166601317       65.52624823285350       54.79796286759409
C           49.36194163817117       66.40258327656937       52.58372190859182
C           48.42153253423322       67.30196184763771       51.77321697445925
C           46.95851131213553       67.01639178678651       52.11470056579496
C           48.62022439734604       67.08424033992627       50.26586528383774
C           49.95217882113600       67.56137090070159       49.67670611592801
C           50.09086428474212       69.08030992101763       49.78049961801833
C           50.06640592059055       67.15366541171237       48.20018377281365
C           50.19381394731536       65.65387707356054       47.90513408092576
C           51.48433924640869       65.07425909821345       48.48469384949695
C           50.17206021829445       65.40969568350435       46.38791034063818
C           48.80348220188580       65.56166755686671       45.71445392425814
C           47.87989581772672       64.40316975380000       46.09034953421125
C           48.93518754877596       65.59436224872682       44.18449469490736
C           49.68448725186268       66.78812918216532       43.57794805895520
C           49.15118152224868       68.12074332867466       44.10492215493764
C           49.55465687532531       66.78244621304879       42.04639405366844
C           50.17887498504378       65.58720548742428       41.31650675370565
C           51.70195437714805       65.61379841657889       41.42768834555790
C           49.77781547862504       65.58447241367662       39.83454896110747
C           48.32860063518589       65.17685232143631       39.57876086308368
C           48.01927883527210       65.12963677596490       38.08719684111252
H           54.28707829975901       63.46754987308089       72.67019341327203
H           52.67063241551533       62.79256455715294       72.50441847022572
H           53.97076430869880       62.22474430351105       71.45600071252042
H           48.66036811467114       64.40677752861220       37.58676940240581
H           46.98320782743931       64.84559335099729       37.91521290458545
H           48.18538585067257       66.10424260261293       37.63337686709413
H           49.95336220023927       66.57701102436899       39.41264431670201
H           50.42515872920905       64.88300444505606       39.30212100811803
H           48.49110771411714       66.83257604633104       41.80512047732434
H           50.01917667966779       67.69250700964830       41.65684696650207
H           50.74384902814909       66.72218406409750       43.84103542758687
H           49.61077205868287       68.94905085123172       43.56899957174620
H           48.07376664443831       68.18292315626712       43.96485504467434
H           49.37352005205474       68.24283858412861       45.16146621306644
H           49.43233755531876       64.67243937890272       43.87624462611260
H           47.92802902955263       65.58013774682502       43.75975112258799
H           50.88129742960766       66.10006450930018       45.92774355212317
H           50.52718897280136       64.39552650386891       46.19260035865688
H           49.81586853351659       64.65806200946746       41.76459179287608
H           52.09981049079199       66.51620214156951       40.96704257619707
H           52.01460327894807       65.58961227978799       42.46734087638634
H           52.13575900319223       64.75207509660235       40.92462655211117
H           48.33008014510495       66.48774278449116       46.04813416690962
H           46.91206330438225       64.52095259752106       45.60865508521036
H           48.30610742687509       63.45626903920449       45.76759884289043
H           47.71875582775263       64.35595415534858       47.16368958261969
H           49.35419734914805       65.12118315600542       48.35678787022361
H           51.51208716358252       65.17881825623515       49.56618043901157
H           51.55783105358452       64.01375649789125       48.25200111296294
H           52.35342894751137       65.57806647326021       48.06547917545031
H           49.18855784392807       67.54328057038774       47.68046923245377
H           50.94145716266049       67.65239910122878       47.77450659791096
H           50.77950221013646       67.11074503350254       50.23014059169129
H           50.11343450680874       69.40145932932379       50.81812914086328
H           51.01409916622700       69.41050886296016       49.30970719388149
H           49.25765724866204       69.57353248901889       49.28364969347536
H           48.50972394236697       66.01660782834172       50.07195469404077
H           47.81563040472346       67.59906744864385       49.73393079172876
H           48.62323165287365       68.34892213298762       52.01226951907162
H           46.30216827679103       67.68400601511441       51.56046570161828
H           46.70074809724432       65.99201119768077       51.85396031535596
H           46.76342322323008       67.15957732970701       53.17414449495892
H           50.37321263585419       66.47854285050394       52.18037278509837
H           49.03570598861339       65.36809669518254       52.45130448068903
H           48.42359267678513       66.80934787048369       54.48131142363877
H           51.10584306812208       65.37000307651948       54.41536219215218
H           50.16424439015122       65.70022550740420       55.86909546038802
H           49.52629114988995       64.61590502479343       54.63834639149200
H           49.93788406062798       68.76085271464817       53.62036555466536
H           51.27885550854627       67.79891419907551       54.22229371545095
H           49.98967783785487       67.76265452239623       56.47559652326523
H           50.94426220572085       69.98591382702442       57.10184630945663
H           52.06667838421197       69.02486773171516       56.14359487642415
H           51.17619241120126       70.34763250774328       55.38953561713128
H           47.90339014638959       68.83048914845803       55.17976493850710
H           48.75640309889343       70.33187834932068       55.49691942333073
H           48.85257162795480       69.48194752290689       57.97810634986381
H           46.25211752901472       70.38388403185765       56.66795899104032
H           46.58300532481288       70.46334374319856       58.39827578195833
H           47.53693763890698       71.43013353807568       57.27459484395433
H           47.97742614522888       67.17141861010974       57.18630906284574
H           46.41339247041373       67.94578340408489       57.03684526696506
H           47.37424674254726       68.62932773485375       59.64341716679337
H           45.00556780027321       68.27567774132704       58.98066428249125
H           45.31167178714008       66.54418356269915       58.82058105771756
H           45.43147118328007       67.32044610798046       60.39979046651209
H           47.75971116870674       65.70094473587994       58.95217918082004
H           47.59727489104542       66.28356006000293       60.60341537660987
H           49.69281184270881       67.50403075016970       58.81637733697474
H           49.11494172749958       68.44477928417574       61.09542243446553
H           49.69089236373903       66.93773066762442       61.80795042808001
H           50.80396020156779       67.98721658240531       60.92791888947838
H           49.95666716028923       65.05588912850980       58.60765100402169
H           49.94115934965228       64.89902091608499       60.36256870867972
H           52.05853596085768       66.18586311090405       60.48449307106585
H           51.88808976367964       63.66484008208813       60.35140089249698
H           52.20514639947039       63.78145017453105       58.62183830004086
H           53.43123813699121       64.28731714584265       59.78888260040403
H           51.67998059456337       67.41510651379127       58.33805427505090
H           52.02700842765577       65.94023626231990       57.44924543021884
H           53.77148986105071       67.78188157288386       57.61622076216685
H           55.19823506293462       67.89156341226065       59.59568526674321
H           53.52572116754448       68.21682645845617       60.04731355520639
H           54.25164752194995       66.64514765962898       60.39974720408725
H           54.88061824807135       65.12986098840481       58.55951927119272
H           55.71013506177092       66.41708190630665       57.69630952033305
H           53.58425246800698       64.54967688916517       56.59043310451344
H           53.99191643345301       65.73445002053994       54.41082327380328
H           53.17148417446010       66.75622805841158       55.58667136775295
H           54.89653157548987       66.97275989929183       55.28112693916324
H           56.41399597483405       65.10113634064533       55.66031465757758
H           55.33932894938820       63.83345667062110       55.08517314668359
H           56.56225474512984       63.96037671913746       57.87367057256622
H           54.38987183991438       62.77362053961290       57.88277155020763
H           54.91167358316824       61.78541790915301       56.51651182501946
H           55.71505279601633       61.63366909684201       58.07903825928781
H           57.18377162698194       62.05450844129223       55.60126634363166
H           57.92429913522258       62.09102180468310       57.19817305188459
H           58.28294725396701       64.10699659309152       54.95224795323037
H           58.16729455905230       65.40990352004563       57.04607348967576
H           59.25954164794731       64.27155006722181       57.83209640583827
H           59.83637515803161       65.29366834547038       56.51025047151662
H           60.23020904572900       62.39322689191298       56.52340177869907
H           60.65924666282189       63.49467660290891       55.21723786117033
H           58.98769676509982       60.96963584411782       54.89937656073066
H           59.27791485740070       61.41269937885804       52.46050032675456
H           58.31713972136835       62.65735999456816       53.24826919509934
H           60.00568501212852       62.97353500051395       52.84048748865307
H           61.80247528728282       61.62361928982003       53.95736160066683
H           60.91769659059499       60.13540502451042       53.64186381717121
H           61.90892153233981       61.10233370746563       56.34621876413582
H           60.35831386745091       58.60045275189015       55.57437794391372
H           61.17547829722930       58.80571291472294       57.12178148544302
H           59.83213102441727       59.86195540661567       56.69754851660586
H           63.49657618140417       60.14333640157550       54.50372330338786
H           62.71194478134659       58.60652263871764       54.84160901891329
H           63.42272461420474       58.87909048835170       57.27283566128131
H           65.75411362076510       58.16527286104355       56.75272177357709
H           64.60388205423651       57.44190637159585       55.63136648343086
H           65.58198274214705       58.81786162168228       55.12238436465828
H           63.74871842100769       61.34476980120373       57.18386969317137
H           65.06295877751539       61.12541342424585       56.04737192745194
H           65.56172177219386       59.52668615890041       58.43559904989955
H           67.24103217539080       60.27483371608482       56.75689956656804
H           67.00722828422791       61.94361437093569       57.28465893436400
H           67.68201445883329       60.75089859148240       58.39501626929457
H           64.94293538383737       62.46186683417900       58.85826593800756
H           66.00336745697656       61.55251056330288       59.92851987410872
H           63.14665069553443       60.68338076031626       59.36066431370129
H           63.48629663490145       59.39411260790992       61.47349263072883
H           64.59085357526151       58.88501328918014       60.20407116294653
H           65.16485748505754       59.92514285647150       61.50933324513185
H           64.28442860127775       62.38534672743614       61.60784700208854
H           62.73365062639864       61.55963279324310       61.71627014883821
H           63.40501818004445       63.75884633349425       59.72357226010949
H           61.81505443976250       62.26647026331904       58.67131813321291
H           60.87088475789329       62.12918454794002       60.15473163712228
H           60.92378446411600       63.65679806442895       59.27306883629559
H           61.50240896066695       63.69811362268420       62.09381270746140
H           61.72141839123737       65.04224931612536       60.97678417194653
H           63.73361821411876       64.02303189605493       63.01665207813272
H           65.18122714016961       65.89169381904172       62.27884423920895
H           64.96842408179120       64.71133494822172       60.99330873877369
H           64.07469206355105       66.23687847348005       60.95319090726645
H           62.28176537688203       66.67422396483494       62.67085971605705
H           63.53078810571849       66.35079377715122       63.86967381363088
H           60.78887287749190       65.04050752630913       63.77856647414182
H           61.40700907173725       64.05723940160750       65.95423664289311
H           62.55261131562619       63.54855836603763       64.72125735321224
H           63.00153624724151       64.80932242819104       65.86928541324619
H           60.69548881536550       67.38903979352192       64.35332326697574
H           62.06377744591456       67.23215687922774       65.44939285279982
H           60.71466496576731       65.90687593911662       67.00843794745374
H           59.41707410779711       67.80561761279509       67.82950243464445
H           60.88754608557714       68.41610596141935       67.08512935122388
H           59.35435247865016       68.51569630372445       66.21617900802315
H           59.13765708505542       64.88403108605820       65.39185416236738
H           58.46457883014998       66.47119214024848       65.03784828908316
H           57.60054330848219       66.63305895290387       67.34225985773138
H           56.24978182416662       65.71539378053338       65.48900157242058
H           56.78596844259026       64.08210697301745       65.89158807763964
H           55.78698604155695       64.99705809079981       67.02152749991285
H           59.20139344842202       65.29444779211425       68.56584357019925
H           58.84349040807418       63.87004926945207       67.59291971481936
H           56.61358794979192       63.70586213911485       68.59996390121401
H           58.64571844224226       62.60636554172616       69.59301468276450
H           58.78875279179758       63.95912338550710       70.71437209629566
H           57.37470506215497       62.90427329008801       70.77019185104002
H           56.32554075927109       66.17254636264008       69.05666349356940
H           57.51503816249691       66.03197732145016       70.34573908752952
H           55.97573958968973       64.44030044927219       71.52596332115786
H           54.78015532706554       67.16269072619430       70.85067643422616
H           54.49199038778010       66.23336509061514       72.32341845078459
H           56.09032270121502       66.88764375539185       71.99814700289788
H           54.72566281110123       63.64976193079138       69.53368588333859
H           54.06677699988364       65.26702791957625       69.30040468310143
H           52.84137055422855       65.06021079042449       71.45904679102811
H           51.78078958399360       64.43380595497668       69.31041612222101
H           52.36602903945601       62.77952176898139       69.49473423432495
H           51.18578157828845       63.42945593039659       70.63147851289398
H           48.15065663379578       64.19129948559977       40.01585707997666
H           47.64843892537151       65.88212656946861       40.05966108162576
C           54.02602114717149       58.68351250125028       68.68158094703523
C           53.52274762440076       57.67338101832255       69.70917907877906
C           54.62061606035182       57.39534181909200       70.73595355906203
C           53.09311454268545       56.35478480098970       69.05319920551372
C           52.01719422764644       56.46457576597064       67.96597572780288
C           50.75969316891733       57.16241082058635       68.48582100560822
C           51.62145339205367       55.07562895799811       67.43951864837440
C           52.75150674108269       54.22656107047628       66.84616270165536
C           53.47563916570309       54.97451339460719       65.72612351001568
C           52.22027677390601       52.89859799611214       66.28226926198171
C           51.46124893648925       51.98351187886488       67.25395657960125
[...]
  3287   6 C     3288   6 C                                       1.5288805
  3289   6 C     3290   6 C                                       1.5338241
  3290   6 C     3291   6 C                                       1.5278135
  3290   6 C     3292   6 C                                       1.5368704
  3292   6 C     3293   6 C                                       1.5351916
  3293   6 C     3294   6 C                                       1.5272535
  3293   6 C     3295   6 C                                       1.5353979
  3295   6 C     3296   6 C                                       1.5353523
  3296   6 C     3297   6 C                                       1.5291146
  3296   6 C     3298   6 C                                       1.5398199
  3298   6 C     3299   6 C                                       1.5323155
  3299   6 C     3300   6 C                                       1.5285485
  3299   6 C     3301   6 C                                       1.5363119
  3301   6 C     3302   6 C                                       1.5371731
  3302   6 C     3303   6 C                                       1.5259329
  3302   6 C     3304   6 C                                       1.5358414
  3304   6 C     3305   6 C                                       1.5364488
  3305   6 C     3306   6 C                                       1.5289098
  3305   6 C     3307   6 C                                       1.5337765
  3307   6 C     3308   6 C                                       1.5369544
  3308   6 C     3309   6 C                                       1.5292464
  3308   6 C     3310   6 C                                       1.5332331
  3310   6 C     3311   6 C                                       1.5366355
  3311   6 C     3312   6 C                                       1.5290767
  3311   6 C     3313   6 C                                       1.5333254
  3313   6 C     3314   6 C                                       1.5353614
  3314   6 C     3315   6 C                                       1.5294178
  3314   6 C     3316   6 C                                       1.5400730
  3316   6 C     3317   6 C                                       1.5353791
  3317   6 C     3318   6 C                                       1.5274609
  3317   6 C     3319   6 C                                       1.5352110
  3319   6 C     3320   6 C                                       1.5349489
  3320   6 C     3321   6 C                                       1.5280293
  3320   6 C     3322   6 C                                       1.5355304
  3322   6 C     3323   6 C                                       1.5345164
  3323   6 C     3324   6 C                                       1.5267833
  3323   6 C     3325   6 C                                       1.5336694
  3325   6 C     3326   6 C                                       1.5346903
  3326   6 C     3327   6 C                                       1.5286488
  3326   6 C     3328   6 C                                       1.5342496
  3328   6 C     3329   6 C                                       1.5395200
  3329   6 C     3330   6 C                                       1.5303704
  3329   6 C     3331   6 C                                       1.5349197
  3331   6 C     3332   6 C                                       1.5353480
  3332   6 C     3333   6 C                                       1.5286776
  3334   6 C     3335   6 C                                       1.5365344
  3335   6 C     3336   6 C                                       1.5277928
  3335   6 C     3337   6 C                                       1.5343451
  3337   6 C     3338   6 C                                       1.5355173
  3338   6 C     3339   6 C                                       1.5303995
  3338   6 C     3340   6 C                                       1.5375964
  3340   6 C     3341   6 C                                       1.5325719
  3341   6 C     3342   6 C                                       1.5286603
  3341   6 C     3343   6 C                                       1.5379007
  3343   6 C     3344   6 C                                       1.5334132
  3344   6 C     3345   6 C                                       1.5275101
  3344   6 C     3346   6 C                                       1.5372685
  3346   6 C     3347   6 C                                       1.5333183
  3347   6 C     3348   6 C                                       1.5295401
  3347   6 C     3349   6 C                                       1.5364059
  3349   6 C     3350   6 C                                       1.5343445
  3350   6 C     3351   6 C                                       1.5285477
  3350   6 C     3352   6 C                                       1.5364965
  3352   6 C     3353   6 C                                       1.5270505
  3353   6 C     3354   6 C                                       1.5239605
  3265   6 C     3355   1 H                                       1.0881533
  3265   6 C     3356   1 H                                       1.0868436
  3265   6 C     3357   1 H                                       1.0878840
  3354   6 C     3358   1 H                                       1.0878646
  3354   6 C     3359   1 H                                       1.0880860
  3354   6 C     3360   1 H                                       1.0877523
  3352   6 C     3361   1 H                                       1.0929788
  3352   6 C     3362   1 H                                       1.0934121
  3349   6 C     3363   1 H                                       1.0921610
  3349   6 C     3364   1 H                                       1.0935943
  3347   6 C     3365   1 H                                       1.0927382
  3348   6 C     3366   1 H                                       1.0868776
  3348   6 C     3367   1 H                                       1.0883795
  3348   6 C     3368   1 H                                       1.0880183
  3346   6 C     3369   1 H                                       1.0917218
  3346   6 C     3370   1 H                                       1.0937662
  3343   6 C     3371   1 H                                       1.0914219
  3343   6 C     3372   1 H                                       1.0938974
  3350   6 C     3373   1 H                                       1.0948224
  3351   6 C     3374   1 H                                       1.0863994
  3351   6 C     3375   1 H                                       1.0886271
  3351   6 C     3376   1 H                                       1.0879468
  3344   6 C     3377   1 H                                       1.0925441
  3345   6 C     3378   1 H                                       1.0874718
  3345   6 C     3379   1 H                                       1.0872408
  3345   6 C     3380   1 H                                       1.0859809
  3341   6 C     3381   1 H                                       1.0931435
  3342   6 C     3382   1 H                                       1.0881343
  3342   6 C     3383   1 H                                       1.0883678
  3342   6 C     3384   1 H                                       1.0859498
  3340   6 C     3385   1 H                                       1.0919254
  3340   6 C     3386   1 H                                       1.0938452
  3338   6 C     3387   1 H                                       1.0935455
  3339   6 C     3388   1 H                                       1.0864464
  3339   6 C     3389   1 H                                       1.0881584
  3339   6 C     3390   1 H                                       1.0883462
  3337   6 C     3391   1 H                                       1.0904527
  3337   6 C     3392   1 H                                       1.0911655
  3335   6 C     3393   1 H                                       1.0947365
  3336   6 C     3394   1 H                                       1.0865991
  3336   6 C     3395   1 H                                       1.0873134
  3336   6 C     3396   1 H                                       1.0877125
  3334   6 C     3397   1 H                                       1.0930213
  3334   6 C     3398   1 H                                       1.0905580
  3332   6 C     3399   1 H                                       1.0922062
  3333   6 C     3400   1 H                                       1.0872149
  3333   6 C     3401   1 H                                       1.0884138
  3333   6 C     3402   1 H                                       1.0884281
  3331   6 C     3403   1 H                                       1.0921820
  3331   6 C     3404   1 H                                       1.0939735
  3329   6 C     3405   1 H                                       1.0927167
  3330   6 C     3406   1 H                                       1.0881732
  3330   6 C     3407   1 H                                       1.0887095
  3330   6 C     3408   1 H                                       1.0881397
  3328   6 C     3409   1 H                                       1.0910470
  3328   6 C     3410   1 H                                       1.0927563
  3326   6 C     3411   1 H                                       1.0931202
  3327   6 C     3412   1 H                                       1.0880808
  3327   6 C     3413   1 H                                       1.0881656
  3327   6 C     3414   1 H                                       1.0871251
  3325   6 C     3415   1 H                                       1.0917924
  3325   6 C     3416   1 H                                       1.0929472
  3323   6 C     3417   1 H                                       1.0942030
  3324   6 C     3418   1 H                                       1.0875596
  3324   6 C     3419   1 H                                       1.0868245
  3324   6 C     3420   1 H                                       1.0879465
  3322   6 C     3421   1 H                                       1.0911946
  3322   6 C     3422   1 H                                       1.0924375
  3320   6 C     3423   1 H                                       1.0934198
  3321   6 C     3424   1 H                                       1.0873341
  3321   6 C     3425   1 H                                       1.0878807
  3321   6 C     3426   1 H                                       1.0880605
  3319   6 C     3427   1 H                                       1.0930500
  3319   6 C     3428   1 H                                       1.0931777
  3317   6 C     3429   1 H                                       1.0934763
  3318   6 C     3430   1 H                                       1.0885583
  3318   6 C     3431   1 H                                       1.0874483
  3318   6 C     3432   1 H                                       1.0870434
  3316   6 C     3433   1 H                                       1.0908373
  3316   6 C     3434   1 H                                       1.0922118
  3314   6 C     3435   1 H                                       1.0934192
  3315   6 C     3436   1 H                                       1.0883542
  3315   6 C     3437   1 H                                       1.0879447
  3315   6 C     3438   1 H                                       1.0880483
  3313   6 C     3439   1 H                                       1.0914109
  3313   6 C     3440   1 H                                       1.0933673
  3311   6 C     3441   1 H                                       1.0918240
  3312   6 C     3442   1 H                                       1.0883308
  3312   6 C     3443   1 H                                       1.0883569
  3312   6 C     3444   1 H                                       1.0869049
  3310   6 C     3445   1 H                                       1.0916070
  3310   6 C     3446   1 H                                       1.0937309
  3308   6 C     3447   1 H                                       1.0927163
  3309   6 C     3448   1 H                                       1.0874742
  3309   6 C     3449   1 H                                       1.0881442
  3309   6 C     3450   1 H                                       1.0866418
  3307   6 C     3451   1 H                                       1.0920766
  3307   6 C     3452   1 H                                       1.0935328
  3305   6 C     3453   1 H                                       1.0930472
  3306   6 C     3454   1 H                                       1.0879314
  3306   6 C     3455   1 H                                       1.0866117
  3306   6 C     3456   1 H                                       1.0883429
  3304   6 C     3457   1 H                                       1.0929486
  3304   6 C     3458   1 H                                       1.0932929
  3302   6 C     3459   1 H                                       1.0928637
  3303   6 C     3460   1 H                                       1.0881655
  3303   6 C     3461   1 H                                       1.0868835
  3303   6 C     3462   1 H                                       1.0868926
  3301   6 C     3463   1 H                                       1.0939883
  3301   6 C     3464   1 H                                       1.0937028
  3299   6 C     3465   1 H                                       1.0944710
  3300   6 C     3466   1 H                                       1.0884775
  3300   6 C     3467   1 H                                       1.0887035
  3300   6 C     3468   1 H                                       1.0863920
  3298   6 C     3469   1 H                                       1.0895675
  3298   6 C     3470   1 H                                       1.0906991
  3296   6 C     3471   1 H                                       1.0949543
  3297   6 C     3472   1 H                                       1.0878407
  3297   6 C     3473   1 H                                       1.0883381
  3297   6 C     3474   1 H                                       1.0857001
  3295   6 C     3475   1 H                                       1.0919533
  3295   6 C     3476   1 H                                       1.0926109
  3293   6 C     3477   1 H                                       1.0943616
  3294   6 C     3478   1 H                                       1.0880354
  3294   6 C     3479   1 H                                       1.0876863
  3294   6 C     3480   1 H                                       1.0884311
  3292   6 C     3481   1 H                                       1.0924605
  3292   6 C     3482   1 H                                       1.0917413
  3290   6 C     3483   1 H                                       1.0940847
  3291   6 C     3484   1 H                                       1.0876501
  3291   6 C     3485   1 H                                       1.0872657
  3291   6 C     3486   1 H                                       1.0884548
  3289   6 C     3487   1 H                                       1.0922931
  3289   6 C     3488   1 H                                       1.0924659
  3287   6 C     3489   1 H                                       1.0922863
  3288   6 C     3490   1 H                                       1.0884099
  3288   6 C     3491   1 H                                       1.0876887
  3288   6 C     3492   1 H                                       1.0875254
  3286   6 C     3493   1 H                                       1.0922119
  3286   6 C     3494   1 H                                       1.0932467
  3284   6 C     3495   1 H                                       1.0920639
  3285   6 C     3496   1 H                                       1.0856921
  3285   6 C     3497   1 H                                       1.0879264
  3285   6 C     3498   1 H                                       1.0872921
  3283   6 C     3499   1 H                                       1.0931018
  3283   6 C     3500   1 H                                       1.0926765
  3281   6 C     3501   1 H                                       1.0956922
  3282   6 C     3502   1 H                                       1.0872045
  3282   6 C     3503   1 H                                       1.0886848
  3282   6 C     3504   1 H                                       1.0858962
  3280   6 C     3505   1 H                                       1.0912363
  3280   6 C     3506   1 H                                       1.0919734
  3278   6 C     3507   1 H                                       1.0943323
  3279   6 C     3508   1 H                                       1.0873583
  3279   6 C     3509   1 H                                       1.0868370
  3279   6 C     3510   1 H                                       1.0885808
  3277   6 C     3511   1 H                                       1.0936822
  3277   6 C     3512   1 H                                       1.0938259
  3275   6 C     3513   1 H                                       1.0926949
  3276   6 C     3514   1 H                                       1.0873280
  3276   6 C     3515   1 H                                       1.0887243
  3276   6 C     3516   1 H                                       1.0865659
  3274   6 C     3517   1 H                                       1.0912253
  3274   6 C     3518   1 H                                       1.0924070
  3272   6 C     3519   1 H                                       1.0925265
  3273   6 C     3520   1 H                                       1.0868036
  3273   6 C     3521   1 H                                       1.0877342
  3273   6 C     3522   1 H                                       1.0880815
  3271   6 C     3523   1 H                                       1.0925460
  3271   6 C     3524   1 H                                       1.0924887
  3269   6 C     3525   1 H                                       1.0929153
  3270   6 C     3526   1 H                                       1.0864733
  3270   6 C     3527   1 H                                       1.0882027
  3270   6 C     3528   1 H                                       1.0876664
  3268   6 C     3529   1 H                                       1.0922844
  3268   6 C     3530   1 H                                       1.0924996
  3266   6 C     3531   1 H                                       1.0941211
  3267   6 C     3532   1 H                                       1.0877620
  3267   6 C     3533   1 H                                       1.0877979
  3267   6 C     3534   1 H                                       1.0883491
  3353   6 C     3535   1 H                                       1.0914654
  3353   6 C     3536   1 H                                       1.0909980

 * 2 distinct bonds (by element types)

   Z      Z             #   av. dist./Å        max./Å        min./Å
   1 H    6 C        2366     1.0900783     1.0970759     1.0843551
   6 C    6 C        1111     1.5325564     1.5401757     1.5235342


optimized geometry written to: xtbopt.xyz


           -------------------------------------------------
          | TOTAL ENERGY            -3716.245372376924 Eh   |
          | GRADIENT NORM               0.000998315919 Eh/α |
          | HOMO-LUMO GAP              11.366009171532 eV   |
           -------------------------------------------------

------------------------------------------------------------------------
 * finished run on 2024/10/04 at 21:01:20.031     
------------------------------------------------------------------------
 total:
 * wall-time:     0 d,  6 h, 48 min, 42.719 sec
 *  cpu-time:     1 d, 13 h, 11 min, 22.280 sec
 * ratio c/w:     5.460 speedup
 SCF:
 * wall-time:     0 d,  0 h, 17 min,  7.578 sec
 *  cpu-time:     0 d,  1 h, 51 min, 36.420 sec
 * ratio c/w:     6.517 speedup
 ANC optimizer:
 * wall-time:     0 d,  6 h, 30 min,  6.533 sec
 *  cpu-time:     1 d, 11 h, 17 min, 59.652 sec
 * ratio c/w:     5.429 speedup

