3536
 energy: -3716.245372376924 gnorm: 0.000998315919 xtb: 6.6.1 (8d0f1dd)
C           53.55724023919035       63.09981013999458       71.95379850566374
C           53.19798616210269       64.17225168890968       70.92821655828848
C           52.06209164089888       63.67328827706339       70.03513614851930
C           54.40149583873382       64.55158231306577       70.05695854650480
C           55.60202130430441       65.15937169794556       70.79324023615651
C           55.21340918142884       66.43755871963411       71.53706269361317
C           56.73207729565567       65.49171499767647       69.80647400974462
C           57.38324418802677       64.29579286510564       69.10317503793004
C           58.08986631941002       63.38634726650963       70.10904790608910
C           58.40075513661113       64.76065823538519       68.04924782682585
C           57.85560737919666       65.65521573588056       66.92718909654720
C           56.59154027473130       65.07216475518915       66.29625445869706
C           58.90901203104952       65.85960416950087       65.82608109711941
C           60.21640792996507       66.52993819220288       66.26135996209509
C           59.95006962584952       67.90008544384295       66.88745985097684
C           61.17341948735458       66.71982922770272       65.07370546797659
C           61.63937395389613       65.46172553871757       64.32253733284102
C           62.18317340895326       64.40536218299080       65.27740803358630
C           62.70942635910824       65.89643971624044       63.30844402505098
C           63.30961145761864       64.81559522520278       62.39474797779004
C           64.45323148848820       65.44934534796933       61.60170057769176
C           62.23704330305788       64.21755963340622       61.47578804528251
C           62.71976231428740       63.23494037736936       60.39481212607068
C           61.50947936943903       62.79092015729389       59.57256363355328
C           63.43383849537579       62.03261232176744       61.02225675414117
C           63.94807344970886       60.95841960593439       60.05085541772311
C           64.32232075548727       59.71291213314449       60.85485336151267
C           65.15268552299038       61.46381814009328       59.24738020750994
C           65.54827324419227       60.55730718133072       58.07345367716453
C           66.95860077772964       60.90306243446847       57.59865636244083
C           64.55699825126949       60.67060671770330       56.90109090896627
C           63.95252025914756       59.34234721992259       56.43377721370075
C           65.04180384211880       58.38160720129856       55.96077959515173
C           62.97358488340006       59.57407368712177       55.27431193067193
C           61.67374385975341       60.30124183252086       55.64199882570775
C           60.69674750191938       59.33497059483275       56.30220494736216
C           61.07154797351024       60.92846415780451       54.37854692843913
C           59.74353823890145       61.67898923907943       54.55408215818110
C           59.30796474964411       62.21659540620937       53.19237395032952
C           59.88492119428838       62.81099086530990       55.57617829947424
C           58.61909670505645       63.62758423686678       55.87585238677222
C           58.98834943016068       64.71987856776579       56.87848364442986
C           57.50410930783054       62.71772627188487       56.40625148535575
C           56.25895290379163       63.41273192706650       56.97856012908597
C           55.25349004219851       62.33776763892004       57.38995333736818
C           55.64519239965014       64.39337052064667       55.97363465707719
C           54.44046522870394       65.21798828417010       56.46179349164586
C           54.10018496066913       66.23547884426486       55.37144710913476
C           54.75078618828486       65.89936815382130       57.80028385277840
C           53.73868507593646       66.93530106138635       58.31298048373528
C           54.20515634300823       67.45337180214472       59.67402034487791
C           52.26338180253713       66.49335372718085       58.35912185531507
C           51.77481156329529       65.67657851295989       59.56188308142119
C           52.36584369427900       64.26857062877598       59.58065778407697
C           50.24215726920870       65.55362041737509       59.53888658132256
C           49.44670892482755       66.85928906630537       59.66255209480001
C           49.78752174868310       67.60279335932736       60.95181302722757
C           47.94081186888202       66.55895887787645       59.60317384757028
C           47.10082509900218       67.73153067869825       59.08027614538983
C           45.62008134098053       67.45165945851134       59.33605885467272
C           47.36016278234972       67.98027488969419       57.58016863637118
C           48.03672462396243       69.32127792517041       57.26500455949159
C           47.04157400919291       70.47076002282920       57.41204043081368
C           48.62565169823840       69.30504939347104       55.84647386035817
C           49.97960446833194       68.58533271696589       55.75562207930839
C           51.11116020073956       69.54472825048060       56.12153756085780
C           50.21333620625352       68.00281765458394       54.35520312242055
C           49.43784422060987       66.70645794169121       54.08638963732846
C           50.09929166601317       65.52624823285350       54.79796286759409
C           49.36194163817117       66.40258327656937       52.58372190859182
C           48.42153253423322       67.30196184763771       51.77321697445925
C           46.95851131213553       67.01639178678651       52.11470056579496
C           48.62022439734604       67.08424033992627       50.26586528383774
C           49.95217882113600       67.56137090070159       49.67670611592801
C           50.09086428474212       69.08030992101763       49.78049961801833
C           50.06640592059055       67.15366541171237       48.20018377281365
C           50.19381394731536       65.65387707356054       47.90513408092576
C           51.48433924640869       65.07425909821345       48.48469384949695
C           50.17206021829445       65.40969568350435       46.38791034063818
C           48.80348220188580       65.56166755686671       45.71445392425814
C           47.87989581772672       64.40316975380000       46.09034953421125
C           48.93518754877596       65.59436224872682       44.18449469490736
C           49.68448725186268       66.78812918216532       43.57794805895520
C           49.15118152224868       68.12074332867466       44.10492215493764
C           49.55465687532531       66.78244621304879       42.04639405366844
C           50.17887498504378       65.58720548742428       41.31650675370565
C           51.70195437714805       65.61379841657889       41.42768834555790
C           49.77781547862504       65.58447241367662       39.83454896110747
C           48.32860063518589       65.17685232143631       39.57876086308368
C           48.01927883527210       65.12963677596490       38.08719684111252
H           54.28707829975901       63.46754987308089       72.67019341327203
H           52.67063241551533       62.79256455715294       72.50441847022572
H           53.97076430869880       62.22474430351105       71.45600071252042
H           48.66036811467114       64.40677752861220       37.58676940240581
H           46.98320782743931       64.84559335099729       37.91521290458545
H           48.18538585067257       66.10424260261293       37.63337686709413
H           49.95336220023927       66.57701102436899       39.41264431670201
H           50.42515872920905       64.88300444505606       39.30212100811803
H           48.49110771411714       66.83257604633104       41.80512047732434
H           50.01917667966779       67.69250700964830       41.65684696650207
H           50.74384902814909       66.72218406409750       43.84103542758687
H           49.61077205868287       68.94905085123172       43.56899957174620
H           48.07376664443831       68.18292315626712       43.96485504467434
H           49.37352005205474       68.24283858412861       45.16146621306644
H           49.43233755531876       64.67243937890272       43.87624462611260
H           47.92802902955263       65.58013774682502       43.75975112258799
H           50.88129742960766       66.10006450930018       45.92774355212317
H           50.52718897280136       64.39552650386891       46.19260035865688
H           49.81586853351659       64.65806200946746       41.76459179287608
H           52.09981049079199       66.51620214156951       40.96704257619707
H           52.01460327894807       65.58961227978799       42.46734087638634
H           52.13575900319223       64.75207509660235       40.92462655211117
H           48.33008014510495       66.48774278449116       46.04813416690962
H           46.91206330438225       64.52095259752106       45.60865508521036
H           48.30610742687509       63.45626903920449       45.76759884289043
H           47.71875582775263       64.35595415534858       47.16368958261969
H           49.35419734914805       65.12118315600542       48.35678787022361
H           51.51208716358252       65.17881825623515       49.56618043901157
H           51.55783105358452       64.01375649789125       48.25200111296294
H           52.35342894751137       65.57806647326021       48.06547917545031
H           49.18855784392807       67.54328057038774       47.68046923245377
H           50.94145716266049       67.65239910122878       47.77450659791096
H           50.77950221013646       67.11074503350254       50.23014059169129
H           50.11343450680874       69.40145932932379       50.81812914086328
H           51.01409916622700       69.41050886296016       49.30970719388149
H           49.25765724866204       69.57353248901889       49.28364969347536
H           48.50972394236697       66.01660782834172       50.07195469404077
H           47.81563040472346       67.59906744864385       49.73393079172876
H           48.62323165287365       68.34892213298762       52.01226951907162
H           46.30216827679103       67.68400601511441       51.56046570161828
H           46.70074809724432       65.99201119768077       51.85396031535596
H           46.76342322323008       67.15957732970701       53.17414449495892
H           50.37321263585419       66.47854285050394       52.18037278509837
H           49.03570598861339       65.36809669518254       52.45130448068903
H           48.42359267678513       66.80934787048369       54.48131142363877
H           51.10584306812208       65.37000307651948       54.41536219215218
H           50.16424439015122       65.70022550740420       55.86909546038802
H           49.52629114988995       64.61590502479343       54.63834639149200
H           49.93788406062798       68.76085271464817       53.62036555466536
H           51.27885550854627       67.79891419907551       54.22229371545095
H           49.98967783785487       67.76265452239623       56.47559652326523
H           50.94426220572085       69.98591382702442       57.10184630945663
H           52.06667838421197       69.02486773171516       56.14359487642415
H           51.17619241120126       70.34763250774328       55.38953561713128
H           47.90339014638959       68.83048914845803       55.17976493850710
H           48.75640309889343       70.33187834932068       55.49691942333073
H           48.85257162795480       69.48194752290689       57.97810634986381
H           46.25211752901472       70.38388403185765       56.66795899104032
H           46.58300532481288       70.46334374319856       58.39827578195833
H           47.53693763890698       71.43013353807568       57.27459484395433
H           47.97742614522888       67.17141861010974       57.18630906284574
H           46.41339247041373       67.94578340408489       57.03684526696506
H           47.37424674254726       68.62932773485375       59.64341716679337
H           45.00556780027321       68.27567774132704       58.98066428249125
H           45.31167178714008       66.54418356269915       58.82058105771756
H           45.43147118328007       67.32044610798046       60.39979046651209
H           47.75971116870674       65.70094473587994       58.95217918082004
H           47.59727489104542       66.28356006000293       60.60341537660987
H           49.69281184270881       67.50403075016970       58.81637733697474
H           49.11494172749958       68.44477928417574       61.09542243446553
H           49.69089236373903       66.93773066762442       61.80795042808001
H           50.80396020156779       67.98721658240531       60.92791888947838
H           49.95666716028923       65.05588912850980       58.60765100402169
H           49.94115934965228       64.89902091608499       60.36256870867972
H           52.05853596085768       66.18586311090405       60.48449307106585
H           51.88808976367964       63.66484008208813       60.35140089249698
H           52.20514639947039       63.78145017453105       58.62183830004086
H           53.43123813699121       64.28731714584265       59.78888260040403
H           51.67998059456337       67.41510651379127       58.33805427505090
H           52.02700842765577       65.94023626231990       57.44924543021884
H           53.77148986105071       67.78188157288386       57.61622076216685
H           55.19823506293462       67.89156341226065       59.59568526674321
H           53.52572116754448       68.21682645845617       60.04731355520639
H           54.25164752194995       66.64514765962898       60.39974720408725
H           54.88061824807135       65.12986098840481       58.55951927119272
H           55.71013506177092       66.41708190630665       57.69630952033305
H           53.58425246800698       64.54967688916517       56.59043310451344
H           53.99191643345301       65.73445002053994       54.41082327380328
H           53.17148417446010       66.75622805841158       55.58667136775295
H           54.89653157548987       66.97275989929183       55.28112693916324
H           56.41399597483405       65.10113634064533       55.66031465757758
H           55.33932894938820       63.83345667062110       55.08517314668359
H           56.56225474512984       63.96037671913746       57.87367057256622
H           54.38987183991438       62.77362053961290       57.88277155020763
H           54.91167358316824       61.78541790915301       56.51651182501946
H           55.71505279601633       61.63366909684201       58.07903825928781
H           57.18377162698194       62.05450844129223       55.60126634363166
H           57.92429913522258       62.09102180468310       57.19817305188459
H           58.28294725396701       64.10699659309152       54.95224795323037
H           58.16729455905230       65.40990352004563       57.04607348967576
H           59.25954164794731       64.27155006722181       57.83209640583827
H           59.83637515803161       65.29366834547038       56.51025047151662
H           60.23020904572900       62.39322689191298       56.52340177869907
H           60.65924666282189       63.49467660290891       55.21723786117033
H           58.98769676509982       60.96963584411782       54.89937656073066
H           59.27791485740070       61.41269937885804       52.46050032675456
H           58.31713972136835       62.65735999456816       53.24826919509934
H           60.00568501212852       62.97353500051395       52.84048748865307
H           61.80247528728282       61.62361928982003       53.95736160066683
H           60.91769659059499       60.13540502451042       53.64186381717121
H           61.90892153233981       61.10233370746563       56.34621876413582
H           60.35831386745091       58.60045275189015       55.57437794391372
H           61.17547829722930       58.80571291472294       57.12178148544302
H           59.83213102441727       59.86195540661567       56.69754851660586
H           63.49657618140417       60.14333640157550       54.50372330338786
H           62.71194478134659       58.60652263871764       54.84160901891329
H           63.42272461420474       58.87909048835170       57.27283566128131
H           65.75411362076510       58.16527286104355       56.75272177357709
H           64.60388205423651       57.44190637159585       55.63136648343086
H           65.58198274214705       58.81786162168228       55.12238436465828
H           63.74871842100769       61.34476980120373       57.18386969317137
H           65.06295877751539       61.12541342424585       56.04737192745194
H           65.56172177219386       59.52668615890041       58.43559904989955
H           67.24103217539080       60.27483371608482       56.75689956656804
H           67.00722828422791       61.94361437093569       57.28465893436400
H           67.68201445883329       60.75089859148240       58.39501626929457
H           64.94293538383737       62.46186683417900       58.85826593800756
H           66.00336745697656       61.55251056330288       59.92851987410872
H           63.14665069553443       60.68338076031626       59.36066431370129
H           63.48629663490145       59.39411260790992       61.47349263072883
H           64.59085357526151       58.88501328918014       60.20407116294653
H           65.16485748505754       59.92514285647150       61.50933324513185
H           64.28442860127775       62.38534672743614       61.60784700208854
H           62.73365062639864       61.55963279324310       61.71627014883821
H           63.40501818004445       63.75884633349425       59.72357226010949
H           61.81505443976250       62.26647026331904       58.67131813321291
H           60.87088475789329       62.12918454794002       60.15473163712228
H           60.92378446411600       63.65679806442895       59.27306883629559
H           61.50240896066695       63.69811362268420       62.09381270746140
H           61.72141839123737       65.04224931612536       60.97678417194653
H           63.73361821411876       64.02303189605493       63.01665207813272
H           65.18122714016961       65.89169381904172       62.27884423920895
H           64.96842408179120       64.71133494822172       60.99330873877369
H           64.07469206355105       66.23687847348005       60.95319090726645
H           62.28176537688203       66.67422396483494       62.67085971605705
H           63.53078810571849       66.35079377715122       63.86967381363088
H           60.78887287749190       65.04050752630913       63.77856647414182
H           61.40700907173725       64.05723940160750       65.95423664289311
H           62.55261131562619       63.54855836603763       64.72125735321224
H           63.00153624724151       64.80932242819104       65.86928541324619
H           60.69548881536550       67.38903979352192       64.35332326697574
H           62.06377744591456       67.23215687922774       65.44939285279982
H           60.71466496576731       65.90687593911662       67.00843794745374
H           59.41707410779711       67.80561761279509       67.82950243464445
H           60.88754608557714       68.41610596141935       67.08512935122388
H           59.35435247865016       68.51569630372445       66.21617900802315
H           59.13765708505542       64.88403108605820       65.39185416236738
H           58.46457883014998       66.47119214024848       65.03784828908316
H           57.60054330848219       66.63305895290387       67.34225985773138
H           56.24978182416662       65.71539378053338       65.48900157242058
H           56.78596844259026       64.08210697301745       65.89158807763964
H           55.78698604155695       64.99705809079981       67.02152749991285
H           59.20139344842202       65.29444779211425       68.56584357019925
H           58.84349040807418       63.87004926945207       67.59291971481936
H           56.61358794979192       63.70586213911485       68.59996390121401
H           58.64571844224226       62.60636554172616       69.59301468276450
H           58.78875279179758       63.95912338550710       70.71437209629566
H           57.37470506215497       62.90427329008801       70.77019185104002
H           56.32554075927109       66.17254636264008       69.05666349356940
H           57.51503816249691       66.03197732145016       70.34573908752952
H           55.97573958968973       64.44030044927219       71.52596332115786
H           54.78015532706554       67.16269072619430       70.85067643422616
H           54.49199038778010       66.23336509061514       72.32341845078459
H           56.09032270121502       66.88764375539185       71.99814700289788
H           54.72566281110123       63.64976193079138       69.53368588333859
H           54.06677699988364       65.26702791957625       69.30040468310143
H           52.84137055422855       65.06021079042449       71.45904679102811
H           51.78078958399360       64.43380595497668       69.31041612222101
H           52.36602903945601       62.77952176898139       69.49473423432495
H           51.18578157828845       63.42945593039659       70.63147851289398
H           48.15065663379578       64.19129948559977       40.01585707997666
H           47.64843892537151       65.88212656946861       40.05966108162576
C           54.02602114717149       58.68351250125028       68.68158094703523
C           53.52274762440076       57.67338101832255       69.70917907877906
C           54.62061606035182       57.39534181909200       70.73595355906203
C           53.09311454268545       56.35478480098970       69.05319920551372
C           52.01719422764644       56.46457576597064       67.96597572780288
C           50.75969316891733       57.16241082058635       68.48582100560822
C           51.62145339205367       55.07562895799811       67.43951864837440
C           52.75150674108269       54.22656107047628       66.84616270165536
C           53.47563916570309       54.97451339460719       65.72612351001568
C           52.22027677390601       52.89859799611214       66.28226926198171
C           51.46124893648925       51.98351187886488       67.25395657960125
C           52.32540534609474       51.63379747733956       68.46576863894364
C           51.02030101921519       50.68970999909948       66.53740242868990
C           49.54089497120085       50.61123710920014       66.13190768908723
C           49.16461479017843       51.65862447373440       65.08727029306858
C           48.60382956622335       50.69762804905814       67.34856938725949
C           47.39813565354514       49.74726219555379       67.27301832100436
C           46.30088993006161       50.24205185812782       68.21401678794724
C           47.83111830693409       48.32299044841123       67.64607274536664
C           46.77986636322053       47.22549705605535       67.39037191758926
C           46.60555026382904       46.36015793584330       68.63958990130953
C           47.15506713955464       46.32385291749682       66.20608606019690
C           47.09607625396392       46.99945545086482       64.83226921869876
C           45.65362860303595       47.36071836159964       64.47372319545566
C           47.65185051196219       46.08764879943641       63.72667946326349
C           49.10258160866929       45.61457076819678       63.87857490715895
C           50.06515280710249       46.78470956741521       64.07809815842613
C           49.54323044079028       44.81484291359177       62.64216063234976
C           48.75245983203880       43.53477461703191       62.34447451369185
C           48.71131737222852       42.60356415835997       63.55703283646356
C           49.38102977176677       42.76630249670799       61.17241371403508
C           49.38094754439139       43.45868791723306       59.80458303126710
C           47.96282348223767       43.83431530581960       59.37363714148378
C           49.99678751084808       42.53963629908232       58.73602528044987
C           51.47440698480343       42.16447750294287       58.91762923237997
C           52.36126708786837       43.40582061188327       58.91330431917710
C           51.88654485427307       41.18290337561830       57.80928035505413
C           53.29812684587459       40.58775475217267       57.97970159277887
C           54.25937783319340       41.17073657844629       56.94073832607624
C           53.32418724535247       39.05841258501780       57.84442433670300
C           52.54100923540998       38.24675952549479       58.88413802771765
C           52.92238669302293       38.63923298498936       60.31068003362945
C           52.82291055169583       36.74550808173363       58.71344616970610
C           52.38772759125539       36.10187638472885       57.38952683047468
C           50.86929914000734       35.96240362529470       57.32715840884190
C           53.09415109820770       34.74497404315866       57.25607369609455
C           52.79072983020296       33.94816260090313       55.98221632694594
C           53.48846711715377       32.58903767249668       56.04384967012068
C           53.14083396226909       34.69616787022095       54.68784239868867
C           54.63138221976487       35.03551211218804       54.47567989979030
C           54.81916331618482       36.54132073030372       54.30668015545329
C           55.16093797533496       34.27434289391089       53.25227704313106
C           56.65144716695844       34.44228003644536       52.91828091093609
C           56.91294813587263       33.78855026588874       51.56094867386699
C           57.52985698365652       33.82850485616554       54.01350496167563
C           59.04954251672715       33.97184530572075       53.84124097157443
C           59.73838935725825       33.14720797291741       54.93147367025465
C           59.52902987284921       35.43197335884313       53.92091790164041
C           59.70299616472611       36.15871657769151       52.58091885212551
C           60.84320503133245       35.55571222762165       51.76287916673988
C           59.97562471346102       37.65175947143199       52.82273549465345
C           59.69657469492972       38.53571413290744       51.59182576677376
C           60.93867021732380       39.33758011459253       51.20380717157718
C           58.53357368066667       39.50914960140215       51.83000946599764
C           57.18111590591903       38.84991278833903       52.12484181889010
C           56.63251233373000       38.12436142495824       50.89977118515033
C           56.18573538382313       39.86058365736727       52.72561141737049
C           55.80780658473684       41.07927696778162       51.86539813982905
C           55.51694062465063       42.27355184063763       52.77614913750059
C           54.58573949589483       40.80802232213968       50.97486172799074
C           54.52650951884824       41.67654231165390       49.70773431928872
C           53.10213441487249       41.67933041801614       49.15687348697372
C           55.52597350263564       41.15756664062285       48.66598208696318
C           55.72775748728662       42.01191098876158       47.40582433173298
C           56.56103652186668       41.20348136627652       46.40981651104769
C           56.40841343333383       43.34627340211296       47.73321893413301
C           56.36707457788500       44.38725355624679       46.60604407205282
C           57.33697182896900       45.52381423131136       46.92780466332152
C           54.95354449220145       44.95033226399747       46.39303669586507
C           54.65362914305431       45.33115037350508       44.93599078218042
C           53.45955972075544       46.28215419320518       44.89053653696311
C           54.36388798972146       44.07607432060465       44.10257396507238
C           54.46771965060902       44.26449391905479       42.58080716748419
C           53.68901178852609       43.15086247711857       41.88309714050540
C           55.93812598671807       44.28765799607754       42.14245822308859
C           56.20287757041759       44.36235355919997       40.63042949166307
C           57.71369815479523       44.35309312743484       40.39504720423009
C           55.55316040385672       45.59880450781634       40.00241288707803
C           55.68079519770983       45.66696013559734       38.48158846229187
C           54.86435832221328       46.82099398242857       37.91022753715531
H           53.21880854172806       59.01672905823634       68.03443160941724
H           54.44293709265203       59.55573476004064       69.18141455147014
H           54.80523242615096       58.24130526639681       68.06362386068963
H           55.20116133768741       47.76755250027925       38.32807238542271
H           54.96884480690548       46.86749861043263       36.82851233444797
H           53.80968307556086       46.70003506605172       38.14749028607457
H           54.49005583542213       45.60214878313610       40.24571420562051
H           55.99466703519906       46.49471079347802       40.44201945180112
H           56.43127846347041       45.13977437435194       42.61575712768435
H           56.41862805588455       43.37991973239841       42.51876628007258
H           54.00630888184056       45.22072678697391       42.31986127814942
H           52.66182590236760       43.13515275021403       42.24048676373938
H           53.66708438796830       43.29758658184242       40.80718484677597
H           54.13982393108737       42.18278430337539       42.09186752493742
H           55.04380468683499       43.27458488100314       44.39619876345643
H           53.35289543145750       43.74072256618600       44.34703844519958
H           54.20445830241893       44.22417948761288       46.71277170588098
H           54.83372245059182       45.83345306979735       47.02493628573212
H           55.78502836538067       43.46899705560519       40.15538533511601
H           58.16318196788487       45.26948551875748       40.77064502652973
H           58.17337423597402       43.51187580946667       40.90962889309165