3536
 energy: -3716.270963940315 gnorm: 0.000964824863 xtb: 6.6.1 (8d0f1dd)
C           71.64334220989743       70.67962058357814       59.52488886514418
C           70.38397077390630       70.58405895810549       58.66722214293046
C           69.46840407191810       71.77340390531188       58.95694839029445
C           69.61666650541285       69.28084447068572       58.91860902556228
C           70.36104544036129       67.98417368241284       58.58040390677955
C           70.72130620333863       67.93059029533165       57.09551205990174
C           69.49933640208022       66.75967680366722       58.92383410435732
C           69.27103554327483       66.47074495526608       60.41719353691607
C           70.57829001183686       66.07802332224990       61.09870009035421
C           68.19683736503031       65.37598023024542       60.51284817078438
C           67.68918128155468       64.94230483983443       61.90196428537659
C           67.35998335159996       66.14652342881210       62.78260675955439
C           68.62313512153472       63.94844744560604       62.62124660000556
C           67.95355424294171       62.62446027796649       63.02745150342540
C           66.82680201652441       62.84961220492696       64.03152505358437
C           69.02772566405346       61.69510607474413       63.61083282570323
C           68.60770480814405       60.24435577024229       63.89367433356971
C           69.72074835045932       59.56520550694165       64.69183949390215
C           68.31447175555762       59.50297570681909       62.58337968643045
C           68.00580343952076       58.00071281747868       62.69056705051819
C           67.78339266798768       57.44600536866292       61.28255130289548
C           66.78541130210662       57.76163854546255       63.58528494483943
C           66.33552724031232       56.30454745142484       63.77233087087321
C           65.07100724079439       56.30057160410679       64.63062685337032
C           67.44662318195546       55.46582366936316       64.41546876075095
C           67.10242748621596       54.00412988064762       64.74887302372085
C           68.34383206635256       53.34557884701795       65.35135311327439
C           66.61077710244952       53.26862516418954       63.49639511724489
C           66.42974840944395       51.74511546180096       63.58961689625708
C           65.87529809775633       51.26614318311788       62.24759729566485
C           65.50124835583412       51.33902915804222       64.73954289205456
C           65.34465349118331       49.82499820178388       64.94329155984892
C           64.17073897054068       49.55866090314813       65.88429980536038
C           66.61623052678721       49.16441521512375       65.50197326280131
C           66.83318414545674       47.73293814807735       64.98188363226018
C           67.68957763781792       46.93633720244934       65.96434891798435
C           67.49964638791756       47.78751517428238       63.60134063848592
C           67.42857003537857       46.51377450809049       62.74617192751133
C           68.41822878723238       46.66266748504035       61.58988800263955
C           66.00710972584135       46.28361529476174       62.21653274045961
C           65.80492460047194       44.94907819832155       61.47122031722387
C           65.16601836019386       45.18801911499365       60.10218602073966
C           64.93695403119465       43.96191753296478       62.26157846625808
C           65.58031765980867       43.38871720899786       63.52904115536767
C           66.73043743882327       42.44364586091282       63.18436694721644
C           64.52439365864376       42.63747509120588       64.35715735622037
C           63.71022040196728       43.53536332277051       65.29594771148443
C           64.54376699367110       43.90443806527391       66.52430943906167
C           62.42270315481113       42.84044753903301       65.76039901573708
C           61.31324966421217       42.64704285979637       64.71426693832490
C           60.92592398594544       43.96351915751150       64.04565329152337
C           60.10575413715128       42.01534847742600       65.42496755051229
C           58.98300996338654       41.47571203130508       64.52658625602334
C           57.74984804225561       41.21499675388636       65.39173641136978
C           59.42497836295710       40.19377522071653       63.80864507915261
C           58.49777189715643       39.70610830850080       62.68073171904904
C           58.44968796841883       38.17644676111178       62.68376908632963
C           58.95453499507445       40.17061535610949       61.29013089319839
C           58.91258668419624       41.67990052266997       61.03120495353107
C           57.48204226904050       42.20985713662767       61.12804738784497
C           59.45798098671071       42.02397450982483       59.63647907751679
C           60.90322026484633       41.60793966245059       59.34162823463809
C           61.87259359618267       42.19233872867296       60.36989749165816
C           61.33480190898985       42.08402345802365       57.94609928567485
C           60.50873978107261       41.58246102585805       56.75471453826339
C           60.41567500189974       40.05666103400957       56.73822106674870
C           61.12511661919255       42.05142527637951       55.42523320850138
C           61.31191068422248       43.56504239943524       55.27843174131040
C           59.96764500973702       44.29071786984322       55.32792985577861
C           62.03128184348770       43.93092975889775       53.97201454788161
C           63.44185640436293       43.35671600308091       53.77899394718600
C           64.29354926277875       43.49526366163866       55.04306875534429
C           64.17208606373883       44.09187980690060       52.64348747067304
C           63.51630441239042       44.09303966358926       51.25878038921539
C           63.33330426272699       42.67316536682888       50.72472811743148
C           64.37129566783679       44.89214085702800       50.25865855187231
C           64.63556083172539       46.35941648292160       50.61845877060183
C           63.32670271811826       47.12813455094360       50.79304699096107
C           65.47728909142172       47.06562173999715       49.54528692101256
C           66.88452147976074       46.51304095727764       49.28749121991590
C           67.67603989300230       46.35202293403919       50.58571965386390
C           67.66906366059561       47.45604787586311       48.36071808804561
C           67.08781761981191       47.68577996545074       46.96010137960568
C           67.25248396028861       46.43927597144855       46.09289254136209
C           67.78433734099453       48.88095379638767       46.29032001703121
C           67.30134003674563       50.24745910786208       46.79494519444393
C           65.98658785456028       50.63179841200691       46.11767411036203
C           68.34326786402896       51.34637963228633       46.55049822210677
C           69.57315443334896       51.24596910277808       47.45080850815409
C           70.47855020544604       52.46279201753325       47.30201921550896
H           72.12121330944858       71.64734569316990       59.38727795178631
H           71.39362244260754       70.56850607924144       60.57841352255663
H           72.36173056556996       69.90929734455059       59.25690705302826
H           69.94656084551542       53.37167893748991       47.57643915726172
H           71.35249386837981       52.37073515706248       47.94303930444879
H           70.81672332552185       52.56347004881192       46.27300757406420
H           68.65475559536772       51.32150054675633       45.50368160220646
H           67.86887751213008       52.31593426044797       46.72655476402568
H           68.85854122689422       48.78301509699041       46.45354366627087
H           67.61533208354203       48.83603701683973       45.21187162173802
H           66.02178769726652       47.91143349057300       47.04044932843395
H           66.79440693321948       46.58734102452943       45.11719066243449
H           68.30758977796975       46.21687732086649       45.94572986427234
H           66.78423437108177       45.57593990497879       46.55892468246773
H           67.75759619191858       48.41828083333322       48.86942314634639
H           68.68164903516669       47.06057870490458       48.24300402228518
H           64.91790469090871       47.03780892435284       48.60841659247300
H           65.57811382624961       48.11540950596916       49.83614340133244
H           67.12194549620527       50.18578639847850       47.87372055217467
H           65.58446659361782       51.54652292267754       46.54829352098015
H           66.14251109799881       50.79735489090334       45.05339480245407
H           65.24623544221718       49.84685825708442       46.23890324799491
H           66.80390551037515       45.53222715529419       48.80966675468935
H           67.70213180351007       47.29403922136467       51.12941489226034
H           67.23720377679521       45.59334496280819       51.22743799666010
H           68.70016074363622       46.05507115715758       50.36818497181283
H           65.18258653947579       46.40652682349593       51.56140388161240
H           63.52897287546838       48.18318489263851       50.96687618760433
H           62.70977732785651       47.04145384941253       49.90166628177190
H           62.76338919099443       46.74883592754754       51.64004644460967
H           65.32870147954947       44.37836481314274       50.15011712337882
H           63.87194037413583       44.86353772555807       49.28653899030186
H           62.53040568788112       44.55802378289550       51.32783000322421
H           64.28738216514473       42.15047280348487       50.69542613801930
H           62.64955599209415       42.10543485654669       51.34994410920250
H           62.92575903252378       42.69627022858766       49.71625464092744
H           64.29172109361134       45.12671660259156       52.96642669426176
H           65.17069624446017       43.65699972199325       52.54185241225785
H           63.36828869663410       42.29444701275027       53.52899489280231
H           63.91866847505788       42.87074845059487       55.84850045408599
H           65.31871794996725       43.19254526550870       54.83844232643403
H           64.30423517957998       44.52819959339227       55.38374736933616
H           61.40834217613656       43.61722923814074       53.13247640651716
H           62.10641905431393       45.02174946015953       53.93658451843790
H           61.92441762174495       43.93261726563669       56.10271982749303
H           59.48016290139210       44.14955945887210       56.28849315524555
H           60.11075076585172       45.35823223597490       55.18231568407251
H           59.30355922796569       43.92313747649646       54.54810836255854
H           62.09251056436605       41.55899902257948       55.31362713739220
H           60.48842459710410       41.70282313350435       54.60675573529485
H           59.49530441470221       41.98716890269576       56.82816887729481
H           59.86787852293275       39.68375996915814       57.59952836060147
H           59.90022785077146       39.71732805715531       55.84193834468897
H           61.41043429724026       39.61557788774437       56.74609368160144
H           61.30882223463263       43.17536396862706       57.95475289656088
H           62.37363740501539       41.77954179089252       57.79036526930634
H           60.98308313304093       40.51858406093880       59.37716534839969
H           61.68913704959203       41.78527399040374       61.36007130185047
H           62.89919388748277       41.95836315178004       60.09509755440941
H           61.77211137092799       43.27486135786474       60.41915533660760
H           58.80073758757898       41.56039606951730       58.89891645527825
H           59.38464487039856       43.10773375010486       59.50337364511297
H           59.52846284547567       42.18715481515957       61.77641262768265
H           57.08741117825035       42.11509761304171       62.13515232899518
H           57.44227933851894       43.26131043897235       60.85161222252097
H           56.83454206571382       41.65621566657139       60.45339539054009
H           59.97426172762761       39.80988666690750       61.14236339149302
H           58.32399160724226       39.68159613709767       60.54201789316856
H           57.48261760608142       40.06848366283979       62.85905750293691
H           59.44212124006071       37.76441746004824       62.51068387058950
H           58.08882580814459       37.80472761421557       63.64053695631952
H           57.78813487239738       37.80758659412544       61.90200727003371
H           60.42464740452246       40.33580699499603       63.39504100527544
H           59.50555137252763       39.40912719377968       64.56532743751461
H           58.71798414272541       42.23415213441242       63.78869738000023
H           56.93675236260636       40.79603378015544       64.80421182113379
H           57.98880360760038       40.51319576173908       66.18829036203053
H           57.40087021556728       42.14081754180324       65.84455467576439
H           60.45990486131976       41.19244754765294       66.05144665813003
H           59.68017243984174       42.76875758062631       66.09317311636649
H           61.67303819973510       41.96049255385785       63.94224810059887
H           60.67942415652964       44.71403320550567       64.79268904356110
H           61.73709287763963       44.34118643703077       63.42945108368353
H           60.06211254922226       43.82758073135567       63.40024328897927
H           62.69242128510455       41.85990179285884       66.16188927561565
H           62.00056453849862       43.41791513469016       66.58706848497401
H           63.45027774319709       44.46128975126062       64.77705258619019
H           64.00438127159374       44.60170868407324       67.16082590971408
H           64.77216953051422       43.01466402769476       67.10797017170259
H           65.48143304793349       44.37111477750022       66.23401007145368
H           63.85493431953795       42.12042588548223       63.66764356211415
H           65.01590341236700       41.87366753436805       64.96395915103083
H           65.97996378819165       44.21315963535402       64.12544228162378
H           66.36604543690200       41.60131973836876       62.59935637095120
H           67.50179566824868       42.95065930260368       62.61030223300635
H           67.18928622288985       42.05742785134673       64.09218252875966
H           64.00346367467017       44.46245469427279       62.52960690079839
H           64.67745669262727       43.12593294092405       61.60703555020597
H           66.77777851450524       44.48255246113978       61.30057370934833
H           65.08590526930625       44.25677456382662       59.54528638932689
H           64.16538705480122       45.59974644710291       60.21689800728612
H           65.76329261336997       45.88261422685535       59.51519816094377
H           65.30399193870014       46.33468801287460       63.04913393489637
H           65.76651320801633       47.11189479889856       61.54563212055690
H           67.72770018153551       45.65170640779915       63.34998203120948
H           69.43469744962930       46.75326820943279       61.96711561768537
H           68.38418384882075       45.80644258590691       60.92172186410415
H           68.18683945827102       47.55395989369544       61.01029862550781
H           67.05314542960737       48.59846409305469       63.02359055825851
H           68.55107678991939       48.04480415819134       63.75347828919691
H           65.85836613758906       47.24161102370235       64.90344000109064
H           67.88704731527234       45.93584353768841       65.58656955631655
H           68.64417505855879       47.43389984940260       66.12477798438766
H           67.18580928138520       46.84250862897648       66.92431621648343
H           67.49752437865894       49.75546370894466       65.24772432244296
H           66.54862740426641       49.14673715896889       66.59195589234010
H           65.10323003706057       49.36585035457473       63.98169628883682
H           64.31678174043954       50.07129393696520       66.83315742675967
H           63.23836755681749       49.90795980088531       65.44704176061724
H           64.07570287562646       48.49405065801604       66.07987615419952
H           65.86468530016127       51.76847099089309       65.67454103212222
H           64.51345285354482       51.76449212698166       64.54306778146680
H           67.40999051286707       51.28324387305733       63.73840951399431
H           65.83450831939750       50.18233123666961       62.19359204692987
H           64.86927127889822       51.65158035929159       62.09851348901509
H           66.50002459072360       51.61954615516293       61.43181168467159
H           65.65023437251469       53.69456303189320       63.19981875801382
H           67.32057922601983       53.46726000871812       62.68829786854149
H           66.31211827177094       53.99520582218228       65.50500133864543
H           68.12359351304767       52.34808170547385       65.72148115728049
H           69.13519176682126       53.27149193245270       64.60896853606614
H           68.71576721737343       53.93750145885718       66.18553028160437
H           68.30996803567461       55.45699646724535       63.74652742507602
H           67.75467213062619       55.96150327203229       65.34055257244121
H           66.08918997546490       55.88413409715827       62.79375438239882
H           64.63233762207580       55.30830773334955       64.67978291485535
H           65.30066175557022       56.62442900372505       65.64328490382043
H           64.32946771519389       56.98091935047051       64.21614618549803
H           66.99057760341707       58.17162036444040       64.57426940632877
H           65.94885185450983       58.32804859881757       63.16784418155346
H           68.87491277106830       57.49612335367348       63.12043449097222
H           68.62071377597049       57.70094499745095       60.63513816388944
H           67.69025555198516       56.36301312659653       61.29684181493469
H           66.87847755620402       57.86625757648491       60.84644719100820
H           67.46443678372529       59.98519735910115       62.09567752971797
H           69.18096604522501       59.62526652260603       61.92933306550232
H           67.70542489786946       60.25578358087645       64.50842203029713
H           69.93699389453812       60.13318385198342       65.59475725822813
H           69.43737364564630       58.55919169956911       64.98919297334763
H           70.63201064272450       59.50684487366557       64.10059149185207
H           69.88182305526425       61.67089477403992       62.92864469641837
H           69.37805139261884       62.13927339132098       64.54656084400871
H           67.53337658022160       62.16801706938113       62.12542216811659
H           67.21516877632217       63.29692163895857       64.94371011882195
H           66.06559414512861       63.50686033102295       63.62155447588499
H           66.34675787346930       61.90823412180043       64.28643830395825
H           69.45960445457179       63.70239438117202       61.96653728972417
H           69.03821409554240       64.41202815851327       63.51867208559258
H           66.74550893700940       64.41819174373832       61.70661507432235
H           66.68234781963375       66.82192747646928       62.26335378346940
H           66.88259587286446       65.82196427745943       63.70437226233404
H           68.25949141454241       66.69604001180693       63.04766982334505
H           67.32851268238272       65.73875980604060       59.95695832007262
H           68.56350118665257       64.48992926003214       59.98985817810662
H           68.88740697085100       67.37386650429769       60.89886414010358
H           70.42652657923617       65.89826802528860       62.15840424482454
H           70.98950512966968       65.17671489373205       60.64815455933547
H           71.31514660019489       66.87135469164950       60.99978805360706
H           68.52889375594586       66.88606252993024       58.43704028518263
H           69.96758775989767       65.87538353624781       58.48442394696674
H           71.28749913933879       67.93831577925836       59.15774709596704
H           71.41383233668181       68.72411958671290       56.82903375652467
H           71.19585614543064       66.98199386777587       56.85179293819035
H           69.82662648775963       68.03261588724484       56.48467788241989
H           69.33281401213692       69.26089940634311       59.97309233836534
H           68.69715562842499       69.30611461425200       58.32876601078637
H           70.67289485072835       70.63424338202556       57.61304232249523
H           68.57262265838560       71.72818888289497       58.34174297305009
H           69.16741109878265       71.77604757616461       60.00295971802609
H           69.97943729706182       72.71055533085624       58.74775362295270
H           69.25195892817362       51.16209280473735       48.49106122631494
H           70.14363813790438       50.34720515993720       47.21143842834151
C           60.12222226894209       61.98001051345641       54.00180528674650
C           61.00024725360978       61.96497678511297       52.75369955449202
C           60.17174183559620       61.53249534404593       51.54641934336690
C           62.19429892723201       61.01493120688518       52.89919258173282
C           63.13731853863389       61.29536173327922       54.07314341440875
C           63.75386132360996       62.68805748403964       53.96491632945390
C           64.26188358595853       60.24978842845246       54.11925964095224
C           63.83283047005492       58.84952034232396       54.57298548243171
C           63.52506843635669       58.83587779388156       56.06959244126978
C           64.91673312528208       57.79992504660849       54.28646081504798
C           65.26498484678959       57.56367947507805       52.81220602184370
C           64.02880649455760       57.18521858488580       51.99561445761816
C           66.30939872240594       56.44641437120185       52.67410216047796
C           67.69198076516143       56.72209146247825       53.27958993330964
C           68.39446145035791       57.87977544318134       52.57296887586072
C           68.54085846717287       55.44354095560514       53.18687293142533
C           69.74793619857024       55.39260012628664       54.13879027625265
C           70.93456115087204       54.72342728817095       53.44202583227893
C           69.44083679148567       54.62154186119358       55.43057088668998
C           68.31369265481318       55.18886100784608       56.30342285852691
C           68.71915330636013       56.52393563754067       56.92089429191337
C           67.96680298081031       54.17175963510813       57.39749074077511
C           66.78661399546178       54.54540343542718       58.30637367578607
C           66.66747214625026       53.49376108147694       59.40727822305798
C           65.48823256241505       54.66975846622844       57.49633897417728
C           64.19033070309021       54.78299739944153       58.31072571845196
C           63.00284141945357       54.83487865664343       57.35115631440584
C           64.22236034416500       56.00880877379444       59.22820151430839
C           63.10034170681855       56.10219632051333       60.27346659094442
C           63.20078063058570       57.47355116509549       60.94010141709851
C           63.18794371109583       54.97040960196016       61.31383959164158
C           61.83101576642869       54.39301209487005       61.74873349744337
C           61.13097673240068       55.30908745355798       62.74822866307360
C           62.02237809311222       52.98412137863482       62.32829969276947
C           60.74124539884384       52.15786883594081       62.52071901445950
C           61.11018216808211       50.82249834367407       63.16833943651859
C           59.98396234936587       51.93484665531475       61.19548865005033
C           58.61874180626718       52.63895248157981       61.14795122945138
C           57.57378250361131       51.78033034516282       61.85997343264179
C           58.15540021860980       52.92745913309614       59.71215921969722
C           58.94282386366157       54.02764792129043       58.99079782929240
C           58.72612072567323       55.39206469387457       59.64783427594974
C           58.55570160183569       54.15849956875292       57.51069448716154
C           58.61926428724565       52.89258613699180       56.64778303180575
C           59.97512603293787       52.20160192029581       56.76031361775362
C           58.35664504234295       53.25655886934958       55.17917379103842
C           56.89522894844170       53.61171779834607       54.87147027666838
C           56.10457222778915       52.35086598542433       54.53664999129025
C           56.80479872059304       54.63709196713399       53.73425298642231
C           57.09160793377708       56.06744561457261       54.20899507228704
C           55.86399932025401       56.65311232650343       54.90466487269294
C           57.50648545891360       56.97207073156122       53.04136994533020
C           58.97335205278753       56.83027503093245       52.61654934688715
C           59.89611167836351       57.49011657035720       53.64143052137899
C           59.21018986028032       57.47901631697003       51.24346410669941
C           58.69478204717468       56.68268899488272       50.03982316309278
C           59.50361793249228       55.39850498192632       49.85955135369473
C           58.78101733790916       57.49552532804857       48.73725914898410
C           58.05247247164091       58.84426336330160       48.72064750468967
C           56.58328538601168       58.69166802262870       49.11185211396867
C           58.11026673662882       59.49051058897116       47.32874073360517
C           59.49995366298329       59.76031079898043       46.73943431230380
C           60.40985952157943       60.47716672323351       47.73588295173338
C           59.39195276178236       60.63079309921956       45.47554233191833
C           58.49117588909041       60.09061629538640       44.36056306874394
C           58.98392119797196       58.74202859010604       43.84298699180101
C           58.31822620448220       61.11368527189009       43.22489780774411
C           59.58461551334624       61.49456779172863       42.43891054734137
C           60.12205977640301       62.85228089838828       42.89528541252790
C           59.30654768750697       61.55410666304884       40.92914910389941
C           59.08497687745660       60.19758175625402       40.24178954792867
C           60.39953117451285       59.42891098986185       40.13374024428584
C           58.46997822312766       60.44644566700264       38.85791270880532
C           58.12642868261833       59.21366626936164       38.00913068550006
C           57.79822875441641       59.68612487542570       36.58982583660965
C           56.93580993813015       58.40723117881484       38.56001308333110
C           57.26358118005395       57.21466314755606       39.46822515316514
C           58.12822197441783       56.17770932838204       38.74867094506342
C           55.97918394779163       56.50334053611491       39.92843606849432
C           54.93951265341225       57.34486637372417       40.67763776401371
C           55.52896386314137       57.94468497312428       41.95184403348427
C           53.71538183047853       56.48438356549775       41.02891938965845
C           52.75142356304033       56.22344558848286       39.86089339755393
C           51.91560628621414       57.46668288809317       39.56814807047017
C           51.85787656683819       55.02773531741870       40.21387244252548
C           50.81897132927212       54.61950986644442       39.16246587533714
C           50.01922036292696       53.42664053587866       39.68797007452548
C           51.41818743385141       54.32687830155972       37.77987927100789
C           52.47048022210307       53.22110787406085       37.74548889574709
C           53.00003915786410       53.00486471553225       36.33284603696485
H           59.80787099364224       60.96832667527343       54.25193914883846
H           60.65065012658712       62.39929699308362       54.85391066442002
H           59.23301991547476       62.58217701369256       53.82883405559329
H           53.74561223875245       52.21263380210885       36.31883642650050
H           52.19194947170013       52.72566709491279       35.65971013178662
H           53.46018165479803       53.91466864728756       35.95235151297167
H           50.60107669984330       54.04899950632848       37.10767775622325
H           51.86024328737349       55.24320466129890       37.38259347980824
H           52.49466395764815       54.16727457643274       40.42768286989327
H           51.32080264616566       55.26781341589690       41.13610767395235
H           53.33709631507396       55.97685997851643       38.97159638507444
H           52.54994985950191       58.33785522833447       39.42990053380522
H           51.32542270195773       57.34086979451435       38.66516342656335
H           51.23810505007373       57.66488693397797       40.39639244848631
H           54.06806204772489       55.52963598108627       41.42637347995137
H           53.15305829280001       56.97680702498736       41.82622259888726
H           55.50374544518309       56.07205803321902       39.04445387407001
H           56.27121392309817       55.67321073673426       40.57806477918588
H           50.11740241822800       55.45110048618427       39.03435422616271
H           49.48410032016571       53.70571603890407       40.59351399494495
H           49.29230112719301       53.09219761425348       38.95074788355985