      -----------------------------------------------------------      
     |                   =====================                   |     
     |                           x T B                           |     
     |                   =====================                   |     
     |                         S. Grimme                         |     
     |          Mulliken Center for Theoretical Chemistry        |     
     |                    University of Bonn                     |     
      -----------------------------------------------------------      

   * xtb version 6.6.1 (8d0f1dd) compiled by 'stahn@M-Bot' on 2023-08-01

   xtb is free software: you can redistribute it and/or modify it under
   the terms of the GNU Lesser General Public License as published by
   the Free Software Foundation, either version 3 of the License, or
   (at your option) any later version.
   
   xtb is distributed in the hope that it will be useful,
   but WITHOUT ANY WARRANTY; without even the implied warranty of
   MERCHANTABILITY or FITNESS FOR A PARTICULAR PURPOSE.  See the
   GNU Lesser General Public License for more details.
   
   Cite this work as:
   * C. Bannwarth, E. Caldeweyher, S. Ehlert, A. Hansen, P. Pracht,
     J. Seibert, S. Spicher, S. Grimme, WIREs Comput. Mol. Sci., 2020, 11,
     e01493. DOI: 10.1002/wcms.1493
   
   for GFN2-xTB:
   * C. Bannwarth, S. Ehlert and S. Grimme., J. Chem. Theory Comput., 2019,
     15, 1652-1671. DOI: 10.1021/acs.jctc.8b01176
   for GFN1-xTB:
   * S. Grimme, C. Bannwarth, P. Shushkov, J. Chem. Theory Comput., 2017,
     13, 1989-2009. DOI: 10.1021/acs.jctc.7b00118
   for GFN0-xTB:
   * P. Pracht, E. Caldeweyher, S. Ehlert, S. Grimme, ChemRxiv, 2019, preprint.
     DOI: 10.26434/chemrxiv.8326202.v1
   for GFN-FF:
   * S. Spicher and S. Grimme, Angew. Chem. Int. Ed., 2020, 59, 15665-15673.
     DOI: 10.1002/anie.202004239
   
   for ALPB and GBSA implicit solvation:
   * S. Ehlert, M. Stahn, S. Spicher, S. Grimme, J. Chem. Theory Comput.,
     2021, 17, 4250-4261. DOI: 10.1021/acs.jctc.1c00471
   
   for DFT-D4:
   * E. Caldeweyher, C. Bannwarth and S. Grimme, J. Chem. Phys., 2017,
     147, 034112. DOI: 10.1063/1.4993215
   * E. Caldeweyher, S. Ehlert, A. Hansen, H. Neugebauer, S. Spicher,
     C. Bannwarth and S. Grimme, J. Chem. Phys., 2019, 150, 154122.
     DOI: 10.1063/1.5090222
   * E. Caldeweyher, J.-M. Mewes, S. Ehlert and S. Grimme, Phys. Chem. Chem. Phys.
     2020, 22, 8499-8512. DOI: 10.1039/D0CP00502A
   
   for sTDA-xTB:
   * S. Grimme and C. Bannwarth, J. Chem. Phys., 2016, 145, 054103.
     DOI: 10.1063/1.4959605
   
   in the mass-spec context:
   * V. Asgeirsson, C. Bauer and S. Grimme, Chem. Sci., 2017, 8, 4879.
     DOI: 10.1039/c7sc00601b
   * J. Koopman and S. Grimme, ACS Omega 2019, 4, 12, 15120-15133.
     DOI: 10.1021/acsomega.9b02011
   
   for metadynamics refer to:
   * S. Grimme, J. Chem. Theory Comput., 2019, 155, 2847-2862
     DOI: 10.1021/acs.jctc.9b00143
   
   for SPH calculations refer to:
   * S. Spicher and S. Grimme, J. Chem. Theory Comput., 2021, 17, 1701-1714
     DOI: 10.1021/acs.jctc.0c01306
   
   with help from (in alphabetical order)
   P. Atkinson, C. Bannwarth, F. Bohle, G. Brandenburg, E. Caldeweyher
   M. Checinski, S. Dohm, S. Ehlert, S. Ehrlich, I. Gerasimov, C. Hölzer
   A. Katbashev, J. Koopman, C. Lavigne, S. Lehtola, F. März, M. Müller,
   F. Musil, H. Neugebauer, J. Pisarek, C. Plett, P. Pracht, F. Pultar,
   J. Seibert, P. Shushkov, S. Spicher, M. Stahn, M. Steiner, T. Strunk,
   J. Stückrath, T. Rose, and J. Unsleber
   
 * started run on 2024/10/04 at 12:43:08.227     

           -------------------------------------------------
          |                Calculation Setup                |
           -------------------------------------------------

          program call               : /home/abt-grimme/AK-bin/xtb input.xyz --input input.inp --opt
          hostname                   : boar094.thch.uni-bonn.de
          coordinate file            : input.xyz
          omp threads                :                     8

   ID    Z sym.   atoms
    1    6 C      1-90, 273-362, 545-634, 817-906, 1089-1178, 1361-1450,
                  1633-1722, 1905-1994, 2177-2266, 2449-2538, 2721-2810,
                  2993-3082, 3265-3354
    2    1 H      91-272, 363-544, 635-816, 907-1088, 1179-1360, 1451-1632,
                  1723-1904, 1995-2176, 2267-2448, 2539-2720, 2811-2992,
                  3083-3264, 3355-3536

molecular fragmentation (1/2 indicates fragments):
111111111111111111111111111111111111111111111111111111111111111111111111
111111111111111111111111111111111111111111111111111111111111111111111111
111111111111111111111111111111111111111111111111111111111111111111111111
111111111111111111111111111111111111111111111111111111112222222222222222
222222222222222222222222222222222222222222222222222222222222222222222222
222222222222222222222222222222222222222222222222222222222222222222222222
222222222222222222222222222222222222222222222222222222222222222222222222
222222222222222222222222222222222222222222222222222222222222222222222222
222222222222222222222222222222222222222222222222222222222222222222222222
222222222222222222222222222222222222222222222222222222222222222222222222
222222222222222222222222222222222222222222222222222222222222222222222222
222222222222222222222222222222222222222222222222222222222222222222222222
222222222222222222222222222222222222222222222222222222222222222222222222
222222222222222222222222222222222222222222222222222222222222222222222222
222222222222222222222222222222222222222222222222222222222222222222222222
222222222222222222222222222222222222222222222222222222222222222222222222
222222222222222222222222222222222222222222222222222222222222222222222222
222222222222222222222222222222222222222222222222222222222222222222222222
222222222222222222222222222222222222222222222222222222222222222222222222
222222222222222222222222222222222222222222222222222222222222222222222222
222222222222222222222222222222222222222222222222222222222222222222222222
222222222222222222222222222222222222222222222222222222222222222222222222
222222222222222222222222222222222222222222222222222222222222222222222222
222222222222222222222222222222222222222222222222222222222222222222222222
222222222222222222222222222222222222222222222222222222222222222222222222
222222222222222222222222222222222222222222222222222222222222222222222222
222222222222222222222222222222222222222222222222222222222222222222222222
222222222222222222222222222222222222222222222222222222222222222222222222
222222222222222222222222222222222222222222222222222222222222222222222222
222222222222222222222222222222222222222222222222222222222222222222222222
222222222222222222222222222222222222222222222222222222222222222222222222
222222222222222222222222222222222222222222222222222222222222222222222222
222222222222222222222222222222222222222222222222222222222222222222222222
222222222222222222222222222222222222222222222222222222222222222222222222
222222222222222222222222222222222222222222222222222222222222222222222222
222222222222222222222222222222222222222222222222222222222222222222222222
222222222222222222222222222222222222222222222222222222222222222222222222
222222222222222222222222222222222222222222222222222222222222222222222222
222222222222222222222222222222222222222222222222222222222222222222222222
222222222222222222222222222222222222222222222222222222222222222222222222
222222222222222222222222222222222222222222222222222222222222222222222222
222222222222222222222222222222222222222222222222222222222222222222222222
222222222222222222222222222222222222222222222222222222222222222222222222
222222222222222222222222222222222222222222222222222222222222222222222222
222222222222222222222222222222222222222222222222222222222222222222222222
222222222222222222222222222222222222222222222222222222222222222222222222
222222222222222222222222222222222222222222222222222222222222222222222222
222222222222222222222222222222222222222222222222222222222222222222222222
222222222222222222222222222222222222222222222222222222222222222222222222
22222222
# atoms in fragment 1/2:   272  3264
 fragment masses (1/2) :     1264.41    15172.94
CMA distance (Bohr)    :  26.009
constraining FC (au)   :  0.0500

           -------------------------------------------------
          |                 G F N 2 - x T B                 |
           -------------------------------------------------

        Reference                      10.1021/acs.jctc.8b01176
      * Hamiltonian:
        H0-scaling (s, p, d)           1.850000    2.230000    2.230000
        zeta-weighting                 0.500000
      * Dispersion:
        s8                             2.700000
        a1                             0.520000
        a2                             5.000000
        s9                             5.000000
      * Repulsion:
        kExp                           1.500000    1.000000
        rExp                           1.000000
      * Coulomb:
        alpha                          2.000000
        third order                    shell-resolved
        anisotropic                    true
        a3                             3.000000
        a5                             4.000000
        cn-shift                       1.200000
        cn-exp                         4.000000
        max-rad                        5.000000


          ...................................................
          :                      SETUP                      :
          :.................................................:
          :  # basis functions                7046          :
          :  # atomic orbitals                7046          :
          :  # shells                         4706          :
          :  # electrons                      7046          :
          :  max. iterations                   250          :
          :  Hamiltonian                  GFN2-xTB          :
          :  restarted?                      false          :
          :  GBSA solvation                  false          :
          :  PC potential                    false          :
          :  electronic temp.          300.0000000     K    :
          :  accuracy                    1.0000000          :
          :  -> integral cutoff          0.2500000E+02      :
          :  -> integral neglect         0.1000000E-07      :
          :  -> SCF convergence          0.1000000E-05 Eh   :
          :  -> wf. convergence          0.1000000E-03 e    :
          :  Broyden damping             0.4000000          :
          ...................................................

 iter      E             dE          RMSdq      gap      omega  full diag
   1  -3766.7785826 -0.376678E+04  0.226E+00   11.45       0.0  T
   2  -3771.8105029 -0.503192E+01  0.126E+00   11.49       1.0  T
   3  -3772.0234690 -0.212966E+00  0.557E-01   11.48       1.0  T
   4  -3772.0451523 -0.216834E-01  0.143E-01   11.46       1.0  T
   5  -3772.0649361 -0.197838E-01  0.511E-02   11.45       1.0  T
   6  -3772.0649565 -0.204149E-04  0.716E-03   11.46       1.0  T
   7  -3772.0649894 -0.329296E-04  0.152E-03   11.46       1.1  T
   8  -3772.0649913 -0.188113E-05  0.543E-04   11.46       3.1  T
   9  -3772.0649914 -0.947534E-07  0.182E-04   11.46       9.2  T
  10  -3772.0649914 -0.150708E-07  0.686E-05   11.46      24.5  T

   *** convergence criteria satisfied after 10 iterations ***

         #    Occupation            Energy/Eh            Energy/eV
      -------------------------------------------------------------
         1        2.0000           -0.6268747             -17.0581
       ...           ...                  ...                  ...
      3517        2.0000           -0.3958232             -10.7709
      3518        2.0000           -0.3954106             -10.7597
      3519        2.0000           -0.3953300             -10.7575
      3520        2.0000           -0.3952579             -10.7555
      3521        2.0000           -0.3947749             -10.7424
      3522        2.0000           -0.3946882             -10.7400
      3523        2.0000           -0.3944130             -10.7325 (HOMO)
      3524                          0.0265899               0.7235 (LUMO)
      3525                          0.0277528               0.7552
      3526                          0.0286860               0.7806
      3527                          0.0288196               0.7842
      3528                          0.0291011               0.7919
       ...                                ...                  ...
      7046                          0.3900053              10.6126
      -------------------------------------------------------------
                  HL-Gap            0.4210029 Eh           11.4561 eV
             Fermi-level           -0.1839116 Eh           -5.0045 eV

 SCC (total)                   0 d,  0 h, 18 min,  4.217 sec
 SCC setup                      ...        0 min,  0.491 sec (  0.045%)
 Dispersion                     ...        0 min,  4.160 sec (  0.384%)
 classical contributions        ...        0 min,  0.167 sec (  0.015%)
 integral evaluation            ...        0 min,  7.099 sec (  0.655%)
 iterations                     ...       12 min, 58.385 sec ( 71.792%)
 molecular gradient             ...        4 min, 43.266 sec ( 26.126%)
 printout                       ...        0 min, 10.648 sec (  0.982%)

         :::::::::::::::::::::::::::::::::::::::::::::::::::::
         ::                     SUMMARY                     ::
         :::::::::::::::::::::::::::::::::::::::::::::::::::::
         :: total energy           -3716.270459717600 Eh    ::
         :: gradient norm              0.019646114169 Eh/a0 ::
         :: HOMO-LUMO gap             11.456071386930 eV    ::
         ::.................................................::
         :: SCC energy             -3772.064991409339 Eh    ::
         :: -> isotropic ES            0.585952587297 Eh    ::
         :: -> anisotropic ES          1.297584473503 Eh    ::
         :: -> anisotropic XC          2.077919172169 Eh    ::
         :: -> dispersion             -4.536533476291 Eh    ::
         :: repulsion energy          55.116936063362 Eh    ::
         :: add. restraining           0.000000000000 Eh    ::
         :: total charge              -0.000000000009 e     ::
         :::::::::::::::::::::::::::::::::::::::::::::::::::::

      ----------------------------------------------------------- 
     |              Fast Inertial Relaxation Engine              |
      ----------------------------------------------------------- 

          ...................................................
          :                      SETUP                      :
          :.................................................:
          :   energy convergence        0.5000000E-05 Eh    :
          :   grad. convergence         0.1000000E-02 Eh/a0 :
          :   optimization log               true           :
          :   writing optlog all                1     steps :
          :   Hessian reset                    20     steps :
          :   time step scaling                 5     steps :
          :   maximium step len.        1.0000000     a0    :
          :   initial time step         0.2500000     fs    :
          :   maximum time step         1.2500000     fs    :
          :   power reset thr           0.0000000     au    :
          :   alpha parameter           0.1000000           :
          :   BFGS update                   false           :
          :   preconditioning               false           :
          ...................................................

........................................................................
.............................. CYCLE    1 ..............................
........................................................................

 iter      E             dE          RMSdq      gap      omega  full diag
   1  -3772.0685162 -0.377207E+04  0.263E-04   11.46       0.0  T
   2  -3772.0685163 -0.291807E-07  0.156E-04   11.46      10.8  T
   3  -3772.0685163 -0.509317E-09  0.498E-05   11.46      33.7  T
     SCC iter.                  ...        3 min, 51.183 sec
     gradient                   ...        4 min, 42.938 sec
 * total energy  : -3716.2705033 Eh     change    :  -0.4357191E-04 Eh
   gradient norm :     0.0182147 Eh/a0  converged?    E=F G=F D=F
   time step     :     0.2500000 fs     power     :   0.2225156E-08
   step length   :     0.0023025 a0     speed     :   0.2227776E-03

........................................................................
.............................. CYCLE    2 ..............................
........................................................................

 iter      E             dE          RMSdq      gap      omega  full diag
   1  -3772.0736444 -0.377207E+04  0.385E-04   11.46       0.0  T
   2  -3772.0736445 -0.591499E-07  0.228E-04   11.46       7.4  T
   3  -3772.0736445 -0.897671E-09  0.699E-05   11.46      24.1  T
     SCC iter.                  ...        3 min, 42.489 sec
     gradient                   ...        4 min, 42.576 sec
 * total energy  : -3716.2705611 Eh     change    :  -0.5784395E-04 Eh
   gradient norm :     0.0161626 Eh/a0  converged?    E=F G=F D=F
   time step     :     0.2500000 fs     power     :   0.2884312E-08
   step length   :     0.0033695 a0     speed     :   0.3260199E-03

........................................................................
.............................. CYCLE    3 ..............................
........................................................................

 iter      E             dE          RMSdq      gap      omega  full diag
   1  -3772.0801472 -0.377208E+04  0.493E-04   11.46       0.0  T
   2  -3772.0801473 -0.950367E-07  0.293E-04   11.46       5.7  T
   3  -3772.0801473 -0.149066E-08  0.881E-05   11.46      19.1  T
     SCC iter.                  ...        3 min, 41.565 sec
     gradient                   ...        4 min, 43.366 sec
 * total energy  : -3716.2706252 Eh     change    :  -0.6402033E-04 Eh
   gradient norm :     0.0136248 Eh/a0  converged?    E=F G=F D=F
   time step     :     0.2500000 fs     power     :   0.3094920E-08
   step length   :     0.0043147 a0     speed     :   0.4174666E-03

........................................................................
.............................. CYCLE    4 ..............................
........................................................................

 iter      E             dE          RMSdq      gap      omega  full diag
   1  -3772.0877235 -0.377209E+04  0.583E-04   11.46       0.0  T
   2  -3772.0877236 -0.129167E-06  0.346E-04   11.46       4.9  T
   3  -3772.0877236 -0.207820E-08  0.102E-04   11.46      16.5  T
     SCC iter.                  ...        3 min, 44.711 sec
     gradient                   ...        4 min, 41.463 sec
 * total energy  : -3716.2706866 Eh     change    :  -0.6145996E-04 Eh
   gradient norm :     0.0108143 Eh/a0  converged?    E=F G=F D=F
   time step     :     0.2500000 fs     power     :   0.2850541E-08
   step length   :     0.0051055 a0     speed     :   0.4939813E-03

........................................................................
.............................. CYCLE    5 ..............................
........................................................................

 iter      E             dE          RMSdq      gap      omega  full diag
   1  -3772.0959911 -0.377210E+04  0.653E-04   11.46       0.0  T
   2  -3772.0959913 -0.154862E-06  0.388E-04   11.46       4.3  T
   3  -3772.0959913 -0.249975E-08  0.111E-04   11.46      15.2  T
     SCC iter.                  ...        3 min, 39.669 sec
     gradient                   ...        4 min, 43.081 sec
 * total energy  : -3716.2707380 Eh     change    :  -0.5136555E-04 Eh
   gradient norm :     0.0080922 Eh/a0  converged?    E=F G=F D=F
   time step     :     0.2500000 fs     power     :   0.2227727E-08
   step length   :     0.0057141 a0     speed     :   0.5528706E-03

........................................................................
.............................. CYCLE    6 ..............................
........................................................................

 iter      E             dE          RMSdq      gap      omega  full diag
   1  -3772.1053415 -0.377211E+04  0.772E-04   11.46       0.0  T
   2  -3772.1053417 -0.202727E-06  0.459E-04   11.46       3.7  T
   3  -3772.1053417 -0.312457E-08  0.124E-04   11.46      13.5  T
     SCC iter.                  ...        3 min, 50.711 sec
     gradient                   ...        4 min, 43.647 sec
 * total energy  : -3716.2707769 Eh     change    :  -0.3894969E-04 Eh
   gradient norm :     0.0060040 Eh/a0  converged?    E=F G=F D=F
   time step     :     0.2750000 fs     power     :   0.1287088E-08
   step length   :     0.0067671 a0     speed     :   0.5952328E-03

........................................................................
.............................. CYCLE    7 ..............................
........................................................................

 iter      E             dE          RMSdq      gap      omega  full diag
   1  -3772.1148793 -0.377211E+04  0.867E-04   11.46       0.0  T
   2  -3772.1148795 -0.218177E-06  0.516E-04   11.46       3.3  T
   3  -3772.1148795 -0.336559E-08  0.124E-04   11.46      13.5  T
     SCC iter.                  ...        3 min, 43.943 sec
     gradient                   ...        4 min, 42.535 sec
 * total energy  : -3716.2707972 Eh     change    :  -0.2030223E-04 Eh
   gradient norm :     0.0059903 Eh/a0  converged?    E=F G=F D=F
   time step     :     0.3025000 fs     power     :   0.2911681E-09
   step length   :     0.0075879 a0     speed     :   0.6067513E-03

........................................................................
.............................. CYCLE    8 ..............................
........................................................................

 iter      E             dE          RMSdq      gap      omega  full diag
   1  -3772.1230772 -0.377212E+04  0.903E-04   11.46       0.0  T
   2  -3772.1230773 -0.174588E-06  0.539E-04   11.46       3.1  T
   3  -3772.1230774 -0.270211E-08  0.102E-04   11.46      16.4  T
     SCC iter.                  ...        3 min, 44.565 sec
     gradient                   ...        4 min, 41.675 sec
 * total energy  : -3716.2708005 Eh     change    :  -0.3306874E-05 Eh
   gradient norm :     0.0075952 Eh/a0  converged?    E=T G=F D=F
   time step     :     0.3327500 fs     power     :  -0.3438545E-09
   step length   :     0.0078689 a0     speed     :   0.5720200E-03

........................................................................
.............................. CYCLE    9 ..............................
........................................................................
 * reset velocities

 iter      E             dE          RMSdq      gap      omega  full diag
   1  -3772.1228007 -0.377212E+04  0.307E-05   11.46       0.0  T
   2  -3772.1228007 -0.106184E-08  0.149E-05   11.46     113.1  T
   3  -3772.1228007 -0.166892E-09  0.813E-06   11.46     207.0  T
     SCC iter.                  ...        3 min, 46.250 sec
     gradient                   ...        4 min, 41.886 sec
 * total energy  : -3716.2708020 Eh     change    :  -0.1492051E-05 Eh
   gradient norm :     0.0074733 Eh/a0  converged?    E=T G=F D=T
   time step     :     0.1663750 fs     power     :   0.1174883E-09
   step length   :     0.0001971 a0     speed     :   0.2865838E-04

........................................................................
.............................. CYCLE   10 ..............................
........................................................................

 iter      E             dE          RMSdq      gap      omega  full diag
   1  -3772.1222521 -0.377212E+04  0.467E-05   11.46       0.0  T
   2  -3772.1222521 -0.647560E-09  0.277E-05   11.46      60.7  T
   3  -3772.1222521  0.218279E-10  0.757E-06   11.46     222.3  T
     SCC iter.                  ...        3 min, 41.219 sec
     gradient                   ...        4 min, 44.495 sec
 * total energy  : -3716.2708049 Eh     change    :  -0.2874217E-05 Eh
   gradient norm :     0.0072272 Eh/a0  converged?    E=T G=F D=T
   time step     :     0.1663750 fs     power     :   0.2253822E-09
   step length   :     0.0003911 a0     speed     :   0.5685656E-04

........................................................................
.............................. CYCLE   11 ..............................
........................................................................

 iter      E             dE          RMSdq      gap      omega  full diag
   1  -3772.1214430 -0.377212E+04  0.677E-05   11.46       0.0  T
   2  -3772.1214431 -0.141381E-08  0.401E-05   11.46      41.9  T
   3  -3772.1214431  0.281943E-10  0.110E-05   11.46     152.5  T
     SCC iter.                  ...        3 min, 44.157 sec
     gradient                   ...        4 min, 42.678 sec
 * total energy  : -3716.2708090 Eh     change    :  -0.4081884E-05 Eh
   gradient norm :     0.0068677 Eh/a0  converged?    E=T G=F D=T
   time step     :     0.1663750 fs     power     :   0.3167475E-09
   step length   :     0.0005786 a0     speed     :   0.8412311E-04

........................................................................
.............................. CYCLE   12 ..............................
........................................................................

 iter      E             dE          RMSdq      gap      omega  full diag
   1  -3772.1203909 -0.377212E+04  0.885E-05   11.46       0.0  T
   2  -3772.1203909 -0.225373E-08  0.525E-05   11.46      32.0  T
   3  -3772.1203909 -0.209184E-10  0.142E-05   11.46     118.3  T
     SCC iter.                  ...        3 min, 44.318 sec
     gradient                   ...        4 min, 42.323 sec
 * total energy  : -3716.2708140 Eh     change    :  -0.5019564E-05 Eh
   gradient norm :     0.0064064 Eh/a0  converged?    E=F G=F D=T
   time step     :     0.1663750 fs     power     :   0.3860156E-09
   step length   :     0.0007568 a0     speed     :   0.1100227E-03

........................................................................
.............................. CYCLE   13 ..............................
........................................................................

 iter      E             dE          RMSdq      gap      omega  full diag
   1  -3772.1191187 -0.377212E+04  0.108E-04   11.46       0.0  T
   2  -3772.1191187 -0.334103E-08  0.639E-05   11.46      26.3  T
   3  -3772.1191187  0.663931E-10  0.171E-05   11.46      98.5  T
     SCC iter.                  ...        3 min, 46.045 sec
     gradient                   ...        4 min, 44.523 sec
 * total energy  : -3716.2708196 Eh     change    :  -0.5633520E-05 Eh
   gradient norm :     0.0058593 Eh/a0  converged?    E=F G=F D=T
   time step     :     0.1663750 fs     power     :   0.4294226E-09
   step length   :     0.0009227 a0     speed     :   0.1341519E-03

........................................................................
.............................. CYCLE   14 ..............................
........................................................................

 iter      E             dE          RMSdq      gap      omega  full diag
   1  -3772.1176559 -0.377212E+04  0.125E-04   11.46       0.0  T
   2  -3772.1176559 -0.447608E-08  0.742E-05   11.46      22.7  T
   3  -3772.1176559 -0.268301E-10  0.195E-05   11.46      86.2  T
     SCC iter.                  ...        3 min, 42.010 sec
     gradient                   ...        4 min, 43.426 sec
 * total energy  : -3716.2708256 Eh     change    :  -0.5932940E-05 Eh
   gradient norm :     0.0052490 Eh/a0  converged?    E=F G=F D=F
   time step     :     0.1663750 fs     power     :   0.4453811E-09
   step length   :     0.0010740 a0     speed     :   0.1561469E-03

........................................................................
.............................. CYCLE   15 ..............................
........................................................................

 iter      E             dE          RMSdq      gap      omega  full diag
   1  -3772.1158579 -0.377212E+04  0.156E-04   11.46       0.0  T
   2  -3772.1158579 -0.686350E-08  0.923E-05   11.46      18.2  T
   3  -3772.1158579  0.131877E-10  0.240E-05   11.46      70.1  T
     SCC iter.                  ...        3 min, 49.406 sec
     gradient                   ...        4 min, 43.910 sec
 * total energy  : -3716.2708321 Eh     change    :  -0.6486527E-05 Eh
   gradient norm :     0.0045366 Eh/a0  converged?    E=F G=F D=F
   time step     :     0.1830125 fs     power     :   0.4320092E-09
   step length   :     0.0013441 a0     speed     :   0.1776541E-03

........................................................................
.............................. CYCLE   16 ..............................
........................................................................

 iter      E             dE          RMSdq      gap      omega  full diag
   1  -3772.1137183 -0.377211E+04  0.189E-04   11.46       0.0  T
   2  -3772.1137183 -0.972614E-08  0.112E-04   11.46      15.0  T
   3  -3772.1137183 -0.545697E-10  0.283E-05   11.46      59.4  T
     SCC iter.                  ...        3 min, 48.487 sec
     gradient                   ...        4 min, 42.210 sec
 * total energy  : -3716.2708386 Eh     change    :  -0.6588759E-05 Eh
   gradient norm :     0.0037729 Eh/a0  converged?    E=F G=F D=F
   time step     :     0.2013138 fs     power     :   0.3847668E-09
   step length   :     0.0016450 a0     speed     :   0.1976580E-03

........................................................................
.............................. CYCLE   17 ..............................
........................................................................

 iter      E             dE          RMSdq      gap      omega  full diag
   1  -3772.1112772 -0.377211E+04  0.223E-04   11.46       0.0  T
   2  -3772.1112772 -0.126624E-07  0.133E-04   11.46      12.7  T
   3  -3772.1112772 -0.463842E-10  0.319E-05   11.46      52.7  T
     SCC iter.                  ...        3 min, 48.146 sec
     gradient                   ...        4 min, 43.004 sec
 * total energy  : -3716.2708448 Eh     change    :  -0.6127932E-05 Eh
   gradient norm :     0.0030920 Eh/a0  converged?    E=F G=F D=F
   time step     :     0.2214451 fs     power     :   0.3055476E-09
   step length   :     0.0019657 a0     speed     :   0.2147220E-03

........................................................................
.............................. CYCLE   18 ..............................
........................................................................

 iter      E             dE          RMSdq      gap      omega  full diag
   1  -3772.1086656 -0.377211E+04  0.254E-04   11.46       0.0  T
   2  -3772.1086657 -0.146542E-07  0.151E-04   11.46      11.1  T
   3  -3772.1086657 -0.152795E-09  0.335E-05   11.46      50.2  T
     SCC iter.                  ...        3 min, 41.842 sec
     gradient                   ...        4 min, 57.143 sec
 * total energy  : -3716.2708498 Eh     change    :  -0.5038082E-05 Eh
   gradient norm :     0.0027478 Eh/a0  converged?    E=F G=F D=F
   time step     :     0.2435896 fs     power     :   0.2087047E-09
   step length   :     0.0022823 a0     speed     :   0.2266376E-03

........................................................................
.............................. CYCLE   19 ..............................
........................................................................

 iter      E             dE          RMSdq      gap      omega  full diag
   1  -3772.1061527 -0.377211E+04  0.276E-04   11.46       0.0  T
   2  -3772.1061527 -0.141845E-07  0.164E-04   11.46      10.3  T
   3  -3772.1061527 -0.138698E-09  0.314E-05   11.46      53.6  T
     SCC iter.                  ...        3 min, 56.639 sec
     gradient                   ...        4 min, 44.641 sec
 * total energy  : -3716.2708536 Eh     change    :  -0.3737895E-05 Eh
   gradient norm :     0.0029119 Eh/a0  converged?    E=T G=F D=F
   time step     :     0.2679486 fs     power     :   0.1246301E-09
   step length   :     0.0025521 a0     speed     :   0.2303895E-03

........................................................................
.............................. CYCLE   20 ..............................
........................................................................

 iter      E             dE          RMSdq      gap      omega  full diag
   1  -3772.1040905 -0.377210E+04  0.284E-04   11.46       0.0  T
   2  -3772.1040905 -0.107952E-07  0.169E-04   11.46       9.9  T
   3  -3772.1040905 -0.227828E-09  0.253E-05   11.46      66.4  T
     SCC iter.                  ...        3 min, 47.141 sec
     gradient                   ...        4 min, 43.830 sec
 * total energy  : -3716.2708565 Eh     change    :  -0.2938748E-05 Eh
   gradient norm :     0.0033579 Eh/a0  converged?    E=T G=F D=F
   time step     :     0.2947435 fs     power     :   0.8514789E-10
   step length   :     0.0027523 a0     speed     :   0.2258711E-03
 * RMSD in coord.:     0.0007007 a0     energy gain  -0.3967726E-03 Eh

........................................................................
.............................. CYCLE   21 ..............................
........................................................................

 iter      E             dE          RMSdq      gap      omega  full diag
   1  -3772.1030557 -0.377210E+04  0.220E-04   11.46       0.0  T
   2  -3772.1030557 -0.400632E-08  0.130E-04   11.46      12.9  T
   3  -3772.1030557 -0.197815E-09  0.142E-05   11.46     118.8  T
     SCC iter.                  ...        3 min, 42.590 sec
     gradient                   ...        4 min, 43.208 sec
 * total energy  : -3716.2708589 Eh     change    :  -0.2426952E-05 Eh
   gradient norm :     0.0036442 Eh/a0  converged?    E=T G=F D=F
   time step     :     0.2500000 fs     power     :   0.1048162E-09
   step length   :     0.0022292 a0     speed     :   0.2156860E-03

........................................................................
.............................. CYCLE   22 ..............................
........................................................................

 iter      E             dE          RMSdq      gap      omega  full diag
   1  -3772.1027341 -0.377210E+04  0.203E-04   11.46       0.0  T
   2  -3772.1027341 -0.235787E-08  0.120E-04   11.46      14.1  T
   3  -3772.1027341 -0.178261E-09  0.116E-05   11.46     144.9  T
     SCC iter.                  ...        3 min, 45.722 sec
     gradient                   ...        4 min, 42.439 sec
 * total energy  : -3716.2708620 Eh     change    :  -0.3075692E-05 Eh
   gradient norm :     0.0037126 Eh/a0  converged?    E=T G=F D=F
   time step     :     0.2500000 fs     power     :   0.1474447E-09
   step length   :     0.0021544 a0     speed     :   0.2084477E-03

........................................................................
.............................. CYCLE   23 ..............................
........................................................................

 iter      E             dE          RMSdq      gap      omega  full diag
   1  -3772.1030797 -0.377210E+04  0.196E-04   11.46       0.0  T
   2  -3772.1030797 -0.264663E-08  0.114E-04   11.46      14.7  T
   3  -3772.1030797 -0.904947E-10  0.140E-05   11.46     120.5  T
     SCC iter.                  ...        3 min, 43.862 sec
     gradient                   ...        4 min, 39.852 sec
 * total energy  : -3716.2708658 Eh     change    :  -0.3840020E-05 Eh
   gradient norm :     0.0035445 Eh/a0  converged?    E=T G=F D=F
   time step     :     0.2500000 fs     power     :   0.1903357E-09
   step length   :     0.0021284 a0     speed     :   0.2059353E-03

........................................................................
.............................. CYCLE   24 ..............................
........................................................................

 iter      E             dE          RMSdq      gap      omega  full diag
   1  -3772.1040207 -0.377210E+04  0.196E-04   11.46       0.0  T
   2  -3772.1040207 -0.414093E-08  0.114E-04   11.46      14.8  T
   3  -3772.1040207 -0.106866E-09  0.190E-05   11.46      88.6  T
     SCC iter.                  ...        3 min, 49.484 sec
     gradient                   ...        4 min, 42.191 sec
 * total energy  : -3716.2708702 Eh     change    :  -0.4398257E-05 Eh
   gradient norm :     0.0031653 Eh/a0  converged?    E=T G=F D=F
   time step     :     0.2500000 fs     power     :   0.2160964E-09
   step length   :     0.0021476 a0     speed     :   0.2077900E-03

........................................................................
.............................. CYCLE   25 ..............................
........................................................................

 iter      E             dE          RMSdq      gap      omega  full diag
   1  -3772.1054666 -0.377211E+04  0.201E-04   11.46       0.0  T
   2  -3772.1054666 -0.642194E-08  0.116E-04   11.46      14.5  T
   3  -3772.1054666  0.386535E-10  0.239E-05   11.46      70.3  T
     SCC iter.                  ...        3 min, 41.350 sec
     gradient                   ...        4 min, 41.086 sec
 * total energy  : -3716.2708747 Eh     change    :  -0.4461360E-05 Eh
   gradient norm :     0.0026332 Eh/a0  converged?    E=T G=F D=F
   time step     :     0.2500000 fs     power     :   0.2151045E-09
   step length   :     0.0021961 a0     speed     :   0.2124798E-03

........................................................................
.............................. CYCLE   26 ..............................
........................................................................

 iter      E             dE          RMSdq      gap      omega  full diag
   1  -3772.1075161 -0.377211E+04  0.228E-04   11.46       0.0  T
   2  -3772.1075161 -0.103491E-07  0.132E-04   11.46      12.8  T
   3  -3772.1075161 -0.541149E-10  0.308E-05   11.46      54.5  T
     SCC iter.                  ...        3 min, 41.205 sec
     gradient                   ...        4 min, 41.583 sec
 * total energy  : -3716.2708791 Eh     change    :  -0.4455563E-05 Eh
   gradient norm :     0.0019977 Eh/a0  converged?    E=T G=F D=F
   time step     :     0.2750000 fs     power     :   0.1814722E-09
   step length   :     0.0024930 a0     speed     :   0.2192849E-03

........................................................................
.............................. CYCLE   27 ..............................
........................................................................

 iter      E             dE          RMSdq      gap      omega  full diag
   1  -3772.1100908 -0.377211E+04  0.254E-04   11.46       0.0  T
   2  -3772.1100909 -0.144673E-07  0.146E-04   11.46      11.5  T
   3  -3772.1100909 -0.350155E-10  0.360E-05   11.46      46.8  T
     SCC iter.                  ...        3 min, 45.312 sec
     gradient                   ...        4 min, 41.490 sec
 * total energy  : -3716.2708828 Eh     change    :  -0.3661460E-05 Eh
   gradient norm :     0.0015644 Eh/a0  converged?    E=T G=F D=F
   time step     :     0.3025000 fs     power     :   0.1193674E-09
   step length   :     0.0028203 a0     speed     :   0.2255169E-03

........................................................................
.............................. CYCLE   28 ..............................
........................................................................

 iter      E             dE          RMSdq      gap      omega  full diag
   1  -3772.1128754 -0.377211E+04  0.263E-04   11.46       0.0  T
   2  -3772.1128754 -0.147243E-07  0.151E-04   11.46      11.1  T
   3  -3772.1128754 -0.636646E-10  0.357E-05   11.46      47.1  T
     SCC iter.                  ...        3 min, 52.794 sec
     gradient                   ...        4 min, 41.777 sec
 * total energy  : -3716.2708852 Eh     change    :  -0.2425359E-05 Eh
   gradient norm :     0.0017649 Eh/a0  converged?    E=T G=F D=F
   time step     :     0.3327500 fs     power     :   0.5705319E-10
   step length   :     0.0031077 a0     speed     :   0.2259096E-03

........................................................................
.............................. CYCLE   29 ..............................
........................................................................

 iter      E             dE          RMSdq      gap      omega  full diag
   1  -3772.1153356 -0.377212E+04  0.247E-04   11.46       0.0  T
   2  -3772.1153357 -0.972341E-08  0.142E-04   11.46      11.8  T
   3  -3772.1153357 -0.137334E-09  0.279E-05   11.46      60.2  T
     SCC iter.                  ...        3 min, 44.628 sec
     gradient                   ...        4 min, 41.229 sec
 * total energy  : -3716.2708869 Eh     change    :  -0.1660054E-05 Eh
   gradient norm :     0.0022755 Eh/a0  converged?    E=T G=F D=F
   time step     :     0.3660250 fs     power     :   0.3329737E-10
   step length   :     0.0032750 a0     speed     :   0.2164278E-03

........................................................................
.............................. CYCLE   30 ..............................
........................................................................

 iter      E             dE          RMSdq      gap      omega  full diag
   1  -3772.1170595 -0.377212E+04  0.219E-04   11.46       0.0  T
   2  -3772.1170595 -0.375985E-08  0.127E-04   11.46      13.3  T
   3  -3772.1170595 -0.636646E-11  0.161E-05   11.46     104.5  T
     SCC iter.                  ...        3 min, 50.269 sec
     gradient                   ...        4 min, 40.562 sec
 * total energy  : -3716.2708890 Eh     change    :  -0.2073175E-05 Eh
   gradient norm :     0.0025912 Eh/a0  converged?    E=T G=F D=F
   time step     :     0.4026275 fs     power     :   0.5420880E-10
   step length   :     0.0034115 a0     speed     :   0.2049552E-03

........................................................................
.............................. CYCLE   31 ..............................
........................................................................

 iter      E             dE          RMSdq      gap      omega  full diag
   1  -3772.1177667 -0.377212E+04  0.200E-04   11.46       0.0  T
   2  -3772.1177667 -0.124692E-08  0.118E-04   11.46      14.3  T
   3  -3772.1177667 -0.859472E-10  0.924E-06   11.46     181.9  T
     SCC iter.                  ...        3 min, 47.132 sec
     gradient                   ...        4 min, 42.777 sec
 * total energy  : -3716.2708925 Eh     change    :  -0.3484565E-05 Eh
   gradient norm :     0.0024996 Eh/a0  converged?    E=T G=F D=F
   time step     :     0.4428903 fs     power     :   0.9451910E-10
   step length   :     0.0036441 a0     speed     :   0.1990235E-03

........................................................................
.............................. CYCLE   32 ..............................
........................................................................

 iter      E             dE          RMSdq      gap      omega  full diag
   1  -3772.1173312 -0.377212E+04  0.208E-04   11.46       0.0  T
   2  -3772.1173312 -0.543105E-08  0.125E-04   11.46      13.4  T
   3  -3772.1173312  0.604814E-10  0.190E-05   11.46      88.5  T
     SCC iter.                  ...        3 min, 48.236 sec
     gradient                   ...        4 min, 40.390 sec
 * total energy  : -3716.2708973 Eh     change    :  -0.4870785E-05 Eh
   gradient norm :     0.0020080 Eh/a0  converged?    E=T G=F D=F
   time step     :     0.4871793 fs     power     :   0.1158209E-09
   step length   :     0.0040503 a0     speed     :   0.2010986E-03

........................................................................
.............................. CYCLE   33 ..............................
........................................................................

 iter      E             dE          RMSdq      gap      omega  full diag
   1  -3772.1159261 -0.377212E+04  0.234E-04   11.46       0.0  T
   2  -3772.1159261 -0.145806E-07  0.143E-04   11.46      11.8  T
   3  -3772.1159261  0.864020E-11  0.344E-05   11.46      48.8  T
     SCC iter.                  ...        3 min, 43.980 sec
     gradient                   ...        4 min, 41.888 sec
 * total energy  : -3716.2709023 Eh     change    :  -0.5021700E-05 Eh
   gradient norm :     0.0015252 Eh/a0  converged?    E=F G=F D=F
   time step     :     0.5358972 fs     power     :   0.9432215E-10
   step length   :     0.0046124 a0     speed     :   0.2081895E-03

........................................................................
.............................. CYCLE   34 ..............................
........................................................................

 iter      E             dE          RMSdq      gap      omega  full diag
   1  -3772.1143589 -0.377211E+04  0.238E-04   11.46       0.0  T
   2  -3772.1143590 -0.179252E-07  0.146E-04   11.46      11.5  T
   3  -3772.1143590 -0.120963E-09  0.379E-05   11.46      44.4  T
     SCC iter.                  ...        3 min, 41.970 sec
     gradient                   ...        4 min, 41.373 sec
 * total energy  : -3716.2709063 Eh     change    :  -0.3961900E-05 Eh
   gradient norm :     0.0017586 Eh/a0  converged?    E=T G=F D=F
   time step     :     0.5894869 fs     power     :   0.5832258E-10
   step length   :     0.0051918 a0     speed     :   0.2130398E-03

........................................................................
.............................. CYCLE   35 ..............................
........................................................................

 iter      E             dE          RMSdq      gap      omega  full diag
   1  -3772.1139170 -0.377211E+04  0.224E-04   11.46       0.0  T
   2  -3772.1139170 -0.829959E-08  0.137E-04   11.46      12.3  T
   3  -3772.1139170 -0.160981E-09  0.213E-05   11.46      78.9  T
     SCC iter.                  ...        3 min, 44.756 sec
     gradient                   ...        4 min, 40.606 sec
 * total energy  : -3716.2709102 Eh     change    :  -0.3918996E-05 Eh
   gradient norm :     0.0020976 Eh/a0  converged?    E=T G=F D=F
   time step     :     0.6484356 fs     power     :   0.6297092E-10
   step length   :     0.0056554 a0     speed     :   0.2109648E-03

........................................................................
.............................. CYCLE   36 ..............................
........................................................................

 iter      E             dE          RMSdq      gap      omega  full diag
   1  -3772.1154280 -0.377212E+04  0.268E-04   11.46       0.0  T
   2  -3772.1154280 -0.329692E-08  0.158E-04   11.46      10.6  T
   3  -3772.1154280 -0.103228E-09  0.156E-05   11.46     107.7  T
     SCC iter.                  ...        3 min, 40.642 sec
     gradient                   ...        4 min, 40.996 sec
 * total energy  : -3716.2709159 Eh     change    :  -0.5624359E-05 Eh
   gradient norm :     0.0018453 Eh/a0  converged?    E=F G=F D=F
   time step     :     0.7132792 fs     power     :   0.9081063E-10
   step length   :     0.0062489 a0     speed     :   0.2119139E-03

........................................................................
.............................. CYCLE   37 ..............................
........................................................................

 iter      E             dE          RMSdq      gap      omega  full diag
   1  -3772.1188512 -0.377212E+04  0.352E-04   11.46       0.0  T
   2  -3772.1188512 -0.148498E-07  0.204E-04   11.46       8.2  T
   3  -3772.1188512  0.422915E-10  0.356E-05   11.46      47.2  T
     SCC iter.                  ...        3 min, 40.757 sec
     gradient                   ...        4 min, 41.935 sec
 * total energy  : -3716.2709223 Eh     change    :  -0.6412349E-05 Eh
   gradient norm :     0.0013912 Eh/a0  converged?    E=F G=F D=F
   time step     :     0.7846071 fs     power     :   0.8080265E-10
   step length   :     0.0071341 a0     speed     :   0.2199392E-03

........................................................................
.............................. CYCLE   38 ..............................
........................................................................

 iter      E             dE          RMSdq      gap      omega  full diag
   1  -3772.1224093 -0.377212E+04  0.349E-04   11.46       0.0  T
   2  -3772.1224093 -0.189998E-07  0.203E-04   11.46       8.3  T
   3  -3772.1224093 -0.405180E-09  0.384E-05   11.46      43.7  T
     SCC iter.                  ...        3 min, 42.682 sec
     gradient                   ...        4 min, 43.823 sec
 * total energy  : -3716.2709277 Eh     change    :  -0.5403343E-05 Eh
   gradient norm :     0.0017318 Eh/a0  converged?    E=F G=F D=F
   time step     :     0.8630678 fs     power     :   0.5570731E-10
   step length   :     0.0080876 a0     speed     :   0.2266680E-03

........................................................................
.............................. CYCLE   39 ..............................
........................................................................

 iter      E             dE          RMSdq      gap      omega  full diag
   1  -3772.1234597 -0.377212E+04  0.279E-04   11.46       0.0  T
   2  -3772.1234597 -0.842056E-08  0.164E-04   11.46      10.3  T
   3  -3772.1234597 -0.439741E-09  0.280E-05   11.46      60.1  T
     SCC iter.                  ...        3 min, 39.812 sec
     gradient                   ...        4 min, 41.125 sec
 * total energy  : -3716.2709341 Eh     change    :  -0.6458655E-05 Eh
   gradient norm :     0.0016992 Eh/a0  converged?    E=F G=F D=F
   time step     :     0.9493746 fs     power     :   0.7503023E-10
   step length   :     0.0089623 a0     speed     :   0.2283491E-03

........................................................................
.............................. CYCLE   40 ..............................
........................................................................

 iter      E             dE          RMSdq      gap      omega  full diag
   1  -3772.1213700 -0.377212E+04  0.344E-04   11.46       0.0  T
   2  -3772.1213700 -0.237087E-07  0.205E-04   11.46       8.2  T
   3  -3772.1213700  0.233285E-09  0.496E-05   11.46      33.9  T
     SCC iter.                  ...        3 min, 38.666 sec
     gradient                   ...        4 min, 41.806 sec
 * total energy  : -3716.2709417 Eh     change    :  -0.7620905E-05 Eh
   gradient norm :     0.0013660 Eh/a0  converged?    E=F G=F D=F
   time step     :     1.0443120 fs     power     :   0.6902722E-10
   step length   :     0.0102092 a0     speed     :   0.2364712E-03

........................................................................
.............................. CYCLE   41 ..............................
........................................................................

 iter      E             dE          RMSdq      gap      omega  full diag
   1  -3772.1194634 -0.377212E+04  0.368E-04   11.46       0.0  T
   2  -3772.1194634 -0.153796E-07  0.219E-04   11.46       7.7  T
   3  -3772.1194634  0.174168E-09  0.335E-05   11.46      50.1  T
     SCC iter.                  ...        3 min, 39.715 sec
     gradient                   ...        4 min, 40.220 sec
 * total energy  : -3716.2709489 Eh     change    :  -0.7134846E-05 Eh
   gradient norm :     0.0016517 Eh/a0  converged?    E=F G=F D=F
   time step     :     1.1487432 fs     power     :   0.5991583E-10
   step length   :     0.0115607 a0     speed     :   0.2434303E-03

........................................................................
.............................. CYCLE   42 ..............................
........................................................................

 iter      E             dE          RMSdq      gap      omega  full diag
   1  -3772.1214455 -0.377212E+04  0.409E-04   11.46       0.0  T
   2  -3772.1214456 -0.191558E-07  0.237E-04   11.46       7.1  T
   3  -3772.1214456 -0.127329E-09  0.437E-05   11.46      38.5  T
     SCC iter.                  ...        3 min, 38.207 sec
     gradient                   ...        4 min, 41.776 sec
 * total energy  : -3716.2709575 Eh     change    :  -0.8617292E-05 Eh
   gradient norm :     0.0012837 Eh/a0  converged?    E=F G=F D=F
   time step     :     1.2500000 fs     power     :   0.6690553E-10
   step length   :     0.0129019 a0     speed     :   0.2496654E-03
 * RMSD in coord.:     0.0016515 a0     energy gain  -0.1010076E-03 Eh

........................................................................
.............................. CYCLE   43 ..............................
........................................................................

 iter      E             dE          RMSdq      gap      omega  full diag
   1  -3772.1219163 -0.377212E+04  0.698E-05   11.46       0.0  T
   2  -3772.1219163 -0.628916E-09  0.410E-05   11.46      41.0  T
   3  -3772.1219163  0.559339E-10  0.678E-06   11.46     248.0  T
     SCC iter.                  ...        3 min, 41.326 sec
     gradient                   ...        4 min, 42.268 sec
 * total energy  : -3716.2709590 Eh     change    :  -0.1490577E-05 Eh
   gradient norm :     0.0012719 Eh/a0  converged?    E=T G=F D=F
   time step     :     0.2500000 fs     power     :   0.7589740E-10
   step length   :     0.0024685 a0     speed     :   0.2388381E-03

........................................................................
.............................. CYCLE   44 ..............................
........................................................................

 iter      E             dE          RMSdq      gap      omega  full diag
   1  -3772.1223720 -0.377212E+04  0.656E-05   11.46       0.0  T
   2  -3772.1223720 -0.753971E-09  0.383E-05   11.46      43.9  T
   3  -3772.1223720  0.154614E-10  0.859E-06   11.46     195.7  T
     SCC iter.                  ...        3 min, 41.013 sec
     gradient                   ...        4 min, 41.062 sec
 * total energy  : -3716.2709606 Eh     change    :  -0.1619138E-05 Eh
   gradient norm :     0.0011878 Eh/a0  converged?    E=T G=F D=F
   time step     :     0.2500000 fs     power     :   0.8267074E-10
   step length   :     0.0023852 a0     speed     :   0.2307825E-03

........................................................................
.............................. CYCLE   45 ..............................
........................................................................

 iter      E             dE          RMSdq      gap      omega  full diag
   1  -3772.1227415 -0.377212E+04  0.712E-05   11.46       0.0  T
   2  -3772.1227415 -0.701220E-09  0.418E-05   11.46      40.3  T
   3  -3772.1227415  0.441105E-10  0.857E-06   11.46     196.2  T
     SCC iter.                  ...        3 min, 39.909 sec
     gradient                   ...        4 min, 42.270 sec
 * total energy  : -3716.2709623 Eh     change    :  -0.1685654E-05 Eh
   gradient norm :     0.0010663 Eh/a0  converged?    E=T G=F D=F
   time step     :     0.2500000 fs     power     :   0.8448534E-10
   step length   :     0.0023303 a0     speed     :   0.2254733E-03

........................................................................
.............................. CYCLE   46 ..............................
........................................................................

 iter      E             dE          RMSdq      gap      omega  full diag
   1  -3772.1229751 -0.377212E+04  0.793E-05   11.46       0.0  T
   2  -3772.1229751 -0.692125E-09  0.466E-05   11.46      36.1  T
   3  -3772.1229751  0.618456E-10  0.824E-06   11.46     204.1  T
     SCC iter.                  ...        3 min, 44.220 sec
     gradient                   ...        4 min, 45.050 sec
 * total energy  : -3716.2709639 Eh     change    :  -0.1647048E-05 Eh
   gradient norm :     0.0009648 Eh/a0  converged?    E=T G=T D=F
   time step     :     0.2500000 fs     power     :   0.8161801E-10
   step length   :     0.0022978 a0     speed     :   0.2223282E-03

   *** GEOMETRY OPTIMIZATION CONVERGED AFTER 46 CYCLES ***

------------------------------------------------------------------------
 total energy gain   :        -0.0005042 Eh       -0.3164 kcal/mol
 total RMSD          :         0.0021167 a0        0.0011 Å
 total power (kW/mol):        -0.0287791 (step)   -0.0001 (real)
------------------------------------------------------------------------

 FIRE (total)                  0 d,  6 h, 46 min, 21.288 sec
 setup                          ...        0 min,  0.134 sec (  0.001%)
 velocities                     ...        0 min,  0.004 sec (  0.000%)
 propagation                    ...        0 min,  0.004 sec (  0.000%)
 singlepoint calculation        ...      406 min, 20.330 sec ( 99.996%)
 log and printout               ...        0 min,  0.744 sec (  0.003%)
 preconditioner                 ...        0 min,  0.000 sec (  0.000%)
 model hessian                  ...        0 min,  0.000 sec (  0.000%)
 hessian update                 ...        0 min,  0.000 sec (  0.000%)

================
 final structure:
================
3536
 xtb: 6.6.1 (8d0f1dd)
C           71.64334220989743       70.67962058357814       59.52488886514418
C           70.38397077390630       70.58405895810549       58.66722214293046
C           69.46840407191810       71.77340390531188       58.95694839029445
C           69.61666650541285       69.28084447068572       58.91860902556228
C           70.36104544036129       67.98417368241284       58.58040390677955
C           70.72130620333863       67.93059029533165       57.09551205990174
C           69.49933640208022       66.75967680366722       58.92383410435732
C           69.27103554327483       66.47074495526608       60.41719353691607
C           70.57829001183686       66.07802332224990       61.09870009035421
C           68.19683736503031       65.37598023024542       60.51284817078438
C           67.68918128155468       64.94230483983443       61.90196428537659
C           67.35998335159996       66.14652342881210       62.78260675955439
C           68.62313512153472       63.94844744560604       62.62124660000556
C           67.95355424294171       62.62446027796649       63.02745150342540
C           66.82680201652441       62.84961220492696       64.03152505358437
C           69.02772566405346       61.69510607474413       63.61083282570323
C           68.60770480814405       60.24435577024229       63.89367433356971
C           69.72074835045932       59.56520550694165       64.69183949390215
C           68.31447175555762       59.50297570681909       62.58337968643045
C           68.00580343952076       58.00071281747868       62.69056705051819
C           67.78339266798768       57.44600536866292       61.28255130289548
C           66.78541130210662       57.76163854546255       63.58528494483943
C           66.33552724031232       56.30454745142484       63.77233087087321
C           65.07100724079439       56.30057160410679       64.63062685337032
C           67.44662318195546       55.46582366936316       64.41546876075095
C           67.10242748621596       54.00412988064762       64.74887302372085
C           68.34383206635256       53.34557884701795       65.35135311327439
C           66.61077710244952       53.26862516418954       63.49639511724489
C           66.42974840944395       51.74511546180096       63.58961689625708
C           65.87529809775633       51.26614318311788       62.24759729566485
C           65.50124835583412       51.33902915804222       64.73954289205456
C           65.34465349118331       49.82499820178388       64.94329155984892
C           64.17073897054068       49.55866090314813       65.88429980536038
C           66.61623052678721       49.16441521512375       65.50197326280131
C           66.83318414545674       47.73293814807735       64.98188363226018
C           67.68957763781792       46.93633720244934       65.96434891798435
C           67.49964638791756       47.78751517428238       63.60134063848592
C           67.42857003537857       46.51377450809049       62.74617192751133
C           68.41822878723238       46.66266748504035       61.58988800263955
C           66.00710972584135       46.28361529476174       62.21653274045961
C           65.80492460047194       44.94907819832155       61.47122031722387
C           65.16601836019386       45.18801911499365       60.10218602073966
C           64.93695403119465       43.96191753296478       62.26157846625808
C           65.58031765980867       43.38871720899786       63.52904115536767
C           66.73043743882327       42.44364586091282       63.18436694721644
C           64.52439365864376       42.63747509120588       64.35715735622037
C           63.71022040196728       43.53536332277051       65.29594771148443
C           64.54376699367110       43.90443806527391       66.52430943906167
C           62.42270315481113       42.84044753903301       65.76039901573708
C           61.31324966421217       42.64704285979637       64.71426693832490
C           60.92592398594544       43.96351915751150       64.04565329152337
C           60.10575413715128       42.01534847742600       65.42496755051229
C           58.98300996338654       41.47571203130508       64.52658625602334
C           57.74984804225561       41.21499675388636       65.39173641136978
C           59.42497836295710       40.19377522071653       63.80864507915261
C           58.49777189715643       39.70610830850080       62.68073171904904
C           58.44968796841883       38.17644676111178       62.68376908632963
C           58.95453499507445       40.17061535610949       61.29013089319839
C           58.91258668419624       41.67990052266997       61.03120495353107
C           57.48204226904050       42.20985713662767       61.12804738784497
C           59.45798098671071       42.02397450982483       59.63647907751679
C           60.90322026484633       41.60793966245059       59.34162823463809
C           61.87259359618267       42.19233872867296       60.36989749165816
C           61.33480190898985       42.08402345802365       57.94609928567485
C           60.50873978107261       41.58246102585805       56.75471453826339
C           60.41567500189974       40.05666103400957       56.73822106674870
C           61.12511661919255       42.05142527637951       55.42523320850138
C           61.31191068422248       43.56504239943524       55.27843174131040
C           59.96764500973702       44.29071786984322       55.32792985577861
C           62.03128184348770       43.93092975889775       53.97201454788161
C           63.44185640436293       43.35671600308091       53.77899394718600
C           64.29354926277875       43.49526366163866       55.04306875534429
C           64.17208606373883       44.09187980690060       52.64348747067304
C           63.51630441239042       44.09303966358926       51.25878038921539
C           63.33330426272699       42.67316536682888       50.72472811743148
C           64.37129566783679       44.89214085702800       50.25865855187231
C           64.63556083172539       46.35941648292160       50.61845877060183
C           63.32670271811826       47.12813455094360       50.79304699096107
C           65.47728909142172       47.06562173999715       49.54528692101256
C           66.88452147976074       46.51304095727764       49.28749121991590
C           67.67603989300230       46.35202293403919       50.58571965386390
C           67.66906366059561       47.45604787586311       48.36071808804561
C           67.08781761981191       47.68577996545074       46.96010137960568
C           67.25248396028861       46.43927597144855       46.09289254136209
C           67.78433734099453       48.88095379638767       46.29032001703121
C           67.30134003674563       50.24745910786208       46.79494519444393
C           65.98658785456028       50.63179841200691       46.11767411036203
C           68.34326786402896       51.34637963228633       46.55049822210677
C           69.57315443334896       51.24596910277808       47.45080850815409
C           70.47855020544604       52.46279201753325       47.30201921550896
H           72.12121330944858       71.64734569316990       59.38727795178631
H           71.39362244260754       70.56850607924144       60.57841352255663
H           72.36173056556996       69.90929734455059       59.25690705302826
H           69.94656084551542       53.37167893748991       47.57643915726172
H           71.35249386837981       52.37073515706248       47.94303930444879
H           70.81672332552185       52.56347004881192       46.27300757406420
H           68.65475559536772       51.32150054675633       45.50368160220646
H           67.86887751213008       52.31593426044797       46.72655476402568
H           68.85854122689422       48.78301509699041       46.45354366627087
H           67.61533208354203       48.83603701683973       45.21187162173802
H           66.02178769726652       47.91143349057300       47.04044932843395
H           66.79440693321948       46.58734102452943       45.11719066243449
H           68.30758977796975       46.21687732086649       45.94572986427234
H           66.78423437108177       45.57593990497879       46.55892468246773
H           67.75759619191858       48.41828083333322       48.86942314634639
H           68.68164903516669       47.06057870490458       48.24300402228518
H           64.91790469090871       47.03780892435284       48.60841659247300
H           65.57811382624961       48.11540950596916       49.83614340133244
H           67.12194549620527       50.18578639847850       47.87372055217467
H           65.58446659361782       51.54652292267754       46.54829352098015
H           66.14251109799881       50.79735489090334       45.05339480245407
H           65.24623544221718       49.84685825708442       46.23890324799491
H           66.80390551037515       45.53222715529419       48.80966675468935
H           67.70213180351007       47.29403922136467       51.12941489226034
H           67.23720377679521       45.59334496280819       51.22743799666010
H           68.70016074363622       46.05507115715758       50.36818497181283
H           65.18258653947579       46.40652682349593       51.56140388161240
H           63.52897287546838       48.18318489263851       50.96687618760433
H           62.70977732785651       47.04145384941253       49.90166628177190
H           62.76338919099443       46.74883592754754       51.64004644460967
H           65.32870147954947       44.37836481314274       50.15011712337882
H           63.87194037413583       44.86353772555807       49.28653899030186
H           62.53040568788112       44.55802378289550       51.32783000322421
H           64.28738216514473       42.15047280348487       50.69542613801930
H           62.64955599209415       42.10543485654669       51.34994410920250
H           62.92575903252378       42.69627022858766       49.71625464092744
H           64.29172109361134       45.12671660259156       52.96642669426176
H           65.17069624446017       43.65699972199325       52.54185241225785
H           63.36828869663410       42.29444701275027       53.52899489280231
H           63.91866847505788       42.87074845059487       55.84850045408599
H           65.31871794996725       43.19254526550870       54.83844232643403
H           64.30423517957998       44.52819959339227       55.38374736933616
H           61.40834217613656       43.61722923814074       53.13247640651716
H           62.10641905431393       45.02174946015953       53.93658451843790
H           61.92441762174495       43.93261726563669       56.10271982749303
H           59.48016290139210       44.14955945887210       56.28849315524555
H           60.11075076585172       45.35823223597490       55.18231568407251
H           59.30355922796569       43.92313747649646       54.54810836255854
H           62.09251056436605       41.55899902257948       55.31362713739220
H           60.48842459710410       41.70282313350435       54.60675573529485
H           59.49530441470221       41.98716890269576       56.82816887729481
H           59.86787852293275       39.68375996915814       57.59952836060147
H           59.90022785077146       39.71732805715531       55.84193834468897
H           61.41043429724026       39.61557788774437       56.74609368160144
H           61.30882223463263       43.17536396862706       57.95475289656088
H           62.37363740501539       41.77954179089252       57.79036526930634
H           60.98308313304093       40.51858406093880       59.37716534839969
H           61.68913704959203       41.78527399040374       61.36007130185047
H           62.89919388748277       41.95836315178004       60.09509755440941
H           61.77211137092799       43.27486135786474       60.41915533660760
H           58.80073758757898       41.56039606951730       58.89891645527825
H           59.38464487039856       43.10773375010486       59.50337364511297
H           59.52846284547567       42.18715481515957       61.77641262768265
H           57.08741117825035       42.11509761304171       62.13515232899518
H           57.44227933851894       43.26131043897235       60.85161222252097
H           56.83454206571382       41.65621566657139       60.45339539054009
H           59.97426172762761       39.80988666690750       61.14236339149302
H           58.32399160724226       39.68159613709767       60.54201789316856
H           57.48261760608142       40.06848366283979       62.85905750293691
H           59.44212124006071       37.76441746004824       62.51068387058950
H           58.08882580814459       37.80472761421557       63.64053695631952
H           57.78813487239738       37.80758659412544       61.90200727003371
H           60.42464740452246       40.33580699499603       63.39504100527544
H           59.50555137252763       39.40912719377968       64.56532743751461
H           58.71798414272541       42.23415213441242       63.78869738000023
H           56.93675236260636       40.79603378015544       64.80421182113379
H           57.98880360760038       40.51319576173908       66.18829036203053
H           57.40087021556728       42.14081754180324       65.84455467576439
H           60.45990486131976       41.19244754765294       66.05144665813003
H           59.68017243984174       42.76875758062631       66.09317311636649
H           61.67303819973510       41.96049255385785       63.94224810059887
H           60.67942415652964       44.71403320550567       64.79268904356110
H           61.73709287763963       44.34118643703077       63.42945108368353
H           60.06211254922226       43.82758073135567       63.40024328897927
H           62.69242128510455       41.85990179285884       66.16188927561565
H           62.00056453849862       43.41791513469016       66.58706848497401
H           63.45027774319709       44.46128975126062       64.77705258619019
H           64.00438127159374       44.60170868407324       67.16082590971408
H           64.77216953051422       43.01466402769476       67.10797017170259
H           65.48143304793349       44.37111477750022       66.23401007145368
H           63.85493431953795       42.12042588548223       63.66764356211415
H           65.01590341236700       41.87366753436805       64.96395915103083
H           65.97996378819165       44.21315963535402       64.12544228162378
H           66.36604543690200       41.60131973836876       62.59935637095120
H           67.50179566824868       42.95065930260368       62.61030223300635
H           67.18928622288985       42.05742785134673       64.09218252875966
H           64.00346367467017       44.46245469427279       62.52960690079839
H           64.67745669262727       43.12593294092405       61.60703555020597
H           66.77777851450524       44.48255246113978       61.30057370934833
H           65.08590526930625       44.25677456382662       59.54528638932689
H           64.16538705480122       45.59974644710291       60.21689800728612
H           65.76329261336997       45.88261422685535       59.51519816094377
H           65.30399193870014       46.33468801287460       63.04913393489637
H           65.76651320801633       47.11189479889856       61.54563212055690
H           67.72770018153551       45.65170640779915       63.34998203120948
H           69.43469744962930       46.75326820943279       61.96711561768537
H           68.38418384882075       45.80644258590691       60.92172186410415
H           68.18683945827102       47.55395989369544       61.01029862550781
H           67.05314542960737       48.59846409305469       63.02359055825851
H           68.55107678991939       48.04480415819134       63.75347828919691
H           65.85836613758906       47.24161102370235       64.90344000109064
H           67.88704731527234       45.93584353768841       65.58656955631655
H           68.64417505855879       47.43389984940260       66.12477798438766
H           67.18580928138520       46.84250862897648       66.92431621648343
H           67.49752437865894       49.75546370894466       65.24772432244296
H           66.54862740426641       49.14673715896889       66.59195589234010
H           65.10323003706057       49.36585035457473       63.98169628883682
H           64.31678174043954       50.07129393696520       66.83315742675967
H           63.23836755681749       49.90795980088531       65.44704176061724
H           64.07570287562646       48.49405065801604       66.07987615419952
H           65.86468530016127       51.76847099089309       65.67454103212222
H           64.51345285354482       51.76449212698166       64.54306778146680
H           67.40999051286707       51.28324387305733       63.73840951399431
H           65.83450831939750       50.18233123666961       62.19359204692987
H           64.86927127889822       51.65158035929159       62.09851348901509
H           66.50002459072360       51.61954615516293       61.43181168467159
H           65.65023437251469       53.69456303189320       63.19981875801382
H           67.32057922601983       53.46726000871812       62.68829786854149
H           66.31211827177094       53.99520582218228       65.50500133864543
H           68.12359351304767       52.34808170547385       65.72148115728049
H           69.13519176682126       53.27149193245270       64.60896853606614
H           68.71576721737343       53.93750145885718       66.18553028160437
H           68.30996803567461       55.45699646724535       63.74652742507602
H           67.75467213062619       55.96150327203229       65.34055257244121
H           66.08918997546490       55.88413409715827       62.79375438239882
H           64.63233762207580       55.30830773334955       64.67978291485535
H           65.30066175557022       56.62442900372505       65.64328490382043
H           64.32946771519389       56.98091935047051       64.21614618549803
H           66.99057760341707       58.17162036444040       64.57426940632877
H           65.94885185450983       58.32804859881757       63.16784418155346
H           68.87491277106830       57.49612335367348       63.12043449097222
H           68.62071377597049       57.70094499745095       60.63513816388944
H           67.69025555198516       56.36301312659653       61.29684181493469
H           66.87847755620402       57.86625757648491       60.84644719100820
H           67.46443678372529       59.98519735910115       62.09567752971797
H           69.18096604522501       59.62526652260603       61.92933306550232
H           67.70542489786946       60.25578358087645       64.50842203029713
H           69.93699389453812       60.13318385198342       65.59475725822813
H           69.43737364564630       58.55919169956911       64.98919297334763
H           70.63201064272450       59.50684487366557       64.10059149185207
H           69.88182305526425       61.67089477403992       62.92864469641837
H           69.37805139261884       62.13927339132098       64.54656084400871
H           67.53337658022160       62.16801706938113       62.12542216811659
H           67.21516877632217       63.29692163895857       64.94371011882195
H           66.06559414512861       63.50686033102295       63.62155447588499
H           66.34675787346930       61.90823412180043       64.28643830395825
H           69.45960445457179       63.70239438117202       61.96653728972417
H           69.03821409554240       64.41202815851327       63.51867208559258
H           66.74550893700940       64.41819174373832       61.70661507432235
H           66.68234781963375       66.82192747646928       62.26335378346940
H           66.88259587286446       65.82196427745943       63.70437226233404
H           68.25949141454241       66.69604001180693       63.04766982334505
H           67.32851268238272       65.73875980604060       59.95695832007262
H           68.56350118665257       64.48992926003214       59.98985817810662
H           68.88740697085100       67.37386650429769       60.89886414010358
H           70.42652657923617       65.89826802528860       62.15840424482454
H           70.98950512966968       65.17671489373205       60.64815455933547
H           71.31514660019489       66.87135469164950       60.99978805360706
H           68.52889375594586       66.88606252993024       58.43704028518263
H           69.96758775989767       65.87538353624781       58.48442394696674
H           71.28749913933879       67.93831577925836       59.15774709596704
H           71.41383233668181       68.72411958671290       56.82903375652467
H           71.19585614543064       66.98199386777587       56.85179293819035
H           69.82662648775963       68.03261588724484       56.48467788241989
H           69.33281401213692       69.26089940634311       59.97309233836534
H           68.69715562842499       69.30611461425200       58.32876601078637
H           70.67289485072835       70.63424338202556       57.61304232249523
H           68.57262265838560       71.72818888289497       58.34174297305009
H           69.16741109878265       71.77604757616461       60.00295971802609
H           69.97943729706182       72.71055533085624       58.74775362295270
H           69.25195892817362       51.16209280473735       48.49106122631494
H           70.14363813790438       50.34720515993720       47.21143842834151
C           60.12222226894209       61.98001051345641       54.00180528674650
C           61.00024725360978       61.96497678511297       52.75369955449202
C           60.17174183559620       61.53249534404593       51.54641934336690
C           62.19429892723201       61.01493120688518       52.89919258173282
C           63.13731853863389       61.29536173327922       54.07314341440875
C           63.75386132360996       62.68805748403964       53.96491632945390
C           64.26188358595853       60.24978842845246       54.11925964095224
C           63.83283047005492       58.84952034232396       54.57298548243171
C           63.52506843635669       58.83587779388156       56.06959244126978
C           64.91673312528208       57.79992504660849       54.28646081504798
C           65.26498484678959       57.56367947507805       52.81220602184370
[...]
  3287   6 C     3288   6 C                                       1.5280849
  3287   6 C     3289   6 C                                       1.5356176
  3289   6 C     3290   6 C                                       1.5325375
  3290   6 C     3291   6 C                                       1.5289724
  3290   6 C     3292   6 C                                       1.5364335
  3292   6 C     3293   6 C                                       1.5346297
  3293   6 C     3294   6 C                                       1.5283503
  3293   6 C     3295   6 C                                       1.5362638
  3295   6 C     3296   6 C                                       1.5322758
  3296   6 C     3297   6 C                                       1.5285641
  3296   6 C     3298   6 C                                       1.5383143
  3298   6 C     3299   6 C                                       1.5351129
  3299   6 C     3300   6 C                                       1.5246482
  3299   6 C     3301   6 C                                       1.5359645
  3301   6 C     3302   6 C                                       1.5372194
  3302   6 C     3303   6 C                                       1.5275998
  3302   6 C     3304   6 C                                       1.5323925
  3304   6 C     3305   6 C                                       1.5362931
  3305   6 C     3306   6 C                                       1.5278235
  3305   6 C     3307   6 C                                       1.5346059
  3307   6 C     3308   6 C                                       1.5366155
  3308   6 C     3309   6 C                                       1.5289283
  3308   6 C     3310   6 C                                       1.5324339
  3310   6 C     3311   6 C                                       1.5377105
  3311   6 C     3312   6 C                                       1.5284936
  3311   6 C     3313   6 C                                       1.5347827
  3313   6 C     3314   6 C                                       1.5364484
  3314   6 C     3315   6 C                                       1.5284201
  3314   6 C     3316   6 C                                       1.5319256
  3316   6 C     3317   6 C                                       1.5370110
  3317   6 C     3318   6 C                                       1.5288122
  3319   6 C     3320   6 C                                       1.5335664
  3320   6 C     3321   6 C                                       1.5279399
  3320   6 C     3322   6 C                                       1.5362744
  3322   6 C     3323   6 C                                       1.5340080
  3323   6 C     3324   6 C                                       1.5289245
  3323   6 C     3325   6 C                                       1.5365203
  3325   6 C     3326   6 C                                       1.5319647
  3326   6 C     3327   6 C                                       1.5276866
  3326   6 C     3328   6 C                                       1.5362721
  3328   6 C     3329   6 C                                       1.5337072
  3329   6 C     3330   6 C                                       1.5270917
  3329   6 C     3331   6 C                                       1.5367142
  3331   6 C     3332   6 C                                       1.5338845
  3332   6 C     3333   6 C                                       1.5284522
  3334   6 C     3335   6 C                                       1.5324532
  3335   6 C     3336   6 C                                       1.5288588
  3335   6 C     3337   6 C                                       1.5360157
  3337   6 C     3338   6 C                                       1.5360920
  3338   6 C     3339   6 C                                       1.5240122
  3338   6 C     3340   6 C                                       1.5341600
  3340   6 C     3341   6 C                                       1.5341478
  3341   6 C     3342   6 C                                       1.5273088
  3341   6 C     3343   6 C                                       1.5331819
  3343   6 C     3344   6 C                                       1.5376194
  3344   6 C     3345   6 C                                       1.5266573
  3344   6 C     3346   6 C                                       1.5350675
  3346   6 C     3347   6 C                                       1.5355028
  3347   6 C     3348   6 C                                       1.5299110
  3347   6 C     3349   6 C                                       1.5333025
  3349   6 C     3350   6 C                                       1.5366161
  3350   6 C     3351   6 C                                       1.5274928
  3350   6 C     3352   6 C                                       1.5332704
  3352   6 C     3353   6 C                                       1.5295491
  3353   6 C     3354   6 C                                       1.5231516
  3265   6 C     3355   1 H                                       1.0877785
  3265   6 C     3356   1 H                                       1.0888745
  3265   6 C     3357   1 H                                       1.0870530
  3354   6 C     3358   1 H                                       1.0873039
  3354   6 C     3359   1 H                                       1.0880642
  3354   6 C     3360   1 H                                       1.0869881
  3352   6 C     3361   1 H                                       1.0926543
  3352   6 C     3362   1 H                                       1.0933013
  3349   6 C     3363   1 H                                       1.0904601
  3349   6 C     3364   1 H                                       1.0923873
  3347   6 C     3365   1 H                                       1.0926334
  3348   6 C     3366   1 H                                       1.0888299
  3348   6 C     3367   1 H                                       1.0881647
  3348   6 C     3368   1 H                                       1.0864538
  3346   6 C     3369   1 H                                       1.0926898
  3346   6 C     3370   1 H                                       1.0925127
  3343   6 C     3371   1 H                                       1.0907225
  3343   6 C     3372   1 H                                       1.0928939
  3350   6 C     3373   1 H                                       1.0937425
  3351   6 C     3374   1 H                                       1.0865657
  3351   6 C     3375   1 H                                       1.0870024
  3351   6 C     3376   1 H                                       1.0866086
  3344   6 C     3377   1 H                                       1.0936715
  3345   6 C     3378   1 H                                       1.0873473
  3345   6 C     3379   1 H                                       1.0882525
  3345   6 C     3380   1 H                                       1.0858331
  3341   6 C     3381   1 H                                       1.0924531
  3342   6 C     3382   1 H                                       1.0884705
  3342   6 C     3383   1 H                                       1.0861623
  3342   6 C     3384   1 H                                       1.0865751
  3340   6 C     3385   1 H                                       1.0908796
  3340   6 C     3386   1 H                                       1.0928591
  3338   6 C     3387   1 H                                       1.0938406
  3339   6 C     3388   1 H                                       1.0864080
  3339   6 C     3389   1 H                                       1.0868615
  3339   6 C     3390   1 H                                       1.0856547
  3337   6 C     3391   1 H                                       1.0934290
  3337   6 C     3392   1 H                                       1.0936031
  3335   6 C     3393   1 H                                       1.0945907
  3336   6 C     3394   1 H                                       1.0884936
  3336   6 C     3395   1 H                                       1.0867036
  3336   6 C     3396   1 H                                       1.0882874
  3334   6 C     3397   1 H                                       1.0902365
  3334   6 C     3398   1 H                                       1.0914836
  3332   6 C     3399   1 H                                       1.0938969
  3333   6 C     3400   1 H                                       1.0882634
  3333   6 C     3401   1 H                                       1.0882275
  3333   6 C     3402   1 H                                       1.0874156
  3331   6 C     3403   1 H                                       1.0932116
  3331   6 C     3404   1 H                                       1.0921464
  3329   6 C     3405   1 H                                       1.0926149
  3330   6 C     3406   1 H                                       1.0870734
  3330   6 C     3407   1 H                                       1.0875590
  3330   6 C     3408   1 H                                       1.0884938
  3328   6 C     3409   1 H                                       1.0940521
  3328   6 C     3410   1 H                                       1.0927046
  3326   6 C     3411   1 H                                       1.0931555
  3327   6 C     3412   1 H                                       1.0886270
  3327   6 C     3413   1 H                                       1.0854082
  3327   6 C     3414   1 H                                       1.0876749
  3325   6 C     3415   1 H                                       1.0913907
  3325   6 C     3416   1 H                                       1.0933797
  3323   6 C     3417   1 H                                       1.0939505
  3324   6 C     3418   1 H                                       1.0878185
  3324   6 C     3419   1 H                                       1.0860066
  3324   6 C     3420   1 H                                       1.0880053
  3322   6 C     3421   1 H                                       1.0921157
  3322   6 C     3422   1 H                                       1.0936355
  3320   6 C     3423   1 H                                       1.0947237
  3321   6 C     3424   1 H                                       1.0885733
  3321   6 C     3425   1 H                                       1.0883174
  3321   6 C     3426   1 H                                       1.0860841
  3319   6 C     3427   1 H                                       1.0894778
  3319   6 C     3428   1 H                                       1.0925217
  3317   6 C     3429   1 H                                       1.0940977
  3318   6 C     3430   1 H                                       1.0873747
  3318   6 C     3431   1 H                                       1.0889224
  3318   6 C     3432   1 H                                       1.0863460
  3316   6 C     3433   1 H                                       1.0893072
  3316   6 C     3434   1 H                                       1.0926303
  3314   6 C     3435   1 H                                       1.0938255
  3315   6 C     3436   1 H                                       1.0883834
  3315   6 C     3437   1 H                                       1.0865119
  3315   6 C     3438   1 H                                       1.0864217
  3313   6 C     3439   1 H                                       1.0914489
  3313   6 C     3440   1 H                                       1.0942731
  3311   6 C     3441   1 H                                       1.0936144
  3312   6 C     3442   1 H                                       1.0878443
  3312   6 C     3443   1 H                                       1.0859651
  3312   6 C     3444   1 H                                       1.0886740
  3310   6 C     3445   1 H                                       1.0908091
  3310   6 C     3446   1 H                                       1.0922776
  3308   6 C     3447   1 H                                       1.0912986
  3309   6 C     3448   1 H                                       1.0885817
  3309   6 C     3449   1 H                                       1.0878555
  3309   6 C     3450   1 H                                       1.0870673
  3307   6 C     3451   1 H                                       1.0921582
  3307   6 C     3452   1 H                                       1.0926939
  3305   6 C     3453   1 H                                       1.0935730
  3306   6 C     3454   1 H                                       1.0876252
  3306   6 C     3455   1 H                                       1.0851110
  3306   6 C     3456   1 H                                       1.0881534
  3304   6 C     3457   1 H                                       1.0912159
  3304   6 C     3458   1 H                                       1.0937198
  3302   6 C     3459   1 H                                       1.0927044
  3303   6 C     3460   1 H                                       1.0862563
  3303   6 C     3461   1 H                                       1.0875415
  3303   6 C     3462   1 H                                       1.0876049
  3301   6 C     3463   1 H                                       1.0932502
  3301   6 C     3464   1 H                                       1.0932107
  3299   6 C     3465   1 H                                       1.0920397
  3300   6 C     3466   1 H                                       1.0864940
  3300   6 C     3467   1 H                                       1.0875403
  3300   6 C     3468   1 H                                       1.0858303
  3298   6 C     3469   1 H                                       1.0939747
  3298   6 C     3470   1 H                                       1.0928623
  3296   6 C     3471   1 H                                       1.0936188
  3297   6 C     3472   1 H                                       1.0861870
  3297   6 C     3473   1 H                                       1.0872843
  3297   6 C     3474   1 H                                       1.0882786
  3295   6 C     3475   1 H                                       1.0918518
  3295   6 C     3476   1 H                                       1.0938890
  3293   6 C     3477   1 H                                       1.0932933
  3294   6 C     3478   1 H                                       1.0882806
  3294   6 C     3479   1 H                                       1.0863626
  3294   6 C     3480   1 H                                       1.0880565
  3292   6 C     3481   1 H                                       1.0917734
  3292   6 C     3482   1 H                                       1.0927846
  3290   6 C     3483   1 H                                       1.0923960
  3291   6 C     3484   1 H                                       1.0881873
  3291   6 C     3485   1 H                                       1.0865740
  3291   6 C     3486   1 H                                       1.0873340
  3289   6 C     3487   1 H                                       1.0902203
  3289   6 C     3488   1 H                                       1.0924974
  3287   6 C     3489   1 H                                       1.0928502
  3288   6 C     3490   1 H                                       1.0873601
  3288   6 C     3491   1 H                                       1.0880797
  3288   6 C     3492   1 H                                       1.0883108
  3286   6 C     3493   1 H                                       1.0900336
  3286   6 C     3494   1 H                                       1.0921852
  3284   6 C     3495   1 H                                       1.0934854
  3285   6 C     3496   1 H                                       1.0882208
  3285   6 C     3497   1 H                                       1.0878513
  3285   6 C     3498   1 H                                       1.0881892
  3283   6 C     3499   1 H                                       1.0915582
  3283   6 C     3500   1 H                                       1.0934207
  3281   6 C     3501   1 H                                       1.0922200
  3282   6 C     3502   1 H                                       1.0882875
  3282   6 C     3503   1 H                                       1.0887505
  3282   6 C     3504   1 H                                       1.0866210
  3280   6 C     3505   1 H                                       1.0932365
  3280   6 C     3506   1 H                                       1.0931314
  3278   6 C     3507   1 H                                       1.0942140
  3279   6 C     3508   1 H                                       1.0881568
  3279   6 C     3509   1 H                                       1.0878624
  3279   6 C     3510   1 H                                       1.0862823
  3277   6 C     3511   1 H                                       1.0924109
  3277   6 C     3512   1 H                                       1.0922199
  3275   6 C     3513   1 H                                       1.0941951
  3276   6 C     3514   1 H                                       1.0864647
  3276   6 C     3515   1 H                                       1.0873215
  3276   6 C     3516   1 H                                       1.0871807
  3274   6 C     3517   1 H                                       1.0927477
  3274   6 C     3518   1 H                                       1.0936018
  3272   6 C     3519   1 H                                       1.0920952
  3273   6 C     3520   1 H                                       1.0868350
  3273   6 C     3521   1 H                                       1.0883295
  3273   6 C     3522   1 H                                       1.0883162
  3271   6 C     3523   1 H                                       1.0920899
  3271   6 C     3524   1 H                                       1.0932841
  3269   6 C     3525   1 H                                       1.0933278
  3270   6 C     3526   1 H                                       1.0875112
  3270   6 C     3527   1 H                                       1.0880412
  3270   6 C     3528   1 H                                       1.0882110
  3268   6 C     3529   1 H                                       1.0921873
  3268   6 C     3530   1 H                                       1.0915450
  3266   6 C     3531   1 H                                       1.0947689
  3267   6 C     3532   1 H                                       1.0884868
  3267   6 C     3533   1 H                                       1.0874886
  3267   6 C     3534   1 H                                       1.0873469
  3353   6 C     3535   1 H                                       1.0932631
  3353   6 C     3536   1 H                                       1.0909588

 * 2 distinct bonds (by element types)

   Z      Z             #   av. dist./Å        max./Å        min./Å
   1 H    6 C        2366     1.0900688     1.0970654     1.0838464
   6 C    6 C        1113     1.5325114     1.5399294     1.5231516


optimized geometry written to: xtbopt.xyz


           -------------------------------------------------
          | TOTAL ENERGY            -3716.270963940315 Eh   |
          | GRADIENT NORM               0.000964824863 Eh/α |
          | HOMO-LUMO GAP              11.462357837411 eV   |
           -------------------------------------------------

------------------------------------------------------------------------
 * finished run on 2024/10/04 at 19:58:02.031     
------------------------------------------------------------------------
 total:
 * wall-time:     0 d,  7 h, 14 min, 53.803 sec
 *  cpu-time:     1 d, 13 h, 19 min, 35.144 sec
 * ratio c/w:     5.150 speedup
 SCF:
 * wall-time:     0 d,  0 h, 18 min,  4.357 sec
 *  cpu-time:     0 d,  1 h, 54 min, 38.756 sec
 * ratio c/w:     6.344 speedup
 ANC optimizer:
 * wall-time:     0 d,  6 h, 55 min, 21.950 sec
 *  cpu-time:     1 d, 11 h, 23 min, 11.824 sec
 * ratio c/w:     5.112 speedup

