3536
 energy: -3716.275238238095 gnorm: 0.000728814753 xtb: 6.6.1 (8d0f1dd)
C           55.61991529655414       35.74720424072791       52.49663863937254
C           56.19126391713133       37.08509111466921       52.03276296135378
C           55.90436747847707       38.15955968183680       53.08184729316491
C           55.60266233032805       37.52410109700367       50.68579715254167
C           55.81195187989794       36.56523398403193       49.50865940382219
C           57.29624914196298       36.26688436408081       49.29244218157037
C           55.23150797294839       37.13048500278513       48.20190523860914
C           53.71138456186861       37.38656447462741       48.19768864859076
C           53.11419923770132       36.96254397770383       46.85505612342924
C           53.40758747182672       38.86459648919530       48.47515476926502
C           51.92792444566563       39.25319898839480       48.62503048821077
C           51.86067470124448       40.73935567615332       48.97654940445334
C           51.23146518485440       38.38815595193886       49.68388414340243
C           49.82466829612828       38.82920505108166       50.11624710614805
C           49.32668275885182       37.87297798878843       51.20118548441291
C           48.85404770284271       38.86796270208153       48.93121778860263
C           47.49516536256965       39.52928353747699       49.20769137351127
C           46.55639337332889       39.23079236355071       48.03848138301635
C           47.64868672825934       41.04193949252775       49.39971808748828
C           46.44610439516565       41.74732364281427       50.04285420089387
C           46.58633877868014       43.24935333586885       49.79956361124717
C           46.34384018748212       41.44495372801050       51.54804579130808
C           44.92903265844836       41.17912273107380       52.09198890088735
C           44.36101311638145       39.87411421859264       51.53216270029918
C           43.94154656903912       42.32777303607991       51.84516376673455
C           44.17704132094885       43.56742306384097       52.72407381430162
C           43.59315982988110       43.34269201481742       54.11661349711957
C           43.55121249811374       44.79820519237311       52.05537316924701
C           43.72537497998078       46.14092450950776       52.78243654007864
C           42.99593599919623       47.22273547532101       51.98560821377117
C           45.21133040603006       46.47667696285644       52.96874676365632
C           45.53527391269859       47.88793678167789       53.48172256108145
C           47.04932996232314       48.09165885909914       53.43224019031216
C           44.99685120662207       48.10693116309673       54.90077511973708
C           44.94695332831495       49.57105412851473       55.36097050859422
C           44.77663559875759       49.61848008377304       56.87896928677154
C           43.80739450264035       50.33057795714902       54.67006855156786
C           43.95725368494205       51.85775830396224       54.67879248737835
C           42.61079137649205       52.50328323651544       54.35509480409375
C           45.01993617400487       52.31703343263658       53.67242888721558
C           45.61588981107101       53.69482460605253       53.99091103498179
C           46.33359811596014       54.22853047236675       52.75240081191805
C           46.55905346545711       53.62709503402164       55.20813108456097
C           46.28541688276827       54.69703963252408       56.27173691102708
C           46.67734201531655       56.08474256082378       55.76531724533258
C           47.04274453278509       54.40611407826640       57.57518311378131
C           46.55573552804189       53.21187948364125       58.41174909381058
C           45.11467326109950       53.40659403186754       58.87557893035089
C           47.50771927442347       53.06620391036216       59.60763642734121
C           47.27068213063637       51.88633519570206       60.56121637100375
C           48.11975309329931       52.10186896749193       61.81328263946266
C           47.61723265240075       50.55646780951621       59.88642866061358
C           47.16750854663177       49.29933519858087       60.64197811591283
C           47.83652952130364       48.07587464943031       60.01416205091486
C           45.63199536740987       49.15264834557547       60.65714532996589
C           45.03607907146520       49.09431730341815       62.06786848673269
C           45.44117117997657       47.80055140063076       62.77284503760909
C           43.50401838119976       49.16580268905316       62.05559438344221
C           42.85841624313569       50.47540878687526       61.58292214463246
C           43.36444021454960       51.67523157521077       62.37848971487123
C           41.33591294433301       50.33586046357535       61.73743607674386
C           40.49613458412311       51.34198012059623       60.93830889473925
C           39.09611563485680       51.42206072586408       61.54608033585421
C           40.42685624770147       50.93070010073144       59.46328616568501
C           39.93822231987198       52.02316583639676       58.50024548224576
C           39.53137935699078       51.37867895692229       57.17612073834527
C           41.02832542621341       53.08274387159362       58.29936460474082
C           40.67473472274813       54.24398863557181       57.36148386271754
C           41.93276869006852       55.06632604583700       57.09045103640079
C           39.57125668696587       55.14047831099693       57.93434374078326
C           38.82943586969806       55.98544613915355       56.88832040101499
C           38.09436596555522       57.12494649248048       57.59651546768259
C           37.82496667423366       55.15479538467685       56.06688568715887
C           38.28161712387111       54.68516270215244       54.67599116016790
C           38.47920546335325       55.87004161211102       53.73326638501159
C           37.22158550483923       53.71952913483268       54.12376636285219
C           37.63229494743916       52.88719791971946       52.89899801105516
C           36.37469224133668       52.32050186559407       52.23945825954996
C           38.59939257267204       51.76987915585114       53.31220192674181
C           39.04536834963789       50.80229444827808       52.20458607301908
C           39.90945268351889       49.70768396911421       52.83027408756859
C           39.79825131988672       51.55143630480705       51.10026654670559
C           40.26109528431999       50.72581118227561       49.89050797784152
C           41.06489893534392       51.64055306715679       48.96707341207459
C           39.06212184738698       50.11118004185860       49.15907965444505
C           39.38318081235870       49.34602402519409       47.86910963243999
C           38.07968420728464       48.86300015800976       47.22999397342049
C           40.36961335858290       48.18690811709671       48.06732724176883
C           39.94784097684336       47.12697191723107       49.08244393243200
C           40.90786923216074       45.94350013450382       49.06927611143455
H           55.90524771165903       34.94107997592850       51.82583302497039
H           55.98933451493984       35.50414094523791       53.49095948359520
H           54.53325719116598       35.79328569099356       52.53785007164908
H           40.63228671509402       45.21523818452454       49.82899780401618
H           40.88858411023873       45.45057017555003       48.10063362603227
H           41.92566611324214       46.27368357169190       49.26163831936917
H           40.51269984996149       47.70063694246960       47.09878283691556
H           41.33880198883312       48.58968519541627       48.36931634675744
H           38.53818089759780       49.43372916515985       49.83502718483760
H           38.36686152114611       50.91754821504232       48.90519470185098
H           40.92162788614934       49.92624759470109       50.23594723969756
H           41.51846733059025       51.08131226516515       48.15437975115218
H           40.42251975473998       52.40802992974557       48.53850971076633
H           41.86026540244129       52.13090371362027       49.52177840878525
H           39.15919181251938       52.35231249376273       50.72261657978409
H           40.67557231702263       52.02136862500506       51.55124655689742
H           39.49422778891747       52.22297517616253       53.74328542771061
H           38.11839185422672       51.18111282392002       54.09856101478531
H           39.84667622539573       50.04122753747248       47.15988999004755
H           38.28340879287190       48.29248417528618       46.32612369894223
H           37.51571133078749       48.23372467963432       47.91454780486811
H           37.45274604849330       49.71126949405973       46.96227257816608
H           38.15627277883118       50.32735885852969       51.78148185942046
H           40.82282993779602       50.13055142629246       53.24202283316355
H           39.36892929032219       49.21167026192583       53.63407000410609
H           40.18016508851037       48.95544685145450       52.09445931962574
H           38.12697006905541       53.54653083562284       52.18086063646239
H           36.61293370076766       51.81256180358617       51.30887466167071
H           35.88369088059782       51.61239677077269       52.90435811626281
H           35.67113259522690       53.11937020267315       52.01257043911206
H           36.92340877230503       53.02680546463596       54.91583220198089
H           36.33699523535270       54.30908085118581       53.86731001978135
H           39.23437822950451       54.15681597660747       54.76337662725483
H           37.54326907229691       56.40971871608223       53.59877848303731
H           39.21660931919222       56.56440111160476       54.12883738776053
H           38.82504215395846       55.53539338028730       52.75825343370617
H           37.54128919430099       54.27725081554357       56.65324323020647
H           36.91460962234199       55.74309740770862       55.92309681481064
H           39.56468407124871       56.43287053216693       56.21479817690536
H           37.58396232574567       57.76232751092902       56.87777740563623
H           37.35489433561008       56.72722177172563       58.28973837713958
H           38.79129059182333       57.74268404602648       58.15963677223479
H           38.83378932971488       54.53601175990960       58.46595384521609
H           40.02472826927239       55.81001439250298       58.67028094978284
H           40.33302036189797       53.82987441419549       56.41243865299391
H           42.36267297104269       55.42215789443176       58.02374010776799
H           42.67715163772363       54.46673266208489       56.57292601429145
H           41.70374136608807       55.92741407573251       56.46934737184345
H           41.30499271320416       53.50048996059705       59.26987223420029
H           41.91254041766016       52.58061016622874       57.89766379743043
H           39.04934662988467       52.49366348406961       58.93186851963306
H           38.78996608048448       50.60099280202293       57.34638523922382
H           39.09640483564813       52.10654908993393       56.49761011502147
H           40.39525871229841       50.92616354345133       56.69351451274154
H           41.41386106276438       50.60149339048058       59.13186982294268
H           39.75814277607078       50.06874234627083       59.38726365842077
H           40.95675867911031       52.33021050611536       61.01489848619199
H           38.46380730614975       52.10962259737819       60.99041898365999
H           38.62293625891849       50.44136243850218       61.53922629078107
H           39.14652036685296       51.76922316541617       62.57590092724879
H           41.03426949265936       49.32926689050733       61.43500314396154
H           41.09597651718502       50.43693286239422       62.79914515552137
H           43.09346290789932       50.63052187774282       60.52540293508307
H           43.22076231242432       51.51124046974692       63.44470083877120
H           44.42089833483622       51.85258715167443       62.19824675419730
H           42.82741308750526       52.57645215099630       62.09352975273997
H           43.13349386909839       48.35274932252884       61.42439074338157
H           43.15226884232749       48.97168337828717       63.07345041950116
H           45.42837519809361       49.93522639604119       62.64849860035569
H           46.51593013107308       47.65253487708984       62.72519184757449
H           45.14656488503063       47.82348656158783       63.82017393081629
H           44.95925395849034       46.94556015646594       62.30315388537745
H           45.18614336104758       49.99060280658156       60.12158315400703
H           45.34016840879835       48.24582929372312       60.12253455789963
H           47.52510742308407       49.37499098649828       61.67340350491841
H           47.56374598621627       47.98810277643882       58.96374264297219
H           48.92049743298571       48.15938552885232       60.07678569637235
H           47.54090052859938       47.16077455517275       60.52260034261026
H           47.16145630819505       50.53007151996347       58.89501273597360
H           48.70249915416476       50.51658579109638       59.75626920647380
H           46.22007397065430       51.87040506339340       60.86263063233325
H           49.16900789260240       52.18910931064624       61.54077207705652
H           47.82229769842760       53.01410120415490       62.32686444414696
H           48.01485456015229       51.27841446382792       62.51472394515270
H           48.53001776118445       52.99002204836179       59.22773705058444
H           47.44504972379789       53.98935663311542       60.18856309046854
H           46.60731905044714       52.30553522430714       57.80029005957910
H           45.03083289592237       54.30146187461247       59.48807128406401
H           44.44088497369106       53.50666540598957       58.02955083420793
H           44.77320465303253       52.55887144235618       59.46395741361091
H           48.09650497965819       54.25029791285345       57.32864836390650
H           46.98927758838028       55.29563416036181       58.20842509555163
H           45.21100923007821       54.71285350515608       56.48139394029844
H           47.73895153115824       56.11773766515512       55.52779408399149
H           46.11190716694240       56.34493055242394       54.87431745045276
H           46.47417608454302       56.84020410567854       56.52224834633655
H           46.46280872180511       52.64671859894413       55.67591360514253
H           47.59455567976676       53.72083851747176       54.87322373258560
H           44.79071800622506       54.37713084181542       54.22323477832986
H           47.09937833256944       53.52673159283496       52.42972751004932
H           45.62882770354963       54.36009979911589       51.93376136509968
H           46.80594273788098       55.18667618076147       52.95422970090601
H           45.83550921797946       51.59203051803876       53.63202546189836
H           44.56650552081469       52.34129624031569       52.67757611589199
H           44.25700206749176       52.17655970197720       55.68193990056275
H           42.24065500691757       52.14070577972269       53.39725968737086
H           41.87401623406662       52.26305032909396       55.11892211354089
H           42.69816956352484       53.58529038261887       54.29365345345683
H           43.72824528262391       50.01125714355643       53.62872909990861
H           42.86871186697272       50.05914020645587       55.16257245478386
H           45.89905469037992       50.05087081291132       55.11568398896701
H           44.70133357696059       50.64362099572045       57.23382881740596
H           43.87315917207395       49.08893210767139       57.17847379518076
H           45.62428850642176       49.14946468646979       57.37408657206696
H           43.98674412985849       47.69898736654025       54.97625171220872
H           45.62728530269837       47.54371313876005       55.59253339144754
H           45.08438317030879       48.61822395719360       52.80436756987221
H           47.32107987018329       49.09271722036662       53.75542741124728
H           47.55712516089860       47.37519266634833       54.07490681312122
H           47.41607036914799       47.95546912622997       52.41715196696276
H           45.64980041774059       45.75742287157735       53.66468070494445
H           45.71311028582212       46.34377943862835       52.00577037420049
H           43.24344220023312       46.06496844995897       53.76137872120383
H           42.89804770773002       48.13733211373648       52.56340109852064
H           43.52734337541529       47.44862625957854       51.06287968625981
H           41.99589766932376       46.88423557862179       51.72690773721649
H           43.97018795786382       44.89978679512736       51.05034401460266
H           42.48096372014379       44.60985023842372       51.93510194470974
H           45.25501084594364       43.72560043930832       52.81652095146131
H           43.87297024843003       44.14594918373965       54.79304094283534
H           42.50622039959510       43.29643855643552       54.06700814103722
H           43.95236037668321       42.40839905862872       54.54141865695485
H           43.98229488044247       42.60736433139486       50.79201280751562
H           42.92834238655882       41.96235705348997       52.03467453817387
H           45.03207971865741       41.04423706355723       53.17569818683354
H           43.41677608634581       39.63215211633002       52.01618377940865
H           44.17922578756887       39.94878666887564       50.46293827627072
H           45.04962543753663       39.04946287328261       51.70483330138941
H           46.94666858263278       40.56464903871304       51.78376121687835
H           46.78229709882830       42.28017722464867       52.09896252846315
H           45.53565494697220       41.40567972901682       49.54432964601806
H           46.50008902336516       43.46908243369628       48.73906419493847
H           45.82075119949345       43.80733605014281       50.32702245566688
H           47.55714617057677       43.59844129512230       50.14573778365984
H           48.52257381509116       41.24821084553773       50.02047111217126
H           47.83255473893482       41.48847315234966       48.41921392084556
H           47.05920804920466       39.09188327853170       50.10966467387691
H           45.58719865697985       39.70115134200741       48.18356431676449
H           46.98121106126704       39.60310682925898       47.10758427135491
H           46.39770091673859       38.15895127425396       47.93553779864948
H           49.31647818762483       39.40796986698432       48.10361836163882
H           48.68474856577684       37.84111552664297       48.59467870664511
H           49.89765692299179       39.82579662083391       50.55754924771105
H           48.37854932444171       38.20591047319756       51.61521689162840
H           49.19085337845973       36.87155173225722       50.79628798125275
H           50.04389404207001       37.81326280921566       52.01788857688110
H           51.16130346349578       37.36335756592661       49.31171220071049
H           51.86396104425548       38.37085595088379       50.57675596465814
H           51.43478505710954       39.10262054275382       47.65997401518024
H           52.48979733528886       41.31527938420886       48.30038092276380
H           50.84615676341746       41.11927937211836       48.89717169545170
H           52.21320953599684       40.90137920206620       49.99263975003707
H           53.92583025324693       39.16885396847394       49.38527104538153
H           53.82679548019464       39.45199475577390       47.65262893711636
H           53.26156105179941       36.76846576352540       48.98050821463204
H           52.03520589254384       37.09409132899228       46.84833827653076
H           53.53798545216230       37.55733747574282       46.04811120455386
H           53.32497459982950       35.91357219927565       46.65616325049371
H           55.75910830771144       38.05196167656703       47.95138751429075
H           55.46208454349778       36.41065482839013       47.41285795634013
H           55.29476582338176       35.62357078700940       49.72378586840841
H           57.71992010834209       35.73074995431764       50.13717943199293
H           57.43541388752271       35.65428686102846       48.40389790993655
H           57.85081938359313       37.19340367764121       49.15784766625771
H           54.53004854207170       37.66729206087055       50.82905461955006
H           56.04052751001358       38.49066366503498       50.42079517931843
H           57.27779592476104       36.98940811539418       51.93831903402823
H           56.30824015647904       39.12037589046064       52.77253432514074
H           54.83202320706772       38.27081016030267       53.23020533100750
H           56.35521769163644       37.89333640293935       54.03510720516802
H           39.92590807202352       47.56273905636670       50.08281341721107
H           38.94236173616974       46.76930373241188       48.85448829408267
C           60.02809204823759       41.93907903840563       44.23936231688548
C           59.43565607062743       42.33156255782406       42.88527534988919
C           60.37606290733876       43.29960202317471       42.17187497377915
C           58.04647305253008       42.93942498659860       43.10912545338490
C           57.30021627535898       43.45768206504565       41.87207204719301
C           55.99860014164549       44.11456679294963       42.33024218189156
C           57.03623276877698       42.33031837201665       40.86759571011326
C           56.35383353126424       42.74305297046335       39.55483579246129
C           55.99431226428853       41.48669960022406       38.76256834338788
C           57.25363599214225       43.67198182577022       38.73262720723826
C           56.56727643794369       44.31688578809491       37.51301755394790
C           57.10538114221544       43.73470088468311       36.20594463494339
C           56.76368034695934       45.83919013963639       37.51647526274039
C           55.92098233024952       46.56982017693282       38.57391900782263
C           54.50396397517552       46.78802620836392       38.05340521766266
C           56.59065514681134       47.89820304571595       38.93947486314281
C           55.89365847908135       48.75629214663335       40.00791467936128
C           56.71589311169882       50.03189995355025       40.18381997426976
C           55.74101406597300       47.97236467938094       41.32069874371318
C           55.35800228775513       48.77413937251531       42.57765748789934
C           55.52651125056398       47.86962280317538       43.79838751483005
C           53.93290705152905       49.33094724386883       42.44343236443031
C           53.45445958857338       50.38716159116936       43.46234661970508
C           54.54897851504805       51.39768538615212       43.80363245816925
C           52.85246325226936       49.79917799179288       44.74921015409651
C           51.42479433278942       49.25919172271450       44.59827576279864
C           50.41637311868659       50.40070852490083       44.46576788537934
C           51.00888994343958       48.40652717613783       45.80526857803282
C           51.77016540985289       47.09546509592916       46.03785586180678
C           51.69673824186771       46.18153238086466       44.81751490081612
C           51.18012820874475       46.40122953068686       47.27544273210678
C           52.09765514194796       45.35997228883831       47.92862145267411
C           51.27939924901939       44.45735415902679       48.84987374172604
C           53.22142456797347       46.03677910984265       48.72430232185849
C           54.48296889395212       45.17554904355386       48.88118678525346
C           55.31569519842682       45.67423239285190       50.06007932453970
C           55.29606502312364       45.21047051373432       47.58206454703598
C           56.58398979691028       44.37858736595058       47.57093684202955
C           57.40629254771178       44.77008788989345       46.34580380199856
C           56.29290778371100       42.87443835825842       47.57745453513012
C           57.47833657522517       41.98988021553005       47.99340611179531
C           57.19020083970401       40.55005600694256       47.57301708844818
C           57.71103983861731       42.06591603596856       49.50857890786267
C           59.04292661319993       41.47410666793653       50.00534077427001
C           58.81551980909136       40.70257151257742       51.30716341269147
C           60.11288918309616       42.54813544725492       50.24904458035822
C           60.63306248285527       43.26911273214356       49.00170558214231
C           61.40817930661743       42.31007589500897       48.09664051426431
C           61.55466949753030       44.43702314773858       49.38181685255731
C           60.89822978627246       45.62443911403767       50.09897712969966
C           59.70505988249256       46.15417994170361       49.30707030476643
C           61.91303498826347       46.76005621432207       50.29055090167503
C           63.01661399029530       46.48586854243811       51.31901403884288
C           62.49748301601701       46.64925634869828       52.74592975957911
C           64.22871733939027       47.40405639161017       51.08495831465610
C           65.57835117618335       46.68648702965012       51.19134879543452
C           66.70251760205687       47.71704731285876       51.23553433392141
C           65.78472851909355       45.73138125821080       50.00738792018122
C           66.82809720094440       44.62538995344326       50.23876184809420
C           67.65699530847688       44.42035902069782       48.96917052565520
C           66.18169305891332       43.28895825999869       50.63170711624581
C           65.52604604199300       43.24047273591844       52.02013056969657
C           66.59145060050336       43.23379426565618       53.11325672949459
C           64.62366007548509       42.00047413161496       52.09566813169036
C           63.87867733297836       41.76439253531804       53.41784021674673
C           63.22259444925652       40.38313497907643       53.36481956017984
C           62.82405681105999       42.84405638995231       53.69213846000402
C           62.39127240965556       42.92439818472369       55.16453964015555
C           61.00317356855529       43.55265568597650       55.27052238826182
C           63.40462886688755       43.72731945964602       55.99147482117713
C           63.39421298779369       43.39687899932611       57.49213946299928
C           63.97763858036994       44.56582133961843       58.28272552501260
C           64.18580909223793       42.10923751986068       57.74973076747346
C           64.04559020375908       41.51416267571764       59.15700666080425
C           65.02073542578238       40.34492319512972       59.30483210181440
C           62.60478783715867       41.05703223666572       59.45302366451212
C           61.85561109907677       41.93841749880414       60.46095278172520
C           62.40043945747807       41.71249989516025       61.87138266140391
C           60.34973206161622       41.63737161498954       60.44393725234631
C           59.59244870157936       42.19888412393282       59.23499720673237
C           59.43944478721929       43.71580003307793       59.34934923618384
C           58.19420085286953       41.57902038732208       59.10606348479170
C           58.12381250147460       40.06531566175586       58.86300005343623
C           59.08338184575137       39.61550504681993       57.75993559370247
C           56.70077085142584       39.64404610353300       58.46307610337900
C           55.59041577461127       39.97420478296044       59.46589293824298
C           55.75600857376251       39.20190219197788       60.77271528239390
C           54.20308635754462       39.74749181115320       58.84458778529589
C           53.87754446249494       38.30840656672186       58.45042905492535
C           52.50429541265579       38.21414779709878       57.79457184373099
H           60.98945083060197       41.44568142607454       44.11232222398391
H           60.17862527254866       42.82247220422273       44.85671016225806
H           59.36330735930231       41.26071983660990       44.76978000655012
H           52.46967887133784       38.81888361683199       56.89074827683306
H           52.27580727572113       37.18488742456480       57.52674203205390
H           51.73051584495079       38.57062479537245       58.47138818667170
H           53.44599274842361       40.09030926194888       59.55654638536264
H           54.12082274118807       40.37601152297211       57.95299307153483
H           56.45919517736951       40.12469571583529       57.51097275414455
H           56.70657351203762       38.56477607834830       58.29326115061853
H           58.39262030799059       39.53601089252988       59.78281770668431
H           58.93482717217211       40.20634695441486       56.85864838750384
H           60.11816771974564       39.71488235136545       58.07441908243463
H           58.91065243883900       38.56919372433248       57.51364944592810
H           57.64263564531007       41.81332727690443       60.01892444852728
H           57.68470755075277       42.07345005142028       58.27620903812987
H           60.22600157833691       40.55370239474971       60.48370454811567
H           59.89578350139973       42.04833073051859       61.34963194682615
H           55.64630017769547       41.04295028168644       59.69871194863874
H           56.64312849548948       39.53662806299821       61.30459721939097
H           54.89557939530535       39.36080120735548       61.41997452985520