3536
 energy: -3716.258507576056 gnorm: 0.000996869048 xtb: 6.6.1 (8d0f1dd)
C           55.61922389558313       35.74773657584167       52.49584547640195
C           56.19090629621783       37.08531003308151       52.03259973931074
C           55.90352097365267       38.15978691977639       53.08185250499064
C           55.60140276259304       37.52477408959756       50.68600108062534
C           55.81074683437178       36.56539390570878       49.50910748883749
C           57.29480196875830       36.26727473384786       49.29293088521382
C           55.23058726710283       37.13038729983254       48.20215181480117
C           53.71048843280684       37.38612098470104       48.19808506271298
C           53.11336641340958       36.96322159316051       46.85531794065150
C           53.40745573893969       38.86437642911589       48.47579620724261
C           51.92745225549409       39.25238978244703       48.62522617035577
C           51.86041107244417       40.73904852426578       48.97652125558917
C           51.23099332618732       38.38792937534319       49.68449618660967
C           49.82429035408622       38.83004670584704       50.11667705284837
C           49.32619180018115       37.87338191907549       51.20100366352246
C           48.85379861421215       38.86800154161239       48.93117829367462
C           47.49445542082686       39.52845434882862       49.20777772612072
C           46.55579687621194       39.23059719320116       48.03842415206421
C           47.64823725934549       41.04140274351878       49.39971117524696
C           46.44553182775802       41.74646979255415       50.04322333248103
C           46.58500857844562       43.24880021994058       49.79918889511992
C           46.34377931474754       41.44482698684800       51.54860029142730
C           44.92861989363927       41.17886037954222       52.09205132166076
C           44.36092011740678       39.87446201732592       51.53136497369329
C           43.94115735384221       42.32755770059321       51.84508697333826
C           44.17744581976536       43.56698491340852       52.72438266059799
C           43.59264068062044       43.34232011990220       54.11672800704491
C           43.55092211905750       44.79748356323783       52.05520610752072
C           43.72439368085423       46.14023444262156       52.78265260806102
C           42.99526239484371       47.22235544070323       51.98563049519099
C           45.21067010067991       46.47589545984874       52.96891783469687
C           45.53415628317547       47.88768764652336       53.48130797487971
C           47.04865987033056       48.09115909758356       53.43216586593063
C           44.99602883574314       48.10654411413611       54.90072020965487
C           44.94687845281756       49.57100244543348       55.36085412619750
C           44.77537185619969       49.61795227274865       56.87902329459165
C           43.80699040385274       50.33026294918453       54.66972353172425
C           43.95669539036213       51.85763577708087       54.67944884639321
C           42.61020334832579       52.50286105524022       54.35472896258631
C           45.01963074068173       52.31650287992763       53.67269434823221
C           45.61499950509819       53.69474598783044       53.99119672849766
C           46.33325935648553       54.22808287169021       52.75253187747584
C           46.55850278939304       53.62719935974332       55.20853998423409
C           46.28428998953622       54.69737361038261       56.27224024989557
C           46.67611608584549       56.08532215120869       55.76565892785419
C           47.04249051309234       54.40614199117043       57.57541889685559
C           46.55478099340585       53.21141728757970       58.41160639283967
C           45.11380459110367       53.40686579211863       58.87572631265996
C           47.50706400884892       53.06609729871806       59.60780546217963
C           47.26947299783623       51.88601924887038       60.56158342643039
C           48.11885383125957       52.10170809435476       61.81368608445754
C           47.61695628189842       50.55622817914146       59.88654150126686
C           47.16679251852960       49.29917505382549       60.64264076290062
C           47.83656097409193       48.07605739563837       60.01448957672591
C           45.63115299470574       49.15259618971707       60.65731525586034
C           45.03536170668272       49.09459756573226       62.06852551339181
C           45.44057109862946       47.80060830410887       62.77306851055370
C           43.50329736625889       49.16566488381544       62.05495998289091
C           42.85819167812321       50.47544998242114       61.58189124474129
C           43.36392924686425       51.67517283987041       62.37861916328219
C           41.33569202815825       50.33604542148188       61.73684273429487
C           40.49639849911771       51.34271366025397       60.93785728261973
C           39.09644474791519       51.42219220612337       61.54540429643720
C           40.42679910553239       50.93014798489598       59.46296067135860
C           39.93755487205265       52.02257534170191       58.50021080484508
C           39.53120248970603       51.37821275265420       57.17583556800409
C           41.02794670701826       53.08220982964620       58.29950563090180
C           40.67369810666543       54.24352541313459       57.36162940528629
C           41.93223708992405       55.06587649261122       57.09056544493651
C           39.57053496960177       55.14035517620173       57.93452284279051
C           38.82955172784877       55.98545390286468       56.88770789964515
C           38.09436129819812       57.12442464336821       57.59647330698368
C           37.82518033302567       55.15442392946311       56.06647954164988
C           38.28227601184871       54.68488168667778       54.67559618419368
C           38.47899526393894       55.87046133726511       53.73326430300929
C           37.22183411390742       53.71967777771034       54.12321041687395
C           37.63273831600809       52.88812727547536       52.89805464111070
C           36.37552216533870       52.32081042487435       52.23905157075656
C           38.59950504027169       51.77054202477846       53.31193133787888
C           39.04464761253015       50.80265924254870       52.20422059746809
C           39.90821551642497       49.70740681825305       52.82983307330116
C           39.79785402339909       51.55164552596079       51.09992854752815
C           40.26076287252785       50.72512685304451       49.89054573844444
C           41.06408526130647       51.64041417849286       48.96670736771787
C           39.06162659113467       50.11083023738192       49.15917532410271
C           39.38322836711797       49.34624330991782       47.86899920886008
C           38.07994182824388       48.86245948349252       47.23093630959819
C           40.36977409604748       48.18697171269486       48.06732027550473
C           39.94737403166381       47.12733812324063       49.08275531634229
C           40.90717322074039       45.94345184028388       49.06941719074241
H           55.90474940146785       34.94219441152485       51.82481888360891
H           55.98856734932080       35.50479378117594       53.49008963941969
H           54.53264880172090       35.79429189688685       52.53693451664984
H           40.63159378566613       45.21555217359920       49.82932497218363
H           40.88722677092667       45.45057565577601       48.10094299668130
H           41.92565929810785       46.27271638004662       49.26116132108397
H           40.51180764568621       47.70013817111936       47.09924891739730
H           41.33962402984666       48.58925724588882       48.36864459297485
H           38.53868966768977       49.43328493580742       49.83519392902188
H           38.36775604539684       50.91757364220931       48.90546995438161
H           40.92225055974259       49.92662748675207       50.23635037924380
H           41.51736933914163       51.08085035672844       48.15413480702584
H           40.42120682328029       52.40738295864692       48.53885681876835
H           41.85991915819976       52.13068236282234       49.52127037448349
H           39.15881155574751       52.35172401525467       50.72192900061550
H           40.67539446431620       52.02177487881568       51.55074544662848
H           39.49494520059629       52.22291102448046       53.74299970430388
H           38.11840653458796       51.18163222811756       54.09769060516560
H           39.84703354861187       50.04117860680662       47.16019252401979
H           38.28437393462233       48.29229969409516       46.32719639222051
H           37.51710242652960       48.23318263628422       47.91599976465595
H           37.45319156147336       49.71064808274010       46.96357979687013
H           38.15605891815374       50.32856324439000       51.78127598010190
H           40.82213545658683       50.12964500700660       53.24170204801097
H           39.36737342944061       49.21201635711056       53.63349277065522
H           40.17877952505837       48.95540815211394       52.09385183002055
H           38.12827154566966       53.54722192574691       52.18073923092015
H           36.61389203215771       51.81318806651755       51.30848177545449
H           35.88558779982194       51.61286428350530       52.90453826885618
H           35.67234235410677       53.11975406702507       52.01274836597255
H           36.92391887858770       53.02681942767559       54.91478294855070
H           36.33856930240663       54.30985933232702       53.86622949452847
H           39.23553739755954       54.15703695742353       54.76216792052409
H           37.54294175442221       56.40952309117175       53.60033234395355
H           39.21681269335805       56.56450405016656       54.12874186628632
H           38.82428103923743       55.53619885908694       52.75789220910055
H           37.54190583822790       54.27728755316870       56.65291998006200
H           36.91612891533961       55.74344132404055       55.92197174432708
H           39.56550622662164       56.43206769640259       56.21463265480991
H           37.58424998168970       57.76124897288969       56.87748312522395
H           37.35577025723229       56.72528925641260       58.28927488793956
H           38.79128564905681       57.74196058728741       58.15969900607909
H           38.83363888038468       54.53518645631681       58.46485827600497
H           40.02487519928179       55.80903030886778       58.67040554749111
H           40.33306781298101       53.82970268136884       56.41243267979321
H           42.36263611601142       55.42180269951343       58.02373401772778
H           42.67706436298447       54.46642116055852       56.57305466471932
H           41.70344439503954       55.92690029042574       56.46939571681876
H           41.30525180184551       53.50062125930776       59.26944822715492
H           41.91246368145987       52.58062796227851       57.89734511230119
H           39.04991883309590       52.49324956306734       58.93182652135662
H           38.79031864670924       50.60067437769687       57.34672782466600
H           39.09655146834545       52.10625482320408       56.49753463561391
H           40.39564422380383       50.92580213619043       56.69376182542341
H           41.41334418015629       50.60015665259282       59.13047309593521
H           39.75716892225210       50.06962860080140       59.38765577352752
H           40.95781331253708       52.33045461399650       61.01371510908486
H           38.46465251690537       52.10974130135109       60.98959887065084
H           38.62477718275803       50.44121992698867       61.53761983773462
H           39.14762120810158       51.76910961695643       62.57501741165150
H           41.03486291435344       49.33006509142244       61.43353482046804
H           41.09675861295059       50.43797433998290       62.79813386602226
H           43.09385875658510       50.63125992996752       60.52470711366912
H           43.21900659416637       51.51065966801359       63.44436723630489
H           44.42081057156941       51.85304458981418       62.19999157712785
H           42.82749227950095       52.57652304322463       62.09281642509884
H           43.13385312403997       48.35328473098611       61.42308380932964
H           43.15223611842629       48.97263102193463       63.07247401971930
H           45.42776892470209       49.93607344572104       62.64755515462854
H           46.51530634395886       47.65277413996761       62.72480020731141
H           45.14598277750042       47.82485928964166       63.81991761204800
H           44.95817543433714       46.94653858333681       62.30288778921427
H           45.18618659319841       49.99036768643734       60.12086897872759
H           45.34071271673228       48.24570319235979       60.12290284456076
H           47.52463146250532       49.37586806512023       61.67321465695964
H           47.56401236804556       47.98932144212100       58.96394903664827
H           48.92041877304185       48.16056858960504       60.07789884626990
H           47.54036523129291       47.16164004109483       60.52298853328807
H           47.16155600809317       50.53021875888263       58.89508520997531
H           48.70222569637186       50.51708640521426       59.75750010611171
H           46.21931820914229       51.87027222708038       60.86179069634748
H           49.16781678591150       52.18894240941309       61.54009551864662
H           47.82097671725862       53.01374240824281       62.32700807595259
H           48.01378967042408       51.27793956758198       62.51418825218736
H           48.52908809649231       52.98986281244074       59.22764215035345
H           47.44395234722523       53.98921598869875       60.18832283813172
H           46.60727547304277       52.30581580438962       57.80025854370622
H           45.03134623540392       54.30199153242695       59.48771219209365
H           44.44074646109739       53.50682911073676       58.02937593021751
H           44.77361231521454       52.55911185612186       59.46413524384916
H           48.09600987623548       54.25043140381128       57.32837486100975
H           46.98882450339293       55.29543351377822       58.20844301321139
H           45.21079064867598       54.71292972986098       56.48229975165493
H           47.73813623502290       56.11844649286872       55.52950512505620
H           46.11142979385099       56.34393285448636       54.87393461891312
H           46.47115284225486       56.84078148112830       56.52198092715437
H           46.46234077686198       52.64711039500899       55.67634696316463
H           47.59384820681831       53.72156676694448       54.87363931256441
H           44.79066483645057       54.37674605271517       54.22358458088706
H           47.09885479387329       53.52580002787658       52.43045690903327
H           45.62837988448994       54.35949285441747       51.93438659003620
H           46.80600249520139       55.18592061685306       52.95495171972724
H           45.83560564114452       51.59226172274598       53.63263132534740
H           44.56642101533996       52.34176214567689       52.67835229635379
H           44.25721577050531       52.17620191368171       55.68190524274441
H           42.24170615497927       52.13919538630272       53.39701675056564
H           41.87447936670072       52.26233503799403       55.11898790406890
H           42.69832067495391       53.58469663684148       54.29295744679974
H           43.72883324390506       50.01191200056972       53.62842939754228
H           42.86929285990554       50.05929142393499       55.16273110315547
H           45.89894955058212       50.05039992515579       55.11577311354596
H           44.70005988212753       50.64324084343534       57.23319149218206
H           43.87181846091750       49.08840964072930       57.17678283013664
H           45.62324681589523       49.14896423576067       57.37361297000148
H           43.98608520517062       47.69967131967468       54.97540203702144
H           45.62693742223355       47.54396692061263       55.59212410688088
H           45.08371673145311       48.61785843430030       52.80436882061841
H           47.32049750222188       49.09234100160121       53.75511873791559
H           47.55565020900044       47.37480595507421       54.07544286736623
H           47.41562717630415       47.95425177454898       52.41726996998561
H           45.64933091525722       45.75802069415008       53.66555943511344
H           45.71328034633871       46.34348237351737       52.00646650297502
H           43.24358329969029       46.06439523532551       53.76143077236726
H           42.89712017227607       48.13678067340688       52.56365082592433
H           43.52738596775759       47.44819920634056       51.06334871827279
H           41.99597161929979       46.88281312834265       51.72686909618658
H           43.96969222239281       44.89996250053035       51.05031689012909
H           42.48110071171715       44.60949116917148       51.93615302618148
H           45.25526677656455       43.72587606276777       52.81640574263751
H           43.87289714658720       44.14555239347062       54.79308340359857
H           42.50618408864346       43.29662283926543       54.06562510690432
H           43.95197601849408       42.40798870054079       54.54060014460600
H           43.98105987147459       42.60789541304714       50.79218536063316
H           42.92882509559176       41.96264651941859       52.03633952471452
H           45.03214753171613       41.04476587882063       53.17519319338884
H           43.41733421187516       39.63327867865134       52.01616870540964
H           44.17878276585114       39.94981908567710       50.46242768986203
H           45.05008065792461       39.05068118988068       51.70412796545081
H           46.94645312451285       40.56469557703424       51.78352842161612
H           46.78310114070433       42.28037833737316       52.09853083365574
H           45.53555172292148       41.40536406420026       49.54507777199066
H           46.49754014556321       43.46817515324622       48.73865118238474
H           45.81997051490827       43.80688622552575       50.32734495801223
H           47.55612623195410       43.59930984878883       50.14400800000465
H           48.52223528939424       41.24893752532647       50.02003878014064
H           47.83125908100487       41.48877243444421       48.41941857634398
H           47.05915684526521       39.09220128273984       50.10979553514186
H           45.58686878444254       39.70104341098555       48.18395907994163
H           46.98109724233908       39.60301182081844       47.10787997684767
H           46.39787312641808       38.15905572128282       47.93628848376257
H           49.31576740223551       39.40815383070480       48.10347381561141
H           48.68447592835845       37.84144616517358       48.59616020097143
H           49.89762971051459       39.82693165918079       50.55738306359468
H           48.37809290412315       38.20637645867033       51.61475521945674
H           49.19098538787965       36.87296836864543       50.79465037273365
H           50.04334036091879       37.81376557919717       52.01757901878845
H           51.16007279698278       37.36423500819570       49.31152470019407
H           51.86346439413850       38.37135211007808       50.57700523812023
H           51.43485869939411       39.10278123881724       47.66041847481792
H           52.48952612822191       41.31534116310746       48.30026933477266
H           50.84596550722260       41.11960269404559       48.89751331062282
H           52.21318798563231       40.90148184353693       49.99253383195143
H           53.92512113247149       39.16927661506779       49.38601019392963
H           53.82604010631839       39.45248509907955       47.65348606436429
H           53.26072518851176       36.76921890416366       48.98099677247603
H           52.03444624677512       37.09492081835669       46.84831409916681
H           53.53770098439883       37.55808317206327       46.04871747502858
H           53.32442063122698       35.91455871324773       46.65710681551921
H           55.75803979827033       38.05167738946655       47.95058400547786
H           55.46024042924193       36.41014760984775       47.41380224666700
H           55.29336706317053       35.62473819824879       49.72455920771510
H           57.71796422935841       35.73094956710416       50.13760016151232
H           57.43333557306437       35.65484268138421       48.40440688136861
H           57.84975672351903       37.19359638152449       49.15830315973466
H           54.52893879976816       37.66763412409254       50.83021153065830
H           56.03886234214825       38.49159124994049       50.42086049083819
H           57.27697737489903       36.99046098972844       51.93767966097122
H           56.30870684950184       39.12066687047196       52.77377816070202
H           54.83099447958650       38.27186652638211       53.22874273149263
H           56.35256555331933       37.89325323663745       54.03590417108222
H           39.92537002642980       47.56295656051474       50.08304525905940
H           38.94283998576443       46.76977623608109       48.85356234265990
C           60.02778942699651       41.93887600087858       44.23903145154171
C           59.43585441022549       42.33108913766253       42.88465078955456
C           60.37606715060942       43.29951825868418       42.17143909335172
C           58.04648740384869       42.93886803414132       43.10877124747496
C           57.30019688071953       43.45692362988914       41.87136897859838
C           55.99824841988060       44.11378113611431       42.33022174224131
C           57.03586490561154       42.32956022602516       40.86714998467379
C           56.35277391624513       42.74340150437818       39.55501177131745
C           55.99395864404038       41.48722833720402       38.76244927636107
C           57.25347268655700       43.67192017988094       38.73287326642208
C           56.56657137386568       44.31666491047899       37.51337540466582
C           57.10516584052726       43.73511142953274       36.20667103792876
C           56.76369327311863       45.83891610378720       37.51639376565907
C           55.92063674090940       46.56874958977932       38.57425942067869
C           54.50378561861621       46.78794702538683       38.05341362354815
C           56.59080532146062       47.89719177453789       38.93954493464287
C           55.89317174379189       48.75575009373004       40.00737958602923
C           56.71586810297362       50.03137531306668       40.18358816293033
C           55.74080060603168       47.97186691984476       41.32046325735520
C           55.35852999234465       48.77421537548318       42.57751824041637
C           55.52636972521857       47.86898376186796       43.79820862998293
C           53.93310944530547       49.33059995106517       42.44319886643469
C           53.45456309906037       50.38700313507835       43.46199328458744
C           54.54909693153583       51.39796012932720       43.80333302411418
C           52.85289631290562       49.79923054803397       44.74952325116173
C           51.42504904523817       49.25898005847432       44.59823152533943
C           50.41669232268639       50.40074560357309       44.46598629843117
C           51.00938696887332       48.40677890958722       45.80581936263620
C           51.77101833151094       47.09544650691940       46.03756738884023
C           51.69652522464126       46.18180987846391       44.81688198298264
C           51.17995243666706       46.40165088065941       47.27528437322071
C           52.09767753406626       45.36008260481213       47.92806360770068
C           51.27931156407787       44.45774933618254       48.84963968733016
C           53.22150554305826       46.03733999839414       48.72380928641820
C           54.48288881542798       45.17535375746316       48.88059718522759
C           55.31604612105613       45.67441023372558       50.05940770476099
C           55.29619109702098       45.20998703660031       47.58134316098153
C           56.58414091523133       44.37755904940239       47.57127372448603
C           57.40609252076916       44.76930989622197       46.34567787370242
C           56.29254208562284       42.87333267581529       47.57750833630625
C           57.47866081094567       41.98909231335443       47.99316527895596
C           57.18965219212281       40.54938662681788       47.57325920782898
C           57.71081554161862       42.06552893260172       49.50875121142712
C           59.04290571780346       41.47347683188747       50.00536540252636
C           58.81547343532462       40.70229252967632       51.30729981393210
C           60.11243875271823       42.54795775192298       50.24941110476566
C           60.63199914354824       43.26870517342694       49.00126328590545
C           61.40790770660717       42.30968704773275       48.09695636051948
C           61.55467400133836       44.43602211399968       49.38177997252674
C           60.89841546953087       45.62336068187927       50.09943260855694
C           59.70546341633596       46.15401808977774       49.30700943675561
C           61.91318050312407       46.75948415433707       50.29064755326859
C           63.01705530837170       46.48492245049811       51.31900007002911
C           62.49793672676342       46.64836100008629       52.74610832193054
C           64.22906339604381       47.40352294980326       51.08485270968733
C           65.57870106264679       46.68531799919110       51.19158102342787
C           66.70236305777722       47.71659521179618       51.23613403270864
C           65.78535010207415       45.73053190533793       50.00730105433183
C           66.82895701375197       44.62467371829329       50.23994162190806
C           67.65751654043586       44.42017773219393       48.97024154557184
C           66.18173671809780       43.28865679060358       50.63252632528469
C           65.52572532724351       43.24106636877311       52.02097661101278
C           66.59150192877519       43.23387536537271       53.11391319516285
C           64.62401971675268       42.00032306447871       52.09601183016646
C           63.87975017161644       41.76386647213960       53.41843327007924
C           63.22290919409863       40.38330488091854       53.36517730921320
C           62.82467285768821       42.84356388901108       53.69237230520551
C           62.39187064440880       42.92343781441057       55.16486519407736
C           61.00319595671003       43.55124554849854       55.27030994190607
C           63.40475874696273       43.72699644285269       55.99190880916565
C           63.39397507387957       43.39625319722722       57.49273341924086
C           63.97793433945276       44.56558103703941       58.28298932767414
C           64.18605425753303       42.10887724157136       57.75002254804891
C           64.04531860117892       41.51471019500627       59.15759910775151
C           65.01991130097356       40.34546627614873       59.30505781874561
C           62.60445936289331       41.05719554276708       59.45282010400672
C           61.85542666551962       41.93892630481165       60.46074779280308
C           62.39986341727110       41.71199155138434       61.87095520572812
C           60.34965696952865       41.63691193135550       60.44420710728752
C           59.59272507713032       42.19827918862718       59.23512990817215
C           59.43962004231533       43.71562976035569       59.34986838118733
C           58.19394763709052       41.57897166905931       59.10640579431886
C           58.12375511186021       40.06513462288308       58.86284711439409
C           59.08363727626207       39.61611363540462       57.75995222498819
C           56.70072759752214       39.64407221130627       58.46248513805970
C           55.59054250975669       39.97504868646541       59.46555459480950
C           55.75616786366727       39.20227392450892       60.77195629566376
C           54.20308345129099       39.74787977674946       58.84409281330380
C           53.87824870810698       38.30864899549786       58.44966448308470
C           52.50459951849840       38.21495483619572       57.79464188555163
H           60.98902014301294       41.44616516691708       44.11147886819221
H           60.17803410402314       42.82249731986033       44.85644574163636
H           59.36288673435482       41.26038163284858       44.76888154126128
H           52.46906485178885       38.81979293910036       56.89063085554464
H           52.27668999044348       37.18583977012275       57.52662508272866
H           51.73129869206576       38.57080566848121       58.47202772886051
H           53.44660411129221       40.09016987732445       59.55658885575401
H           54.12050774529195       40.37693692493401       57.95272698201180
H           56.45934274594835       40.12371019788834       57.50973643145666
H           56.70661706766833       38.56511627063210       58.29443880499033
H           58.39190822599377       39.53681486774450       59.78242099124887
H           58.93593643268076       40.20741788683411       56.85858940205358
H           60.11819262701624       39.71504608494055       58.07493360250780
H           58.91011206115605       38.57037686608962       57.51342724730537
H           57.64326730164886       41.81357673699262       60.01949726297467
H           57.68461196729520       42.07430169484186       58.27679513611187
H           60.22625709617659       40.55365824792018       60.48234626269715
H           59.89491325440446       42.04786786590964       61.34920538999194
H           55.64642268280425       41.04391946401340       59.69793183002115
H           56.64338180236634       39.53710540312245       61.30348883717413
H           54.89578248600604       39.36158885057347       61.41900330129756