3258
 energy: -3427.549434802647 gnorm: 0.000930226387 xtb: 6.6.1 (8d0f1dd)
C          112.27232420984915      114.17952352677361      115.88696835471293
C          111.55792395722989      115.16305838191896      114.96939807753898
C          112.52149578194152      116.17881678113622      114.36056268179892
C          111.85251119274083      117.10856974714955      113.34609064476660
C          111.66509419157138      116.43933432174808      111.98821836481287
C          110.84974670301426      117.27268288627391      111.00361643577651
C          110.86863589821388      116.63250466731309      109.61748250000259
C          109.83658143379576      117.20633121967556      108.65203067580691
C          110.12401213455125      118.63639182750309      108.20309283341460
C          109.13511066651742      119.06351520208925      107.12301836190484
C          109.32507167687531      120.50290648350156      106.65803732376051
C          108.24774057591017      120.93666619370717      105.66396413048641
C          108.37395223940365      120.25605410108673      104.30476764756281
C          107.34058974137781      120.77640789856798      103.31014943726127
C          107.45564667391498      120.08121787723172      101.95745822976633
C          106.44539064939065      120.61924513329419      100.94883118565585
C          106.61320749139020      120.02312394124590       99.55146771528325
C          106.29340134062444      118.53390471674973       99.43106519564707
C          104.80351575817755      118.22324571090132       99.53156566038561
C          104.49814079422717      116.73473978570098       99.37030837722733
C          105.01631311184921      115.88568798627428      100.52930233468720
C          104.49096522873901      114.45397127663794      100.46354157508621
C          105.01065331480440      113.57342930877691      101.60068398941314
C          106.45923826653328      113.12679098700951      101.41613889664269
C          106.88816889575924      112.11224516533397      102.47316236926950
C          108.31817188267746      111.62789955883289      102.25457445039333
C          108.73343377098688      110.54975827419217      103.25286381658978
C          110.17773837122591      110.10819659159436      103.03268984962754
C          110.58819073168135      108.94730520924401      103.93638078405679
C          112.10122424401992      108.72817615539041      103.98423695073105
C          112.72483903740326      108.44340610644534      102.61973866005032
C          114.23637822540347      108.21697575706412      102.69727725570944
C          114.62544778093161      106.81324767437954      103.15240475391876
C          116.12780287799205      106.69746103316257      103.39730306906144
C          116.52157517289380      105.29690191219348      103.85540117912913
C          118.01241039886789      105.13635951728406      104.14452466955359
C          118.53932504460101      106.06582791025903      105.23756848842420
C          119.93728313050819      105.64187079792160      105.67995960982076
C          120.59659326346758      106.59102843686580      106.67788349842914
C          119.85154208396810      106.70571962935749      108.00555053202672
C          120.73228642619124      107.31773770726467      109.09222513677970
C          119.95138581488258      107.61717274562098      110.36765398358739
C          120.82191434651892      108.26194397417046      111.44325981398664
C          119.98859233247428      108.77063773874499      112.61518160876891
C          120.83172500603223      109.47087373693221      113.67495044785724
C          119.98945921247100      110.12630199565437      114.76978724329379
C          119.27892109799201      111.39988905728516      114.31693374564045
C          118.45344294464702      112.01378469463317      115.44609494417450
C          117.94178512743834      113.42240607378827      115.14182489538941
C          116.89530784765397      113.46338544234983      114.03045597721697
C          116.35121377617605      114.86805597703950      113.76188822381735
C          117.37602871524250      115.77852890100738      113.09038353401297
C          116.87585881505824      117.20231800759105      112.84949425908039
C          115.79273126797609      117.31977814065314      111.77808690543981
C          115.55054229841805      118.78297641093107      111.41714765469244
C          114.47982532916761      118.99145020015979      110.34711346052288
C          114.45229453161434      120.44841268733701      109.89040483365777
C          113.39373575076070      120.76584585138376      108.83848374619896
C          113.57799685600430      122.18258296514068      108.29706326139581
C          112.57758976096451      122.54835399672504      107.20395972931676
C          112.80150150568811      123.97275326939788      106.69733949918553
C          112.01833474735392      124.30553951833041      105.42657908207090
C          110.50520033654772      124.23455160178325      105.62042972177564
C          109.71379927968734      124.86905885576762      104.47573244327572
C          109.89221372142201      124.16506064528353      103.13137077063560
C          109.01936690928285      124.79911007945327      102.04923027879708
C          109.22613855270906      124.16912572763313      100.67249799936614
C          108.40892241783253      124.88972498669483       99.60093470357381
C          108.66124803370565      124.38398726931726       98.17866241593147
C          108.12208977980747      122.97616434340298       97.94107399663702
C          108.21385420143649      122.54092746962397       96.47904077728202
C          107.64988550036004      121.13441395349739       96.29387907636573
C          107.66023164081579      120.65548961260156       94.84498780041737
C          107.24882472174291      119.18731278836393       94.71253219389173
C          105.79426278173482      118.91834479959140       95.09494480721160
C          105.43015501255455      117.44090225699780       94.96144113388098
C          103.96418901559062      117.17544504212036       95.29888171798810
C          103.62614658065021      115.68726476314897       95.25305588387975
C          102.14711569812890      115.41390175344158       95.51648907562591
C          101.84065374392544      113.91832251976207       95.54309695361995
C          100.36755599962913      113.62320479846555       95.81493873240358
C          100.07981664608374      112.12281999304913       95.86756470807565
C           98.59868248208733      111.84155971061004       96.10906178964277
C           98.18343606277999      110.37622150736679       95.94304718276658
C           98.54441136165690      109.44969273139810       97.11077699643432
C           99.91349500678484      108.78115743767047       97.00725824108378
C          100.12669179974239      107.76102777549343       98.12587883838428
C          101.49524383164207      107.09087506159084       98.03724990437995
C          101.72940093466880      106.07143179785282       99.15067246830614
C          103.10898827745761      105.42302100837179       99.04591098728845
C          103.39543923226699      104.45544881198492      100.19231902788043
C          104.76398568282718      103.79205402051743      100.05070016965769
C          105.11716167371742      102.91093011326885      101.24695747042105
C          106.46081151397351      102.20873208699389      101.06412780347945
C          106.88132861763911      101.41468057736873      102.29859805495090
C          108.18941441136587      100.65973823868759      102.07481233687221
C          108.66712944734486       99.92991830718199      103.32766482743502
C          109.94054016117830       99.12867319495061      103.07045384684984
C          110.46252057385114       98.43868761573775      104.32791210821576
C          111.70663598791356       97.60283592639593      104.04137135406629
C          112.29293944361400       96.96921576902078      105.29994242301375
C          113.50703770011253       96.10332959964948      104.97391624817911
C          114.21076454502347       95.53521125595179      106.20522468239857
C          114.92895388778278       96.61525175820498      107.00575295202080
C          115.77773902994470       96.06138734085329      108.14511702576814
C          116.42693909105313       97.20043507867280      108.92279992557906
C          117.26596585321096       96.73851314849949      110.10874424663285
C          117.75506192767965       97.94072880830259      110.90969560510582
C          118.50320149912854       97.56381364539251      112.18261527146318
C          118.88855249115701       98.81259254639480      112.96904036811559
C          119.55932273955366       98.48069937160780      114.29679144159772
C          120.05721238988586       99.71870574832143      115.04082117697635
C          118.96559472043074      100.68194665909647      115.50642144902416
C          118.13075280416000      100.14531090918000      116.66643029380286
C          116.89078487116362      100.99449797666523      116.94672772191751
C          117.20809254544349      102.43609277318986      117.33292880241288
C          115.94391955562325      103.25108301142710      117.58846281911575
C          116.24445582234948      104.73288566368188      117.79283182757132
C          114.96837696117829      105.55114933053304      117.96189389082716
C          115.25919725685894      107.03033968167907      118.16805819984442
H          114.34391812605379      105.42672814969458      117.07407994172257
H          114.40224123632380      105.16706006926719      118.81365340271789
H          116.87860983342149      104.85875550135815      118.67470932771307
H          116.80289879160789      105.11076183199752      116.93216071160982
H          115.27267044743921      103.14059706042613      116.73382199142712
H          115.42472938333384      102.86039631276567      118.46644312879262
H          117.84113912872317      102.44528303380979      118.22394772006574
H          117.76580324658958      102.91193012950657      116.52434480932817
H          116.25755501353605      100.99918568047777      116.05500841381344
H          116.31504277091828      100.52943608699140      117.75130103072941
H          117.80247198595399       99.12949635715097      116.43554894697877
H          118.75160860912804      100.09287677918923      117.56386783140337
H          119.45113236909370      101.60919619720977      115.81655964778777
H          118.30947879911957      100.91832705410887      114.66714480384189
H          120.63700594890243       99.39627084966914      115.91085005887071
H          120.72990063872022      100.26590194127684      114.37476308939556
H          118.86455532704797       97.92181378931717      114.92489052888250
H          120.41586264672947       97.82767573494073      114.10502840702108
H          119.56197812514084       99.42533979126782      112.36540571902533
H          117.98359611973009       99.39511443598862      113.15101661321027
H          117.86606278449706       96.92786643704714      112.80309076716989
H          119.39892029195592       96.98813973193586      111.93464410300058
H          118.40454473702131       98.55174553900775      110.27913716563278
H          116.89297562587369       98.55299275460938      111.18320909191773
H          116.66490410462758       96.08784019036142      110.75030689644694
H          118.11966043747154       96.15348428093166      109.75807375167264
H          117.05573379482189       97.78246109012697      108.24562511091352
H          115.64161688762003       97.86493576859924      109.29065182146664
H          115.15236752474794       95.46436159425951      108.81490242793738
H          116.55315781182706       95.40514552273652      107.74198211930624
H          115.57315149684435       97.18612107428478      106.33365562272932
H          114.19414773357761       97.30569531129828      107.42375421331380
H          113.48649297732700       95.01978444037380      106.84022620674730
H          114.94769547624541       94.79604882273256      105.87710458283330
H          113.18273692455087       95.27552492688186      104.33690462238285
H          114.22634368024781       96.69358618308456      104.40134608668751
H          112.57974353177003       97.76254003173656      105.99215196770551
H          111.53316364532027       96.35605175056875      105.78975898744646
H          111.45253675811102       96.81518204984317      103.32611292472778
H          112.46574805788696       98.23377736291825      103.57122525300491
H          110.69820862584790       99.19348696556364      105.08219424270362
H          109.68268590523402       97.79277369517102      104.73789960889965
H          109.74158240005615       98.37382705228954      102.30401465702305
H          110.71387827790113       99.79271340581708      102.67530954719034
H          108.85134226776088      100.65733051934045      104.12193694285361
H          107.88177214445174       99.25349085599402      103.67331623035977
H          108.05299539912396       99.93468486176269      101.26714208448875
H          108.96177846605941      101.36140999290510      101.74913856893426
H          106.99836829245247      102.09713401249175      103.14380253104714
H          106.09375859865423      100.70164432573560      102.55436986210408
H          106.40214967951410      101.53462707850358      100.20488883072835
H          107.22829762528188      102.95294003770753      100.83557436945472
H          105.15292086030806      103.52745091999846      102.14837649370962
H          104.33466416333152      102.16115626264563      101.38822056672376
H          104.78192889378556      103.18965621706971       99.13815650569218
H          105.52750234144267      104.56641165065632       99.93722758614254
H          103.35542708566622      104.99944157399932      101.13905127226145
H          102.62010975345471      103.68527708311498      100.21961638177295
H          103.18964152358397      104.89047405978556       98.09417123940396
H          103.87216391229657      106.20603957978877       99.03867289735577
H          101.63655119244642      106.56699936150783      100.11991489055218
H          100.95869794082296      105.29710761415066       99.10153138770703
H          101.58173488109466      106.59304103099430       97.06991686106028
H          102.27440616181623      107.85640403883951       98.07930867008884
H          100.02669711542165      108.25760074452110       99.09315111667196
H           99.34679075996245      106.99706322647873       98.06872821966334
H           99.99247281101755      108.27418708872001       96.04211190049247
H          100.70523797505669      109.53007451447991       97.04533824966754
H           98.48457329151553      110.01212459727719       98.04394697988866
H           97.79445377105014      108.65559656638051       97.16291865004534
H           97.09582913784939      110.36059131084940       95.82649286836468
H           98.60835948752582      109.98229373012830       95.01640989114236
H           98.32462925766420      112.18192697399053       97.11067971730516
H           98.02113920601244      112.43647238708206       95.39460082041469
H          100.38185746776004      111.66679164162882       94.92088363270894
H          100.67825440975682      111.67459739788384       96.66104481759872
H          100.07654407616576      114.07900864439252       96.76374494887877
H           99.75839864803768      114.08122332861640       95.03063595352057
H          102.12635518348777      113.47633456335814       94.58534282322901
H          102.44830082797530      113.44537534561064       96.31764731661730
H          101.86428129316599      115.85782142502886       96.47381402859756
H          101.54459691649828      115.89618232464176       94.74232336876243
H          103.89738690016173      115.28434068617804       94.27393042887233
H          104.22621752906473      115.16295176624880       96.00054503825478
H          103.74954077682334      117.56200817222413       96.29830552029010
H          103.32737339999122      117.71488246460558       94.59268192490809
H          105.63168491169411      117.10625612194501       93.94019070686666
H          106.06453004390613      116.85382582497627       95.62983164505576
H          105.62222420425464      119.22650723015006       96.12720028795762
H          105.13813336557453      119.51366828604114       94.45456735922716
H          107.40640908927503      118.86770811374598       93.67884593151079
H          107.90274371555991      118.58159413980189       95.34480391338219
H          106.99075062523004      121.27806724009618       94.24621208866232
H          108.66876093775898      120.77199659349395       94.43955395173649
H          108.23505451055986      120.43760236668433       96.89693160914447
H          106.62614317762115      121.12386645941557       96.66914295750294
H          107.65744369223872      123.24328789688155       95.85272347492554
H          109.25689308881937      122.56591807230427       96.15309674980797
H          108.67697032225708      122.26598258619936       98.55462442361801
H          107.07654835304805      122.94019672261305       98.25569362012493
H          108.17740141889119      125.06873324211077       97.47652215908072
H          109.73390140109339      124.40694153336372       97.96992118510956
H          107.34544191239688      124.78860756036887       99.83238042546260
H          108.65192861030270      125.95538187046773       99.63832924691987
H          110.28583096698165      124.22010239202199      100.40931746671143
H          108.94189869404960      123.11674587961140      100.71262139998504
H          107.96713426240999      124.70817063026755      102.33149563222374
H          109.24920993462655      125.86677857699398      101.99061346980429
H          110.93785089669234      124.22665866391128      102.82326618736359
H          109.63448694524911      123.10906883750489      103.23748862154152
H          108.65183952292415      124.85771241972442      104.73797208895907
H          110.01093286313017      125.91637716176285      104.37148333064111
H          110.20410590820440      123.19308997838368      105.73209837165490
H          110.24680813440851      124.75740665858562      106.54582103489768
H          112.28886960635413      125.31606662152963      105.10733349251015
H          112.32080297443292      123.61746399558820      104.63438226140849
H          112.53232829062999      124.68289125210278      107.48420240985085
H          113.86681848162320      124.10781393694521      106.48835810501352
H          112.68242546061863      121.85192191082496      106.36875033053791
H          111.56464525726594      122.44792298227719      107.59490649582479
H          113.48607375183578      122.89764413617723      109.11823333984371
H          114.59169627549366      122.27838683253728      107.89631845051002
H          113.47550350054814      120.05433270467660      108.01685290084838
H          112.39678247856828      120.66313197538061      109.26852239497001
H          114.29571360861947      121.09397770492752      110.75894364900434
H          115.43053771638533      120.69755523654015      109.47173378444360
H          114.69191488755958      118.34815703192665      109.48946678892966
H          113.50294129952083      118.70715023117461      110.74104879611289
H          115.26780748816368      119.33016709752721      112.31999780922325
H          116.49216655091951      119.21008662907852      111.06166605884425
H          116.10581043877697      116.77508101181827      110.88341570352100
H          114.86400191168222      116.87332774154103      112.13521288262298
H          116.49708555975975      117.61698329110490      113.78752909939554
H          117.72797479502483      117.81638895029032      112.54268622621021
H          118.26742773437851      115.83397657221373      113.71944263755979
H          117.67260809423799      115.33881679916442      112.13579086626193
H          115.47563965815203      114.78329685820549      113.11393906483950
H          116.02572313128088      115.31531406780185      114.70471931830669
H          117.32368810509131      113.06794265288129      113.10695039066634
H          116.06452404289774      112.81117404397612      114.31403362910024
H          117.49783705091271      113.83651101832918      116.05155592094940
H          118.79157630888152      114.05461068609195      114.87648726735205
H          117.60949083948006      111.36014649875263      115.67602146781790
H          119.07855605952038      112.06355074387758      116.34215092964094
H          120.02691299576354      112.12405176642388      113.98454216227135
H          118.63171080522154      111.17766497842941      113.46847494314660
H          119.24929244115603      109.41004488126842      115.13100953508373
H          120.64297302784068      110.37603046182427      115.61087795703435
H          121.50324669680283      108.73792578509526      114.13225284550907
H          121.45333002083937      110.22957344651398      113.19614441127180
H          119.24345547648970      109.46935057984753      112.23133691412656
H          119.45587610118578      107.93442444118398      113.07452553356489
H          121.56139581531662      107.53964737364547      111.80051209124665
H          121.36866576779209      109.10058924467782      111.00437465315329
H          119.12817662936844      108.29414324747427      110.12507635940506
H          119.51517656878973      106.69294399378238      110.75467994780323
H          121.55650840249108      106.63549456125727      109.31863609486466
H          121.17449235253393      108.24534996194483      108.71847514460056
H          118.95903784249801      107.32212930478730      107.87653584441341
H          119.52353526137455      105.71569244506779      108.32667408154900
H          121.60516641215398      106.22297974035274      106.87768272779381
H          120.69290068755051      107.58500609422622      106.23227161487742
H          119.88481000737515      104.64538790173472      106.12355303630071
H          120.57607702595453      105.56922390557308      104.79620816632071
H          118.57501854539353      107.09307516226389      104.86853608906462
H          117.85873940323542      106.04084233606096      106.09050703576628
H          118.19129021646134      104.10110096724472      104.44987425338074
H          118.57808286765129      105.30797304708564      103.22446313165655
H          115.95709918040397      105.04428980116117      104.75638603969882
H          116.23923828315243      104.57827257451800      103.08176545497923
H          116.66883691244462      106.94416681760104      102.48003726914691
H          116.41561229149045      107.42615157757376      104.15750993227377
H          114.09382673558045      106.56210416049416      104.07301689303057
H          114.32619161106990      106.08905849860932      102.38975565855419
H          114.67813409522776      108.39462209601349      101.71235149546499
H          114.67171030545505      108.94825750417841      103.38161510529359
H          112.24713798180211      107.56673123844308      102.17639508591681
H          112.53386635873645      109.29319269254897      101.96238705217330
H          112.57306688390689      109.62026857325584      104.40460524656689
H          112.31252691131530      107.89619359911332      104.65992676315958
H          110.23498088046472      109.14922540429907      104.95198252870732
H          110.09805519833770      108.03363126190553      103.59429852637423
H          110.30015447281228      109.81661880378712      101.98739309222705
H          110.83877375340855      110.95872031685408      103.22063166965340
H          108.61901642999213      110.93044618684237      104.27082741382239
H          108.07069093975083      109.68675091318681      103.14700897767118
H          108.40818786146430      111.22799199401899      101.24059562300428
H          109.00001769203359      112.47869819385879      102.33315237821124
H          106.80605168343267      112.56151643822450      103.46527382670948
H          106.20993714267316      111.25508119151351      102.44557053198270
H          106.57362063716053      112.67830907042651      100.42607554770427
H          107.12437855757261      113.99092099159940      101.46438608821276
H          104.91700828776865      114.11891489937179      102.54244454631214
H          104.37821003570960      112.68482927211780      101.67710040380329
H          103.39865496780564      114.48247960361320      100.50599971203708
H          104.76702398414992      114.00736986285112       99.50493291967065
H          106.10658744304509      115.87222576303452      100.51415704256689
H          104.70231280225090      116.33889992342682      101.47361765249769
H          103.41555564780832      116.60827198434185       99.30005260071410
H          104.93139410423316      116.37590023669654       98.43289308954600
H          104.41464549703652      118.55943069569086      100.49502944195827
H          104.27578999746304      118.77964718508440       98.75101020963317
H          106.64950814485523      118.18477876755180       98.45826909369386
H          106.83768476414943      117.98304243984337      100.19732458930955
H          105.97400271989783      120.57379569827842       98.85703369048561
H          107.64715317481900      120.18358009611592       99.23674210484511
H          105.43315811010378      120.43890330783259      101.31624665045420
H          106.57372877869777      121.70325235014077      100.87363660174748
H          108.46593288374258      120.22713665783687      101.56473797062556
H          107.30615592471291      119.00875524354225      102.09817567913468
H          106.33815172337582      120.61582581839170      103.71389647627690
H          107.47245461640016      121.85350977528165      103.17595953485495
H          109.37781077562224      120.43202790595693      103.90812856982490
H          108.24353660708668      119.17823615417814      104.41799156720930
H          107.26274224445429      120.72190538016611      106.08585150253761
H          108.30727517414127      122.01807714520203      105.51709697053563
H          109.28837812868026      121.16546108098558      107.52757378893796
H          110.31138023262329      120.61408474758501      106.20086369180089
H          109.23619935772309      118.38832150500308      106.27160316066522
H          108.12104885137111      118.95642312114322      107.51221694999748
H          110.05298744312105      119.31613451860768      109.05529715955471
H          111.14301270435560      118.70301417370256      107.81358152943737
H          109.80079162334128      116.56996809991170      107.76441276318408
H          108.84952772209162      117.16843355890424      109.11841042350885
H          111.86722485608639      116.73637810298050      109.18578352912481
H          110.67172606471493      115.56336955026893      109.73248564062858
H          109.81957573801024      117.34665708541245      111.35922299795411
H          111.25326596922368      118.28676288565080      110.95278821595628
H          112.65038868456335      116.24349054064325      111.55546139042870
H          111.16649051075079      115.47735666256277      112.12118997475483
H          110.88383333749719      117.43222034792093      113.73500734010476
H          112.46858929139253      118.00190079155317      113.21505482154097
H          112.95358049837567      116.77662737281317      115.16639908589055
H          113.34274268029479      115.64721070928924      113.87515512862156
H          111.06064369665562      114.60685213223371      114.17246893853530
H          110.78709759053555      115.69288345277042      115.53619253224564
H          113.00074370623324      113.59670391280734      115.32766461647402
H          112.79663232265028      114.70844335508974      116.67945722177686
H          111.56070311777276      113.49304657656856      116.34122791668288
H          115.80456731558800      107.43322076339442      117.31751296142441
H          114.33566953331908      107.59391662830792      118.28162783586664
H          115.86298398675241      107.18030117597392      119.06026616558914
C          111.82624241200105      111.05737695356910       96.28386624036692
C          110.94024208603054      110.62498641458497       97.44606485261079
C          111.07386605637828      111.52855070323115       98.67110157026312
C          112.42646163879985      111.44290248794903       99.37473449707377
C          112.43898389950701      112.32433339886616      100.62010955199338
C          113.74907209574400      112.27097796720666      101.40441520950318
C          113.60410463647140      113.04528368260996      102.71156911309541
C          114.85529480565883      113.09877103921961      103.58545338670559
C          115.29408065640447      111.72996466535278      104.10414877629543
C          116.20656530372533      111.84273487511307      105.32465323586564
C          116.83844381805292      110.50392500055233      105.70104999858343
C          117.55084295737160      110.52787456921489      107.05401403707249
C          118.73492572447005      111.49044913229901      107.09791344834552
C          119.63270541690986      111.29717872997522      108.32127774192180
C          118.94238733755402      111.48931072131359      109.67256196386647
C          118.31782509695972      112.86749218494813      109.88663861775784
C          119.30356751346983      114.03478052601919      109.91526774247946
C          120.28368979305986      113.97146566772616      111.08518638339623
C          121.03181289255843      115.29013336869326      111.27702876601231
C          122.20395508647847      115.17185025786620      112.25116495734984
C          121.77960299421797      114.93346601415551      113.69769217767509