3258
 energy: -3427.547808987710 gnorm: 0.000985615540 xtb: 6.6.1 (8d0f1dd)
C          112.27272584493180      114.18008949188768      115.88705284801568
C          111.55746678831501      115.16338381941269      114.96927164450013
C          112.52162832843629      116.17907000686162      114.36038155615056
C          111.85213148485499      117.10930348158374      113.34628002939704
C          111.66472163699991      116.43947671327483      111.98827132266668
C          110.84914396774982      117.27354114897888      111.00386735446459
C          110.86864985396312      116.63292307379152      109.61756371991427
C          109.83601397746607      117.20694161157630      108.65218995964557
C          110.12388471724779      118.63726776280177      108.20339721316080
C          109.13433726953173      119.06382862477030      107.12314416056472
C          109.32467804068064      120.50349204452813      106.65803364505032
C          108.24685339568600      120.93678089082155      105.66398909401724
C          108.37347829983072      120.25573582699140      104.30475048128456
C          107.33975128594430      120.77685482915669      103.31044853964229
C          107.45537485507026      120.08074046340607      101.95798213137127
C          106.44479600067930      120.61911926652054      100.94945816657335
C          106.61294206743865      120.02293965540322       99.55201712118452
C          106.29367382503943      118.53334805434963       99.43182135071550
C          104.80336963819140      118.22330913594612       99.53248273920441
C          104.49788928892639      116.73478481339305       99.37027315428330
C          105.01655363005213      115.88591666449297      100.52956225648417
C          104.49133626735684      114.45396215286995      100.46253889483962
C          105.01109226722025      113.57342907737753      101.60007144813115
C          106.46011053737330      113.12721522218638      101.41493174561543
C          106.88861435473900      112.11271776665343      102.47273579047375
C          108.31883285780724      111.62823945916470      102.25329335993794
C          108.73367568979795      110.54983593816291      103.25209610003995
C          110.17839558356580      110.10831823211429      103.03150296940765
C          110.58810858849758      108.94699078255523      103.93563826109794
C          112.10153178582156      108.72780707738188      103.98395809881551
C          112.72496335593419      108.44302832877659      102.61899928993776
C          114.23678187115638      108.21686178006983      102.69714270374185
C          114.62555747823789      106.81280231176871      103.15265371363503
C          116.12836039235093      106.69814379564406      103.39752092559816
C          116.52172358533372      105.29707132382178      103.85543371604814
C          118.01283775136751      105.13700317629657      104.14447557637185
C          118.53942540229882      106.06683437918552      105.23778394709525
C          119.93761776398330      105.64197934453682      105.67994938298045
C          120.59686307727061      106.59190461017413      106.67742265728009
C          119.85159679242896      106.70585484351062      108.00541671977982
C          120.73292003576918      107.31804069003753      109.09194387482628
C          119.95117173072956      107.61719542463673      110.36728646332872
C          120.82225678016722      108.26240113907583      111.44265765363130
C          119.98831935801711      108.77111604434465      112.61454713964105
C          120.83203474469173      109.47122441769542      113.67447198797318
C          119.98943675289956      110.12619393908648      114.76958953855198
C          119.27867836116091      111.39990714163729      114.31616433970692
C          118.45335249550109      112.01362293807010      115.44597604488374
C          117.94220068813344      113.42270993362696      115.14191653195856
C          116.89581315816528      113.46327343700646      114.03003924764451
C          116.35129183018923      114.86824674425327      113.76194740624317
C          117.37653782333459      115.77873151226102      113.09030832261914
C          116.87590148815929      117.20268747978470      112.84969942433611
C          115.79287030369215      117.31974811968115      111.77765134994884
C          115.55115032104044      118.78352557317918      111.41705341539867
C          114.48016258988038      118.99164124885776      110.34667710651806
C          114.45277328545960      120.44902373798020      109.89013069270483
C          113.39377708184064      120.76611424012583      108.83809213455227
C          113.57843387143359      122.18326347667836      108.29702346721240
C          112.57745327870030      122.54844592291604      107.20393368811085
C          112.80128513347186      123.97319173669196      106.69765263711504
C          112.01808357303915      124.30507148853958      105.42671587023808
C          110.50482168048519      124.23404842204270      105.62078685131635
C          109.71358377658066      124.86861572436436      104.47579546076490
C          109.89195761158676      124.16455710821508      103.13134745647675
C          109.01833610067393      124.79882169650111      102.04970083659015
C          109.22538742550967      124.16857999369145      100.67299529956163
C          108.40810028554284      124.88942402537998       99.60147793129923
C          108.66082980599211      124.38372534764858       98.17939574883761
C          108.12138361695102      122.97596366608714       97.94161151190288
C          108.21378462243193      122.54105870207549       96.47943168537130
C          107.64951912589244      121.13453646977392       96.29454273057699
C          107.66016830214788      120.65546056559963       94.84561974701602
C          107.24884177119023      119.18731858251728       94.71347226601412
C          105.79410651589708      118.91865790142012       95.09599562515923
C          105.43054855808911      117.44097858262677       94.96202940887436
C          103.96444133429054      117.17562334105871       95.29958229966259
C          103.62681697409860      115.68717287181022       95.25332953133109
C          102.14756103402446      115.41409063274112       95.51664642029657
C          101.84138982372427      113.91829645748969       95.54296735413041
C          100.36808832193437      113.62338592834985       95.81480124525986
C          100.08074091736427      112.12276222176955       95.86722540257578
C           98.59946668827769      111.84168502438690       96.10910268392036
C           98.18427858247320      110.37647324118305       95.94266579855457
C           98.54449811590554      109.44940409369521       97.11024913059148
C           99.91379094163760      108.78083108656644       97.00615305723340
C          100.12672933363190      107.76029084091483       98.12473853534172
C          101.49579064174878      107.09065453740962       98.03571586910012
C          101.72941727435131      106.07128108042807       99.14973309379711
C          103.10935851591638      105.42298640356155       99.04484971470703
C          103.39534597165647      104.45526364468761      100.19171534079868
C          104.76429638364309      103.79201174699014      100.04965734943877
C          105.11702585187469      102.91067871448374      101.24635238979612
C          106.46108745388059      102.20862522650911      101.06304303530513
C          106.88120725681816      101.41444130162425      102.29800656750464
C          108.18968518491630      100.65958114557547      102.07376233792834
C          108.66707920880566       99.92970459244209      103.32713497920085
C          109.94085646802795       99.12850554231673      103.06947442951603
C          110.46258121978376       98.43855653926086      104.32745355502458
C          111.70703076034371       97.60273311777843      104.04050380635580
C          112.29306006074448       96.96930427325955      105.29964791446612
C          113.50749019294719       96.10336290609922      104.97338246188804
C          114.21057720840427       95.53511612640480      106.20514917624611
C          114.92885763154914       96.61552219165631      107.00570560934970
C          115.77764090960375       96.06103148787432      108.14516788872770
C          116.42693081584312       97.20044849361356      108.92282082128864
C          117.26582530481468       96.73796958682578      110.10901137805126
C          117.75481083207063       97.94067086346453      110.90981637010842
C          118.50291521777901       97.56303325612700      112.18286801658853
C          118.88804461529681       98.81219054037817      112.96930030507497
C          119.55888973140566       98.47966904459228      114.29721284333567
C          120.05708568155454       99.71787291238299      115.04088535829102
C          118.96555073667240      100.68174956872289      115.50644531864218
C          118.13064215297683      100.14469690691222      116.66661168553198
C          116.89042856721730      100.99401097393525      116.94659480560971
C          117.20853507034717      102.43579169560789      117.33267290204238
C          115.94384699998250      103.25052016657504      117.58833446993451
C          116.24519187910028      104.73246945414671      117.79265528386921
C          114.96851690801265      105.55037145797431      117.96169136289691
C          115.25987537294159      107.02985399053523      118.16799300693775
H          114.34369626874279      105.42581783127986      117.07419235514934
H          114.40309122149128      105.16651170134021      118.81352054682182
H          116.87793570970246      104.85802639877075      118.67474145743284
H          116.80324705460528      105.11051868009190      116.93212376995739
H          115.27210801277083      103.14030639115377      116.73406939760366
H          115.42521311141918      102.86046842026390      118.46641426203522
H          117.84052258443401      102.44503324112814      118.22363383433679
H          117.76567134569639      102.91167705169981      116.52394802743886
H          116.25725146490872      100.99904057113285      116.05487611024006
H          116.31496806760489      100.52981167701286      117.75127005639160
H          117.80189216267581       99.12958542589730      116.43511917325245
H          118.75101449521081      100.09313704654947      117.56368386286617
H          119.45117923254517      101.60857179170736      115.81699155223663
H          118.30922423698922      100.91867619640082      114.66736180375381
H          120.63565174795421       99.39569039471871      115.91099190119964
H          120.72897493560053      100.26517866646581      114.37457680989330
H          118.86386451370258       97.92119947757406      114.92483050314902
H          120.41508644747724       97.82775000844326      114.10429652308677
H          119.56135274979505       99.42472641624633      112.36558910956931
H          117.98296327225435       99.39490902983243      113.15074774969847
H          117.86513153024920       96.92783894778461      112.80273401982213
H          119.39820504014706       96.98838668762008      111.93426959996718
H          118.40388229876147       98.55163293247026      110.27903797685194
H          116.89273921216861       98.55337470768930      111.18300874374840
H          116.66432350280962       96.08801048875483      110.75017458082260
H          118.11937765951437       96.15431845175667      109.75792296385953
H          117.05572435274853       97.78228320674718      108.24575578230093
H          115.64168196395234       97.86555521077435      109.29020240477696
H          115.15205148709870       95.46468111878370      108.81469972749026
H          116.55301116256199       95.40619320108618      107.74149622791283
H          115.57312467687190       97.18612047892263      106.33372097957752
H          114.19426646071391       97.30652230490948      107.42353156326020
H          113.48607807133276       95.02046040420836      106.83999061796841
H          114.94783433955706       94.79722603954488      105.87716712026572
H          113.18225010793059       95.27602029450458      104.33726711333321
H          114.22642974079906       96.69399047473007      104.40133506227211
H          112.57914190618314       97.76274953070225      105.99216801763707
H          111.53311211024423       96.35625992437608      105.78890999206823
H          111.45203201077166       96.81513792871166      103.32656931554038
H          112.46561605617114       98.23385503738912      103.57067682491729
H          110.69769091219104       99.19327666187189      105.08213400080155
H          109.68276714030745       97.79265188506248      104.73700435841593
H          109.74110529160460       98.37360619987288      102.30437328992723
H          110.71378515365465       99.79264780588963      102.67485234439064
H          108.85083426486204      100.65684480662625      104.12188881878464
H          107.88188042493893       99.25319411316454      103.67236556169168
H          108.05261888695910       99.93433597586551      101.26744562638906
H          108.96176584418653      101.36123215997820      101.74876602968899
H          106.99790810828800      102.09647389003543      103.14370398703522
H          106.09394443318050      100.70128862664008      102.55335218380222
H          106.40183262357016      101.53421349915222      100.20510604578315
H          107.22832361506569      102.95272073864187      100.83522775219355
H          105.15254184926557      103.52673032373815      102.14819293851207
H          104.33494926473016      102.16083381847648      101.38715875982852
H          104.78156934271077      103.18921678261906       99.13829113418798
H          105.52762015891633      104.56613782613240       99.93681407404418
H          103.35515106920093      104.99881187956531      101.13878119913267
H          102.62054557288339      103.68508507601089      100.21855629521394
H          103.18932327338989      104.88980232344959       98.09421661828188
H          103.87252475055854      106.20564783843908       99.03791389286754
H          101.63626372814831      106.56644357889454      100.11924936873051
H          100.95939404047303      105.29699509453280       99.09993782538555
H          101.58155191012133      106.59184296005061       97.06945322914019
H          102.27532700542801      107.85570313261475       98.07748344772648
H          100.02633955224297      108.25576252955005       99.09268472117775
H           99.34821039352252      106.99563429577937       98.06664198923714
H           99.99198978267304      108.27310831316197       96.04208264983917
H          100.70611814465715      109.52910022074992       97.04425706708990
H           98.48464224932717      110.01087774872714       98.04413459935694
H           97.79567053284887      108.65479096542242       97.16172488219840
H           97.09716925998939      110.36095515304612       95.82684901900176
H           98.61003820663011      109.98248433142903       95.01704223143663
H           98.32543585183089      112.18237920544341       97.11061343467537
H           98.02310018337279      112.43616111309564       95.39436427019477
H          100.38194842509623      111.66760659134788       94.92039146846311
H          100.67999119339677      111.67400862307946       96.66013412253605
H          100.07659298585428      114.07941075326906       96.76336471338581
H           99.75997564248014      114.08028125640098       95.03009267303568
H          102.12634147062977      113.47684644436413       94.58524807478922
H          102.44952287697053      113.44496086871465       96.31726117010672
H          101.86433350189503      115.85788436505484       96.47391187828944
H          101.54577643450531      115.89543754138676       94.74229095737493
H          103.89734153070161      115.28507999187092       94.27422664691495
H          104.22692061145050      115.16218390058852       96.00059280189386
H          103.74951013499842      117.56208377634806       96.29903407958085
H          103.32801814370630      117.71424596229473       94.59329476657456
H          105.63143065420131      117.10734417530405       93.94091233326678
H          106.06507039364753      116.85345178586583       95.63001946106978
H          105.62118084262571      119.22706003959708       96.12814100720678
H          105.13841347081636      119.51319434877527       94.45527413181463
H          107.40539378710284      118.86799487540345       93.68001773567941
H          107.90293587654016      118.58129924000706       95.34535543077963
H          106.99029814133144      121.27757443355161       94.24770800362158
H          108.66856652259482      120.77169903655040       94.44075208552329
H          108.23402152968120      120.43745005336305       96.89824206844533
H          106.62560898117164      121.12441760185334       96.66944160306086
H          107.65690468840404      123.24278346272658       95.85377372358657
H          109.25661162945573      122.56564908779092       96.15417906885264
H          108.67559642597419      122.26529936334236       98.55549880205967
H          107.07568674499321      122.94009745422115       98.25573370741971
H          108.17671909521790      125.06779076032522       97.47748785761694
H          109.73324045207293      124.40597306824216       97.97112546981042
H          107.34471154608481      124.78878097543574       99.83296768894779
H          108.65233336143197      125.95428795414465       99.63922756766684
H          110.28487204439071      124.22023371063548      100.41020603787295
H          108.94195827721653      123.11579949818432      100.71309917083802
H          107.96620254658814      124.70830227230034      102.33227667648391
H          109.24944247848939      125.86554790554089      101.99087000904345
H          110.93718194744443      124.22717149258034      102.82302211752184
H          109.63534718625549      123.10809190633520      103.23733598557172
H          108.65186085188006      124.85744441228768      104.73832145332882
H          110.01193419926653      125.91484574069412      104.37152137582281
H          110.20363570860509      123.19251127041605      105.73331682420107
H          110.24687349581373      124.75740091963425      106.54564705040318
H          112.28761148124792      125.31532745309194      105.10831436518534
H          112.32077037410592      123.61690835408960      104.63490987776441
H          112.53175064153734      124.68205688904186      107.48490576958460
H          113.86619054787506      124.10693167695561      106.48877259714661
H          112.68276085965287      121.85163434325774      106.36924990852499
H          111.56481995965984      122.44669183140913      107.59532100238283
H          113.48600139512340      122.89697768705066      109.11865608967545
H          114.59152804489544      122.27773712552141      107.89634670720619
H          113.47578618476153      120.05411878024128      108.01699735793771
H          112.39715460786522      120.66261856436056      109.26854362024417
H          114.29557973499236      121.09341524542612      110.75880773799771
H          115.43051072841696      120.69738285045145      109.47129543232832
H          114.69271475364715      118.34814280479583      109.48958644232539
H          113.50356950776390      118.70699627761691      110.74076629774865
H          115.26812171533967      119.32975588352431      112.31988983204162
H          116.49251872426250      119.20963760939391      111.06132071265938
H          116.10629154034072      116.77533821535268      110.88328727717651
H          114.86420201907660      116.87336313598747      112.13462841812724
H          116.49605243262738      117.61624136410867      113.78725576228733
H          117.72763430389085      117.81625080152774      112.54276977791044
H          118.26703103275580      115.83414601875421      113.71983392682667
H          117.67257961973368      115.33882881818555      112.13590105064195
H          115.47591887329121      114.78344906878053      113.11401445478393
H          116.02643118619203      115.31476539875790      114.70489621600123
H          117.32413179807924      113.06827661403146      113.10656131503309
H          116.06511181655529      112.81145175091058      114.31368529294291
H          117.49696752942367      113.83597373291424      116.05086362144176
H          118.79174899039353      114.05449006183882      114.87647466842080
H          117.60922192418542      111.36056492390543      115.67580209368701
H          119.07900773602562      112.06377693070486      116.34087674846275
H          120.02650148828158      112.12403190279929      113.98466819126912
H          118.63155279564747      111.17810558553617      113.46759056053661
H          119.24927083209705      109.41013709035199      115.13055005594072
H          120.64273326184734      110.37715966767402      115.60959395200744
H          121.50193621675396      108.73774266366739      114.13151739476363
H          121.45301587963310      110.23002103854417      113.19587077271460
H          119.24284451101128      109.46955027851796      112.23079129712058
H          119.45617916443392      107.93486377762092      113.07385828161073
H          121.56003852540027      107.53969113821550      111.80033396426472
H          121.36843118540828      109.10083756424321      111.00376904713649
H          119.12699395955548      108.29309263582604      110.12486788553375
H          119.51614851489208      106.69273953685487      110.75435820769435
H          121.55566803875882      106.63540068841608      109.31907529867145
H          121.17449903777641      108.24541848155245      108.71826595365521
H          118.95882325141281      107.32181254176916      107.87698125818518
H          119.52414376292735      105.71583612225369      108.32657376917039
H          121.60500059932541      106.22432169631695      106.87736774753571
H          120.69114961244620      107.58571703862172      106.23215711587923
H          119.88454396180332      104.64594840871604      106.12384864620473
H          120.57560551832101      105.56998725335035      104.79630696990283
H          118.57570150622921      107.09361146475655      104.86845470136939
H          117.85860167277272      106.04255189165066      106.09054180050256
H          118.19145489063978      104.10216666959384      104.45001076858276
H          118.57746809895042      105.30993080053280      103.22491070013419
H          115.95675533353733      105.04407583789427      104.75596799838496
H          116.23995326915853      104.57945536834846      103.08123367256786
H          116.66846441051300      106.94403000944665      102.48030075193803
H          116.41587809719252      107.42667153428532      104.15771587192205
H          114.09364046742731      106.56119395414677      104.07294409098222
H          114.32736832701893      106.08942309028288      102.38960969781697
H          114.67766366418317      108.39327114210748      101.71247346771263
H          114.67164521505212      108.94820317323597      103.38139377381884
H          112.24721300039825      107.56624154320127      102.17721883876271
H          112.53379799000841      109.29296220793250      101.96263427423769
H          112.57299711715265      109.61973512445799      104.40456001486044
H          112.31171618538406      107.89565872710000      104.65947095103436
H          110.23468304624900      109.14867831917921      104.95100981147552
H          110.09876849684299      108.03362349276236      103.59295954751340
H          110.30026843958126      109.81614415685657      101.98699751422384
H          110.83929637776016      110.95831794826489      103.22023126892243
H          108.61936376993222      110.93042509762252      104.26989921363631
H          108.07153913582022      109.68688069768530      103.14596871003280
H          108.40794110416927      111.22796479541522      101.24013693460313
H          109.00016271392708      112.47879306546956      102.33264792209161
H          106.80740230470933      112.56265535191272      103.46451054147060
H          106.21056276065212      111.25575845635190      102.44579155805553
H          106.57457013790513      112.67872992331372      100.42539913333675
H          107.12465960158616      113.99114281789011      101.46453499807508
H          104.91826562704713      114.11895479239929      102.54170081690179
H          104.37918926160418      112.68473360210135      101.67692389964695
H          103.39941172502911      114.48193821456002      100.50572163150973
H          104.76808814254261      114.00761574188371       99.50456733467543
H          106.10658215789992      115.87217715367704      100.51495732682861
H          104.70195960115885      116.33801467381367      101.47394992496304
H          103.41562321317174      116.60792372920243       99.30119107579945
H          104.93157922192471      116.37586712903980       98.43374928098157
H          104.41479681408008      118.55862080843146      100.49608828107824
H          104.27646415323125      118.77925079078798       98.75199661403926
H          106.64894083901918      118.18438012274054       98.45909742879681
H          106.83790725460722      117.98245635787185      100.19806778082096
H          105.97315006585063      120.57265658064433       98.85823059371403
H          107.64664195049440      120.18321065387464       99.23767394498633
H          105.43295773695324      120.43881205449100      101.31716561263083
H          106.57443203185393      121.70237407061981      100.87437172926965
H          108.46532945706362      120.22727928037816      101.56567941897394
H          107.30649913483929      119.00824864100690      102.09919552939925
H          106.33767124635666      120.61654887353521      103.71444566419447
H          107.47294255210062      121.85310235316642      103.17598484443539
H          109.37698283272532      120.43224406131492      103.90859194448203
H          108.24331644244519      119.17786971790440      104.41784201858314
H          107.26236551366820      120.72188744778276      106.08616236619643
H          108.30748592921454      122.01736264012655      105.51662396671999
H          109.28764253720986      121.16493430010183      107.52774751119250
H          110.31067386440020      120.61311091053167      106.20098380113352
H          109.23555172385844      118.38811796833348      106.27239805951321
H          108.12073083308007      118.95644242664331      107.51299416784512
H          110.05230580215917      119.31588305492289      109.05571166609801
H          111.14236691530449      118.70296590119122      107.81385641445833
H          109.80037269163277      116.57036481283185      107.76494583265425
H          108.84955036327374      117.16890296044737      109.11909797595381
H          111.86676491328934      116.73745082403610      109.18599034171514
H          110.67177936937053      115.56393893779369      109.73248392389512
H          109.81927339210492      117.34663470873407      111.35915233827100
H          111.25327590219817      118.28666607469772      110.95274440427387
H          112.64963834843886      116.24379641229487      111.55538080932448
H          111.16571265440297      115.47795729874015      112.12139644700522
H          110.88354423414741      117.43182952076590      113.73505800238155
H          112.46842506079443      118.00178575978632      113.21484024321025
H          112.95330890108093      116.77662680468816      115.16599949394852
H          113.34224000024362      115.64728960462433      113.87468591608717
H          111.06046985023990      114.60745373891309      114.17228146892117
H          110.78749588204619      115.69336342361822      115.53612894515911
H          113.00086740305963      113.59731224276425      115.32750969090986
H          112.79724287473807      114.71006980199967      116.67842434600374
H          111.56087266536633      113.49442072612604      116.34167645577924
H          115.80540193918576      107.43230877274974      117.31741443183661
H          114.33626513450683      107.59328957907157      118.28124137736071
H          115.86330234317170      107.17862245443921      119.06018741916547
C          111.82832289735663      111.05799794924839       96.28355879956281
C          110.94142896037800      110.62510410935342       97.44491925244544
C          111.07432672715865      111.52899712257998       98.67013510100180
C          112.42716154765280      111.44235928212244       99.37390846414564
C          112.43952878414019      112.32420323699527      100.61937449210382
C          113.75001456395525      112.27049054272595      101.40383049330194
C          113.60428100248018      113.04502323690046      102.71119253152983
C          114.85579754915237      113.09920664764151      103.58527065849501
C          115.29464334383043      111.72982311659588      104.10345202613914
C          116.20725713620382      111.84295475683656      105.32430381927473
C          116.83903242336348      110.50361112714963      105.70050971413761
C          117.55105180548706      110.52792543302301      107.05404775340203
C          118.73519363382610      111.49101957522379      107.09731121310443
C          119.63308916466084      111.29730678234175      108.32080589160041
C          118.94261955496485      111.48937480000195      109.67226471819340
C          118.31796544225725      112.86796715609698      109.88600462904249
C          119.30436536217026      114.03512908526777      109.91458069932020
C          120.28421457854975      113.97130585301326      111.08502888602895
C          121.03193316697727      115.29062354923155      111.27675422228282
C          122.20423276574572      115.17178942350503      112.25092023126756
C          121.77943598414900      114.93364129500856      113.69764529178713