3864
 energy: -5104.067984903138 gnorm: 0.000770373924 xtb: 6.6.1 (8d0f1dd)
C           36.33904669828810       40.30351444209467       45.72003179070889
C           34.99283705401815       40.14575474568743       45.41624257302825
C           34.44094407374914       38.87396267402909       45.50609841341272
C           35.22436736304521       37.78690036145309       45.84979670694252
C           36.56623160946546       37.95624315579146       46.14316098621750
C           37.12001149135451       39.22332810767890       46.09199634291025
C           34.17405512887325       41.34934668013407       45.01086290390387
C           33.37195858539097       41.05664084029153       43.74183854085624
C           33.29058324109699       41.80054546274901       46.19182165599808
C           33.00434741381476       43.31005590095417       46.19249029953773
C           32.12367866962701       43.70604743941872       45.03261916022979
C           32.63683998886296       44.47915960415081       43.99796950188770
C           31.84733227862426       44.85824175418656       42.92721487542519
C           30.52139139114315       44.46583677482640       42.87585518416975
C           29.99709647729792       43.69368421860929       43.89871311437899
C           30.79081974282928       43.31802269663446       44.96747856498367
C           32.35662901559047       43.78773031785804       47.50612588097905
C           33.26446405990494       43.83456572698483       48.75104081968578
C           32.46222080703137       44.42985969206393       49.88558526509426
C           32.02706143139717       43.62519431962959       50.92927632491476
C           31.27302867294935       44.14663043101962       51.96621813837588
C           30.95915846024306       45.49414036941564       51.98421310765681
C           31.38772776840728       46.30782111582977       50.94964253492916
C           32.12261415061359       45.77840890090387       49.90435300805160
C           34.55650248879598       44.62768148207302       48.52367836801760
C           35.40014719367651       44.78463873636055       49.79432607067871
C           35.83084522005637       43.47969253774738       50.41492918982995
C           36.02553405684861       43.41650757140039       51.79098633510311
C           36.58167082175822       42.29630576323332       52.38308172032647
C           36.91805249789790       41.19594143584903       51.61097609029540
C           36.65470833788477       41.21807768346903       50.25188814701443
C           36.13555787697049       42.35535813651976       49.65716115194850
C           36.67120905999342       45.60059442644717       49.47084165546973
C           37.32163136375465       46.22744979156456       50.70463575065077
C           36.42211376240529       47.19478046304889       51.44232713709914
C           35.37746411930340       47.88048621665482       50.83661897298565
C           34.59060915316689       48.76065191240260       51.55952048542038
C           34.85408949094268       48.99864683411461       52.89639887112369
C           35.91078998080018       48.34420268811109       53.50667126196992
C           36.67801310491632       47.44733268467353       52.78716933110511
C           38.61251635840899       46.99278411411850       50.35676457089495
C           39.73468371329234       46.17381399588091       49.70359878928688
C           40.90492983826590       47.07797615426709       49.39447599409768
C           41.57172106665338       47.76628496714633       50.40121065170485
C           42.65210576614889       48.57908079563593       50.11096316335235
C           43.10179173099235       48.69795303656763       48.80780092562337
C           42.45228674442684       48.01406410375537       47.79624667228723
C           41.35485353031127       47.22466655228155       48.08871381445284
C           40.17759627241410       44.99079119723001       50.57372080226227
C           41.21676335524595       44.11300300689505       49.86245898499646
C           40.63766263065911       43.54017255100469       48.59617034877613
C           41.20870313849875       43.83361642429085       47.36403118122360
C           40.65502438033106       43.34719024214439       46.19314285958708
C           39.52562016400845       42.54919219250983       46.24027691324558
C           38.96682200856669       42.22752456380825       47.46413199889368
C           39.51780791220080       42.71885286441378       48.63259278093980
C           41.71369507951835       42.98730898466988       50.78259480031419
C           42.73319018510949       43.49697916374609       51.81038241995509
C           43.99924398107332       43.88000985593801       51.08207167210266
C           44.91655065225841       42.92334510659420       50.66442544584506
C           46.06538573158753       43.28745826730726       49.98621835373405
C           46.30912243535919       44.61735009891515       49.68983055524643
C           45.39168825353799       45.57798917807960       50.07694000989105
C           44.25121082155015       45.21152099257683       50.76973644121427
C           43.01534254346156       42.48249706526340       52.92593677234842
C           41.80927852350887       42.14364767395775       53.81728195784743
C           41.03017232155658       43.36171617798588       54.23904464372690
C           39.70830905479852       43.52114884552820       53.84462744325059
C           38.95600072732405       44.59124440871778       54.29516795634973
C           39.51048638595159       45.51061809481609       55.16865103188419
C           40.83068345838309       45.36702227405584       55.56342988894234
C           41.58742845403686       44.31285085516596       55.08677924380532
C           42.31639005503104       41.39295786111505       55.05806255354172
C           41.19719013724444       41.04529163929789       56.04559864843145
C           40.22106445046442       40.07136072084428       55.43400547716790
C           40.63672998173256       38.83695897757066       54.94738364349482
C           39.73192036249735       37.96344105917596       54.37054774794252
C           38.39368555093056       38.30518934809641       54.27542191026052
C           37.96802814134297       39.52810644303523       54.76436188104588
C           38.87481354231612       40.40134201449686       55.33801682464970
C           41.75945797640523       40.49535132029107       57.36589270553928
C           42.53513941635162       41.55525290293738       58.18803072402925
C           42.02199114099924       41.58373275411758       59.60666123959027
C           42.24626881372615       40.53238642792645       60.48873790369692
C           41.71690563110349       40.55327042570079       61.76691984059361
C           40.94517465828001       41.62542565765951       62.17981716908385
C           40.71480097626554       42.68033472007038       61.31372943572855
C           41.25438906166707       42.65876079524723       60.03994916680827
C           44.04234190148068       41.28421777511754       58.11432808464613
C           44.91303516783697       42.27810070488147       58.89192074474262
C           44.55912504682121       43.72244139390103       58.62593140991996
C           44.60167696851166       44.25558712540765       57.34192386790345
C           44.33426397279383       45.59471466954089       57.12004975130767
C           44.02752980075906       46.42743963816491       58.18219055181400
C           43.98644282536354       45.91125756271904       59.46495667087775
C           44.24765906019648       44.56966257383915       59.68214700063352
C           46.40654989973596       42.10871974471148       58.55095786510550
C           46.98441481577837       40.68323944260636       58.62022560396326
C           48.36660878957952       40.71632763574559       58.01725456434367
C           49.35343912226994       41.53552790649376       58.55383295043727
C           50.58412062301388       41.65497700424063       57.93840285582812
C           50.85822035397719       40.94926415718010       56.78029499369531
C           49.89516499713146       40.10674111642697       56.25445649787212
C           48.66044075450264       39.99161200152194       56.86933848722480
C           46.97004786995054       40.12450881299512       60.04755243103678
C           46.85487309780197       38.58525264561084       60.10691486629302
C           45.84723013952447       38.23979342223831       61.17643744347595
C           46.00440836588557       38.72046589690143       62.47326083646005
C           45.03068647560479       38.50942081552325       63.43128181351509
C           43.88273845818392       37.80384051527552       63.11312646514937
C           43.71858492244132       37.31165491488203       61.83020551901483
C           44.69223652491225       37.53165510780826       60.87033222790031
C           48.21904831544059       37.91524130024538       60.33089635350515
C           48.23459310739948       36.43380222738713       59.91767029418041
C           48.11909459925144       36.28610206185424       58.42011045069862
C           47.02148222078898       35.64273441997484       57.86121593504884
C           46.94271122660732       35.42287085079214       56.49709234323473
C           47.95475303430973       35.86338040912914       55.66425678618856
C           49.04003526169269       36.52990574207289       56.20498409488512
C           49.12348852802298       36.73796324617612       57.57023127670710
C           49.51944408939634       35.75517590751187       60.42622907347414
C           49.68475243953649       34.31390566913650       59.91822313771234
C           48.52391941407726       33.44904828965654       60.35010016280076
C           47.66805471158487       32.89559142338820       59.40615103966501
C           46.60321913117577       32.10023511343164       59.79069423779327
C           46.38051665682365       31.83682965407020       61.13078352779834
C           47.23298481512089       32.37131012256827       62.08063794948245
C           48.29223042645869       33.16965080203108       61.69101764680378
C           50.99899253706374       33.67723265096968       60.40504093837413
C           52.28501779977969       34.24076556335690       59.77356985450817
C           53.46335097867133       33.73251763181283       60.57144274271890
C           53.99239562217939       32.46014785008065       60.38755596264138
C           55.08814822822866       32.03779736412709       61.11936441458303
C           55.65912160324616       32.87021200481683       62.06771042780579
C           55.11902134463346       34.12565639502162       62.28884019469489
C           54.03516057513166       34.54811244265446       61.54010021580213
C           52.40860444079410       33.89746499672088       58.28421548439598
C           53.73544361181094       34.40274910390569       57.69804290106063
C           53.76707205225674       35.90910571299431       57.68197807657393
C           52.87311874435638       36.63432214185074       56.90295285008366
C           52.91061894752870       38.01617011427341       56.88255093654198
C           53.84571173572437       38.69826236205594       57.64169869863002
C           54.74682184950520       37.98357622245013       58.40975495218143
C           54.70940043162135       36.60111627165161       58.43036434580743
C           53.98390396413618       33.87521738250180       56.27733410664774
C           54.45610454917777       32.41289985514274       56.20854956004751
H           34.87618292127530       42.16253913959851       44.78649336456419
H           32.35341322594031       41.24299012879500       46.17763078262103
H           33.80789916902200       41.54896140256891       47.12049187433337
H           33.96052730556746       43.82815466977571       46.06660030070482
H           31.95858495650231       44.79161619811615       47.33960868741066
H           31.50809759703564       43.14195515487328       47.74302780031663
H           33.53570635560331       42.81113805111737       49.02936428066119
H           35.15983839951760       44.13843114961996       47.75759878196934
H           34.30143282949919       45.62506082100166       48.15945120809906
H           34.80893179273528       45.33426695995944       50.53399684196074
H           36.43421630529165       46.39031684067974       48.75571539424874
H           37.57939546390271       45.42518091523314       51.40309104118651
H           38.36207598673493       47.81696786639171       49.68347430298306
H           38.99167175330992       47.42750483506891       51.28399020991113
H           39.36683906066460       45.77455900409301       48.75432836320179
H           40.58883327055614       45.36471660803360       51.51254058237304
H           39.31100096301559       44.37570184260724       50.81849694836619
H           42.07280163796662       44.73778531262714       49.58718673717922
H           40.86271061466906       42.53685443524952       51.29284395966224
H           42.19086764480845       42.21436215318864       50.17384356120387
H           42.32488235676600       44.39622678916361       52.28300656126465
H           41.13376122136451       41.47825529993790       53.26882789770002
H           42.83014343941677       40.48348333478791       54.74106345698246
H           43.04515244248934       42.02476930482029       55.56370268262422
H           40.64975676005641       41.96528326676727       56.28113666255592
H           40.91870142522817       40.12845812900243       57.95897415353439
H           42.40610533139057       39.64191191163530       57.15451294344211
H           42.34206699433373       42.54191636910099       57.75312260470491
H           44.23312772756783       40.28564831909515       58.50937166362453
H           44.33839976327563       41.29129384438908       57.06621448784944
H           44.75914901404778       42.09530232392537       59.95951143839248
H           46.56865010217457       42.47762850377376       57.53453791058396
H           46.97488624786761       42.75550713606460       59.22294007862031
H           46.36773107260504       40.03561916635794       57.99436204956718
H           47.86471466059695       40.44836467686364       60.58210156462249
H           46.10828519874997       40.54515380300221       60.56710106956722
H           46.47195093148955       38.22479222082803       59.14563208655789
H           48.96910462106781       38.44817637319839       59.74127996895894
H           48.49071613403373       37.99544901403252       61.38673755377121
H           47.37859180257236       35.93206921442449       60.38354182696801
H           50.37934021806807       36.34573707214498       60.10384353593962
H           49.50036497112779       35.75334381500859       61.51849394049295
H           49.69484559891557       34.34023019488356       58.82473499710004
H           51.07065460096631       33.80039826232002       61.48878681957920
H           50.95710540438292       32.60290911101503       60.20562708101623
H           52.27355252615677       35.33254134598519       59.86357315128782
H           52.32876641806385       32.81851884503112       58.14454735755965
H           51.58000931556229       34.35875456728493       57.74445702630316
H           36.77867279667518       41.28928508290226       45.65428924081284
H           38.16209367682181       39.37149593658796       46.34111223718406
H           37.17848138688399       37.10560035891130       46.40423069262364
H           34.78154788652746       36.80339452959462       45.89102598509067
H           33.39235594102578       38.72136312447056       45.30193615125257
H           33.67582748131903       44.77672615306205       44.02866535184756
H           32.26641650792431       45.45778880192343       42.13177251792899
H           29.90025541859869       44.75833300533984       42.04243516893887
H           28.96311001116563       43.38228558792613       43.86352891538932
H           30.36626530554940       42.71460042363935       45.75613465277270
H           32.28607849482125       42.57713532903855       50.92589035426113
H           30.92309372338658       43.50619613967874       52.76494438174371
H           30.38268968730543       45.90258989255475       52.80060205549875
H           31.14335619075261       47.36042283435891       50.95175378477887
H           32.43084400054693       46.42975085417368       49.09920689969656
H           35.74083275803785       44.25767551252701       52.40669047740827
H           36.75418955312763       42.28429756821662       53.44926787772251
H           37.37870972822247       40.33155486324209       52.06836867542170
H           36.86311083146011       40.34774968570798       49.64468246764678
H           35.98073737756224       42.35766077670921       48.58881301620579
H           37.38771111637957       44.93120497502287       48.98978715769118
H           35.15393763240506       47.73126549021717       49.79201554821382
H           33.76430405294658       49.25483330913144       51.06848449314811
H           34.24293289715512       49.68475391750972       53.46515793464874
H           36.12922276412451       48.53001722216643       54.54897647060830
H           37.49159444833339       46.93027987379144       53.27582813249376
H           41.25600516540320       47.66705337785142       51.42977855218214
H           43.14894952613287       49.10807699765538       50.91263330833134
H           43.95626838615215       49.31836711380743       48.58088303912420
H           42.80142986281080       48.09305020873139       46.77615658053423
H           40.84275579059221       46.70851240816462       47.29012466934228
H           42.08999414026347       44.45893345785412       47.32375516910752
H           41.10445455518902       43.59220450232343       45.24238428876450
H           39.08587733991652       42.17720056279050       45.32676859175400
H           38.09442760940330       41.59505891041093       47.51418276529798
H           39.06376006805022       42.46460744347553       49.57925557287913
H           44.74066570440676       41.87809793292769       50.87096300676669
H           46.77372434276030       42.52143103144731       49.70372459609197
H           47.20348314448516       44.90761437410050       49.15877597708835
H           45.56734792025722       46.61824421438666       49.85014849983889
H           43.54648680677016       45.97530066675851       51.06854029855738
H           43.38554549361603       41.54643838730187       52.50419916126504
H           43.80788560738267       42.89784070762904       53.55357219411023
H           39.25234997790616       42.78915705887971       53.19269712063184
H           37.92618150092195       44.68603583149672       53.98344167328849
H           38.91721163506386       46.32839882045342       55.55313726113920
H           41.27192956554210       46.06283773033766       56.26305347651725
H           42.61573377360913       44.22336145467515       55.40055455080486
H           41.67770716932863       38.55304247344825       55.01221372695900
H           40.07402341779380       37.01194384084196       53.98957927150277
H           37.68465339942291       37.62670886879940       53.82250751455221
H           36.92609363261417       39.80346825129441       54.68969783361865
H           38.53629551512925       41.35964227650858       55.70848662058420
H           42.83392447201549       39.67985655616323       60.18144513003639
H           41.90655383881023       39.72641716042520       62.43582910317307
H           40.51685434395410       41.63666614570979       63.17193139428051
H           40.11664394318940       43.52295290382836       61.63213128296271
H           41.07354620252478       43.48624115833471       59.36718067421585
H           44.86218429479997       43.62534061209117       56.50264389885953
H           44.37682011331982       45.99264548937909       56.11642857056969
H           43.83482478754632       47.47678820300741       58.01149654140127
H           43.77245577172479       46.55739129248657       60.30295984477631
H           44.22243183513275       44.17789602050931       60.68965958137478
H           49.16122478562647       42.10582127812081       59.45067441343358
H           51.32392035173144       42.31936060506019       58.35539149467019
H           51.81624437556673       41.06029429944711       56.29451459209974
H           50.09674093464896       39.54705074262021       55.35221681260867
H           47.91736147380941       39.33009999328691       56.44718316640244
H           46.89278608236707       39.27401925715255       62.73832481008575
H           45.17059513659161       38.90416501651765       64.42711757283573
H           43.12005953183552       37.62942715011378       63.85741871560663
H           42.82178774088150       36.76656420188044       61.57483912396741
H           44.55049826341669       37.15304461309683       59.86653048932532
H           46.23111317301368       35.28861522162948       58.50895351664880
H           46.09770744839826       34.89300863486736       56.08338678311850
H           47.90264962095785       35.68292765478480       54.60073981363153
H           49.83154499859622       36.87883147337542       55.55723448083058
H           49.98791038336882       37.24707789095991       57.97242900126777
H           47.82979938829421       33.09813638497693       58.35725070203603
H           45.94651398040588       31.68414552204013       59.03996361678190
H           45.54991903533696       31.21674737325669       61.43406148182206
H           47.07120772376420       32.17225335682638       63.12937730753854
H           48.94292656525054       33.57818358548727       62.44859899804683
H           53.55740135114138       31.79133007805464       59.66053366384373
H           55.49790052335877       31.05189142463941       60.95118142936847
H           56.51726544382567       32.53868923407993       62.63290557888612
H           55.54554702519740       34.77319460615309       63.04254471405410
H           53.62298117655601       35.53412392277595       61.69676639551571
H           55.42210284064013       36.05322313373824       59.03187941566856
H           55.48428054035633       38.50334981058824       58.99939214572753
H           53.87384852304439       39.77837674171195       57.63479765751269
H           52.20524211248195       38.56074288762976       56.27402289739039
H           52.14106972619660       36.11669358526093       56.30067064397662
H           32.60265773416954       40.31196170589523       43.92865815796426
H           32.88533009036307       41.95589290292835       43.37573417120709
H           34.03071713022265       40.68021718938130       42.96035073956457
H           54.55043398315158       34.05964031876079       58.34115146731492
H           53.06638654622288       33.97317392630838       55.69319034096440
H           54.74257851322398       34.50055769415850       55.79929829821440
C           55.90140170599813       32.27844071151478       56.69695023932546
C           54.28146908161020       31.94171161237264       54.78554206055686
C           55.15052219727229       32.34199621869492       53.77635475896659
C           54.95328566944250       31.93120880823344       52.47041498166270
C           53.87319048074860       31.12647846664508       52.14577452236344
C           52.99413891749725       30.73496753518740       53.14034875697797
C           53.19964275538065       31.13847504791074       54.44731163141532
H           55.99111035575773       32.98228226589949       54.00259647500830
H           55.64575209601021       32.25020537346292       51.70527716678148
H           53.71097856601288       30.80734487498318       51.12546100524155
H           52.14519993467011       30.11301249893620       52.89898672534916
H           52.50468677317519       30.82721518278855       55.21484439711623
C           56.45438637264921       30.85642825676058       56.54867606897529
H           56.53799043917801       32.96544449485758       56.13749436157061
H           55.95863837140404       32.56653024039559       57.74846666445962
C           57.91520668139623       30.84379526755755       56.89557884706517
C           58.84819692947968       31.32444372917051       55.98250523169197
C           60.19231997486545       31.37562820345417       56.30564044278971
C           60.62288895329040       30.93672697846831       57.54663267210621
C           59.70492466075135       30.45322093626010       58.46175222957613
C           58.35945396656080       30.41446905826895       58.13890559359619
H           58.51278745279563       31.66057433381390       55.01100399715550
H           60.90583313407583       31.76127906442553       55.59119320001381
H           61.67038761610544       30.96877172290122       57.80389012197399
H           60.04030561584201       30.11328315742980       59.43002619952284
H           57.64534520556517       30.04184525383920       58.85984851453674
H           53.81326930059272       31.79861676563077       56.84779195198887
H           55.90255905168016       30.17775973447507       57.20229130303636
H           56.31663529165240       30.52394447045483       55.51728410241963
C           38.50011695305553       36.45905915147372       68.59218267964143
C           37.97681865728006       37.64735183101130       68.09863211681152
C           37.59910964416488       38.63214067101573       69.00364333659419
C           37.73745954988740       38.43166402412768       70.36459551266243
C           38.26190850074520       37.24406620649117       70.84533385032390
C           38.64431201284637       36.25720623392328       69.95365990031775
C           37.83884357993219       37.86158789860599       66.61286966743991
C           36.38933800499472       38.16491281359754       66.22953483325885
C           38.77216309387949       38.98606573968211       66.14617048714547
C           40.24801272644218       38.62488995514192       66.34786831973531
C           40.62776829927045       37.38423795972893       65.57542548263881
C           40.36174507391999       37.25843525739587       64.21607952563549
C           40.72854250544580       36.11506543745194       63.52827802449794
C           41.38672456917332       35.08685620134109       64.18111523133838
C           41.67797684333353       35.21048076953042       65.52853459545588
C           41.29526949282392       36.34756509310206       66.21706648660377
C           41.17988699787517       39.78704213607729       65.95082564734152
C           41.62749784890758       40.64921781539206       67.14136033244222
C           40.48149659789494       41.38748441074367       67.78161911701081
C           40.11186005407883       41.10402696995619       69.08994102910850
C           39.08232080823595       41.79577567638264       69.70359264585143
C           38.40585464797089       42.78976061932568       69.01791068405076
C           38.76040692159366       43.07815495728568       67.71033167484902
C           39.78478508416856       42.37943231899908       67.09882601164922
C           42.72161652036446       41.62026466968157       66.67367568001362
C           43.21380741160844       42.57767967910964       67.76413869376911
C           43.56109064310242       41.85572902886145       69.04298449800078
C           43.03315077714299       42.28940971476345       70.25191238477935
C           43.36679137733401       41.66049626722356       71.43826402915406
C           44.24502633394258       40.59093741535861       71.43343818102068
C           44.78627103067367       40.15639869912591       70.23560252556081
C           44.44454871929001       40.78228834875870       69.05081553718321
C           44.46240303664413       43.35639630469714       67.31638642534021
C           44.24897332114534       44.37385320906161       66.16895366283582
C           44.98303167469361       43.90394888083591       64.93266355091116
C           46.31787730091666       44.22886467321494       64.71634111627610
C           46.99796860549223       43.74909344698698       63.61185879437974
C           46.36629284531533       42.90939627103898       62.71108598050644
C           45.03849167447880       42.57618117551426       62.91208838411568
C           44.35495164646931       43.08410347904208       64.00150543871545
C           44.71602900363172       45.77377284606622       66.59028933108199
C           43.79152619437358       46.44908574118884       67.62015019532451
C           44.61072635499998       47.38132302995545       68.47607681628568
C           45.24626506186245       48.48803429088088       67.92690505434406
C           46.03947771005675       49.31052739701480       68.70593553992425
C           46.20961770529949       49.03749954435998       70.05255099093773
C           45.58544181037767       47.93538951806086       70.61058028199142
C           44.79621598075393       47.11232915694980       69.82615587963060
C           42.62987465596366       47.16566965978783       66.91914574721262
C           41.72363495456821       47.96775074148287       67.86812809679310
C           41.45227146624612       47.22567405046637       69.15302125645596
C           41.72878185123383       47.81807628235875       70.37782445912232
C           41.47229888079060       47.15257438919039       71.56389029422580
C           40.92785357962615       45.88063722660232       71.54225153459623
C           40.64012934444490       45.28143921801632       70.32752860899370
C           40.90167261865042       45.94850540302303       69.14467873308871
C           40.37180633175596       48.29094754942914       67.20822332605138
C           40.47360334875953       49.09253933186286       65.91000170992100
C           40.97927656188948       50.50721633409027       66.06273398134729
C           41.70304562422249       51.06759873048268       65.01490647232917
C           42.07740019480426       52.39729550706696       65.02714519644965