3258
 energy: -3427.718408752359 gnorm: 0.000828895521 xtb: 6.6.1 (8d0f1dd)
C          109.76538350820789      102.06605250798037      126.85985168521363
C          109.13207885206523      101.81833877401506      125.49589201375451
C          108.55417569469688      103.10370568084245      124.91031180101128
C          108.01379792787657      102.95322410364876      123.48898120576698
C          106.74794791531851      102.10571015958139      123.38955401769378
C          106.16701672941387      102.13128556280819      121.97692105220094
C          104.91226797415194      101.27098833642860      121.85110867498175
C          104.29094093821242      101.34971951645736      120.45863942608219
C          103.05632740718781      100.46041738561760      120.32697271380189
C          102.38277890901131      100.61545127156282      118.96573732191564
C          101.14287073351117       99.73642387205916      118.81830112826626
C          100.40812288422880       99.98630429759716      117.50155684369504
C           99.22611596318659       99.03654447746027      117.31885790382455
C           98.29696379662586       99.41259012103285      116.16259376935902
C           98.95245748650240       99.33087056286215      114.78492340872505
C           97.92321909157096       99.41711241127513      113.65843127693233
C           98.57336999490757       99.35022854482909      112.27858390531523
C           97.55003254023235       99.30795697554834      111.14538357948211
C           98.22608909422036       99.22789701831273      109.77892595475852
C           97.23117138347740       99.15353311421741      108.62357293707973
C           97.94002567426655       99.02310349385112      107.27730351711374
C           96.96564814817563       98.92292472991001      106.10658369127637
C           97.67952686379661       98.63684781211843      104.78699136547523
C           96.69619887010576       98.49925099595713      103.62651044259806
C           97.35985617293788       98.11725698103750      102.30157780449123
C           97.85259454047758       96.67189290279400      102.27534827428188
C           98.44728450899950       96.25744337664302      100.92890774337191
C           97.40542172222058       96.00530431110467       99.84128081802764
C           98.03580026707473       95.56815569525004       98.51759763604424
C           98.60345711274461       94.14879413741710       98.53880356338939
C           99.44838175946080       93.86822604958581       97.29873789880851
C          100.21333921104549       92.54962531921319       97.38475670246524
C          101.14333983220585       92.36572473081952       96.18722896210463
C          102.07015992418442       91.16319723642562       96.34873020324473
C          102.86710646271271       90.83533191054080       95.08391255246927
C          103.73873115941075       91.97395353798041       94.54976924657564
C          104.80493658076561       92.44760889039034       95.53561511695140
C          105.81316984593555       93.40756808400381       94.90140588750563
C          105.22501480982194       94.77468025875481       94.55728683367467
C          106.27408993454068       95.68915024326033       93.92796023453585
C          105.74547815138597       97.07879328246362       93.56854564234597
C          105.50309137365765       97.95230790705266       94.79615779680475
C          104.96187918660763       99.33728990566681       94.44698330205532
C          104.88654407129511      100.22442575093895       95.68726704846877
C          104.19602991759727      101.56228894638546       95.43690360988694
C          104.18149538830866      102.42189870543457       96.69904132234856
C          103.36167239216506      103.69950542527856       96.54353444391180
C          103.36488092723381      104.52687899515770       97.82806283625533
C          102.43162247847772      105.73818919789652       97.77269691326396
C          100.95404712319034      105.37804098881882       97.95700799654766
C          100.55688856065376      105.11640985654276       99.41273051030309
C          100.37633562915674      106.39982267682703      100.22098354081641
C          100.00528618937541      106.12344535258426      101.67703862911971
C           99.76136978356364      107.41463139809683      102.45667515542267
C           99.59429667266068      107.17524586104538      103.95595714968736
C           99.33410721477625      108.47361277873044      104.71763497147691
C           99.32587861048675      108.27534959042551      106.23190273252418
C           99.09675377675528      109.58703650989011      106.98022815745213
C           99.15839090419983      109.41424406634830      108.49661121254537
C           98.90690011606218      110.72691487239010      109.23612257302960
C           98.97028659270582      110.56158761279242      110.75347682304970
C           98.68554736438082      111.86845186566448      111.49131077144072
C           98.81817637177926      111.71898373422158      113.00585735231586
C           98.51832774355648      113.02078619757708      113.74617985590234
C           98.78857114787814      112.90969678868197      115.24586259628887
C           98.31638329638362      114.14571940407319      116.00865225567905
C           98.62112297680078      114.06226259738571      117.50321525711273
C           98.02745764209614      115.23815422377790      118.27607608602523
C           98.35821466939933      115.18696971570715      119.76642756358054
C           97.69255553398604      116.32167017720990      120.54115406629614
C           98.05953397597546      116.31751537775870      122.02477172030196
C           97.25040275731367      117.35528941103533      122.79987127357728
C           97.56739759011114      117.40334112374612      124.29616020273093
C           98.89805702809356      118.08261256040868      124.61543751842076
C           99.08336674986400      118.28572438943431      126.11891750309202
C          100.27200681739644      119.18282516949716      126.47071126186063
C          101.62928941484567      118.52574111648566      126.23470447647345
C          102.78431907970733      119.47403393317116      126.54880994574582
C          104.14365848237458      118.82154604213594      126.31031132712585
C          105.30202173547129      119.78012459766634      126.57644467513994
C          106.65859488232257      119.14341946151238      126.28315702221877
C          107.81248337869056      120.11903712849926      126.50169750779328
C          109.15990134116814      119.52716436709672      126.09439698362115
C          110.28382227919259      120.55772009050216      126.17736604134878
C          111.61051533134783      120.06544384615403      125.59701573484912
C          111.57217797653549      119.93049587655806      124.07801653241089
C          112.94929322193313      119.74233445757731      123.44867787832001
C          112.84325160652197      119.62008191988210      121.92905050025601
C          114.18264191218454      119.80622814548080      121.22476805698622
C          114.10844276430612      119.58124991846199      119.71123106833849
C          114.23703967091379      118.11010349012156      119.32181000301817
C          114.27969467160088      117.91020552050152      117.80854975313709
C          114.61735826975294      116.47261157605588      117.42229255579585
C          114.61785851986944      116.26452406851485      115.90963778937122
C          115.02663907843696      114.84548590026453      115.52495948665810
C          114.96324971371369      114.60685125122656      114.01832874404911
C          115.40158874995909      113.19257456439237      113.64819174154394
C          115.30443938874059      112.91956899820993      112.14950136938656
C          115.75705855627052      111.50424397669130      111.80012096894210
C          115.66012377300785      111.20952424401810      110.30567050175962
C          116.10625369326161      109.78804667999096      109.97290028260259
C          116.02888598105990      109.49008357378273      108.47802089721092
C          116.44432639741207      108.05803627730033      108.15095689721134
C          116.40680543494616      107.77782602732347      106.65120545381603
C          116.76433771775253      106.33234824412538      106.31547218869559
C          116.79336652481652      106.08970898082811      104.80911496459693
C          117.07144483924792      104.63319586967090      104.44812948559421
C          117.18382335437327      104.43728437274132      102.93883043256842
C          117.36789836778328      102.97600628056084      102.54068106330631
C          117.54783094490170      102.81750175107516      101.03340767229388
C          117.64238519284669      101.35825040135312      100.59777397396807
C          117.86780792218504      101.22786574790669       99.09402197203188
C          117.93272863680696       99.77619372064976       98.62665808522927
C          118.19990177666593       99.68216235884434       97.12704628621796
C          118.29413457253257       98.24479406320243       96.62116507867211
C          118.60548868876384       98.20708527471388       95.12741429735718
C          118.76072857654972       96.79298460116459       94.57425831581375
C          119.06744653146434       96.81783051946266       93.07856698194134
C          119.35675891949604       95.43355192688675       92.50643771995982
C          119.54904292441216       95.47411063984666       90.99536501554766
H          120.25706407696532       95.02518272264854       92.97342182817273
H          118.52905928498039       94.76420029912970       92.74771583303023
H          118.22045533509929       97.25570874294938       92.54542512675454
H          119.93100998302130       97.46436846977339       92.90008639545685
H          119.56760779233637       96.28000569922598       95.10397166624759
H          117.84363523312844       96.22410364965772       94.74926529604846
H          117.81085217354959       98.72061106575882       94.58007644290285
H          119.53287702687099       98.75780875260349       94.94635154109741
H          119.07919310869208       97.71790492382426       97.16856626222419
H          117.35323213702478       97.72402506410531       96.81366934939331
H          117.40575231156828      100.20223957036785       96.58487940791267
H          119.13832301716367      100.19626756976976       96.90177008715298
H          118.72884812425077       99.25942012582341       99.16755000831451
H          116.99147345685476       99.27406715553477       98.86124672044507
H          117.06317596752017      101.74169740523436       98.56197575428044
H          118.80403931981517      101.72662789726994       98.83000844892889
H          118.46800587965265      100.87828703713237      101.12812201910621
H          116.72141547867744      100.83750211983904      100.87187512630632
H          116.70941202945379      103.29242017440339      100.51883809153473
H          118.45757299840375      103.33956450201335      100.72663048376398
H          118.24305982985588      102.57013598648234      103.05318762696864
H          116.49525729056775      102.40091804193293      102.86332041827103
H          116.28494699439237      104.82817008077575      102.45785371965943
H          118.03177847870870      105.01756554606780      102.56669720620873
H          118.00026970916952      104.31188000296667      104.92494601564762
H          116.26389660500023      104.00509931878052      104.83594899003886
H          115.83529917926215      106.38715162449820      104.37788650041226
H          117.56276449124485      106.72284977873912      104.36006363120649
H          117.74177168756358      106.09175998207496      106.73965946265922
H          116.03069768487998      105.66443552394021      106.77615309332495
H          115.40771034174421      107.99757713837130      106.26785475657221
H          117.10426630803593      108.44826228158658      106.14255198506642
H          117.45431750610061      107.87904469519528      108.52656055476152
H          115.77398586209742      107.36381202828397      108.66551128879843
H          115.00701153773299      109.65705348359529      108.12800484832238
H          116.67460740680281      110.18612666772930      107.93661692234714
H          117.13315896885067      109.64260479979662      110.31624516601462
H          115.47484885616537      109.07870783255322      110.51498330327163
H          114.62793620423672      111.35127661673693      109.97390281194950
H          116.27773341066944      111.92240406845333      109.75373981873339
H          116.79073010445236      111.36668683846393      112.12675459923622
H          115.14082743871636      110.78677570348826      112.34845823595694
H          114.27070842279022      113.06095023545588      111.82119277846905
H          115.91691594066543      113.64295191033113      111.60579614779461
H          116.43328163836576      113.03968073518197      113.97468367345463
H          114.77685962137113      112.47359746071621      114.18426655147238
H          113.94000160746721      114.77204287677208      113.66851546276399
H          115.59918057376431      115.33252530320676      113.50555613345435
H          116.04421322485496      114.65721549427522      115.87650853575698
H          114.36713400610870      114.13415233008517      116.02814475686250
H          113.61842076602071      116.47081258763035      115.51610310582650
H          115.30076838075706      116.97908755433440      115.44357349316515
H          115.60355983623346      116.21807716335988      117.81920103548875
H          113.89170967079988      115.79535751776152      117.87930869498769
H          113.31135450026059      118.18066398715028      117.37928641752515
H          115.02447739274957      118.58232571684867      117.37496670724643
H          115.15669948295574      117.71171948307001      119.75807038352916
H          113.40173950626743      117.54205665397060      119.73613982883244
H          113.16830138340319      119.98577509516952      119.32769921977408
H          114.91622574777972      120.13580243161439      119.22817873712107
H          114.53196119265891      120.82483550636385      121.41830928109832
H          114.91213005312605      119.11790557963815      121.65521240678690
H          112.42723747004085      118.64340416549150      121.67888823776859
H          112.15029600339443      120.38130144128820      121.56390113767505
H          113.57945962126244      120.59814103586217      123.70476269007223
H          113.42911364586951      118.84972256036320      123.85761914093992
H          110.94157823517439      119.08433441443238      123.80474870740551
H          111.12172714239917      120.83184607084726      123.65736921147681
H          112.39045531260045      120.78004239744725      125.86806570424443
H          111.87098463832533      119.10273823784590      126.04318604725920
H          109.98031006657436      121.46195515994668      125.64237904993361
H          110.43025855578134      120.83509691149571      127.22398014810966
H          109.39675212865914      118.67920554152269      126.74079062719409
H          109.08059137274734      119.15174213395390      125.07266118746452
H          107.62750638911643      121.02032658337559      125.91095998718356
H          107.84554497077673      120.41835155166032      127.55244303742437
H          106.79454349201156      118.26837457034937      126.92325371975464
H          106.67343164820097      118.80079526867100      125.24528075554862
H          105.18218206501200      120.66936820763132      125.95182505622171
H          105.27107696017244      120.10648295860952      127.61930860305641
H          104.24114374819190      117.94870660019981      126.95865834548992
H          104.19537912489562      118.47393292569825      125.27558045654087
H          102.69729385345678      120.36510522596927      125.92130002062594
H          102.71513145883921      119.80004217438270      127.59010977143519
H          101.71234420568727      117.63529385249829      126.86194089382546
H          101.70738864610026      118.20800629704880      125.19483068201981
H          100.20879644471039      120.10161668953614      125.88179547728903
H          100.19956865826674      119.46579581374176      127.52453148685703
H           98.17620984401752      118.74604088073347      126.52027341473725
H           99.20027124889828      117.31551795585786      126.60785736728030
H           99.71701532639429      117.48267713882595      124.22084088915004
H           98.92619024076683      119.05665841542110      124.12099476031256
H           96.76868594099514      117.95548668259769      124.79927078087985
H           97.56774535302056      116.38857764053660      124.70120131375005
H           97.42159641128818      118.34425920890401      122.36710513210519
H           96.18849886669130      117.12556527175921      122.67557907103104
H           97.86542762112430      115.32654068931119      122.44176988761332
H           99.12580196733910      116.51856592347740      122.13474299310502
H           97.98292082987349      117.27952423577867      120.10114878524655
H           96.60735426845396      116.23310143373830      120.44003281851921
H           98.03146331851444      114.22891805601795      120.17720130027439
H           99.44008557475763      115.24796796361817      119.89983827714198
H           98.40339692139490      116.17412086931189      117.85448209299994
H           96.94149136883712      115.23735248827703      118.14952808546981
H           98.21889203312868      113.12867794199570      117.90351173181108
H           99.70384794887984      114.04226469891552      117.65052426364655
H           98.79648925794373      115.03415713192902      115.59162531453875
H           97.23798172183274      114.26040709792485      115.86970580760740
H           98.27809343912260      112.02814329642241      115.64092150035378
H           99.85994245599734      112.77012113498083      115.40700085998003
H           99.13320709645684      113.82314891586104      113.33106024721985
H           97.47186959776474      113.29356896163503      113.58549122889251
H           98.13462388741419      110.94070242798225      113.35332108839191
H           99.83166783187787      111.39514335804775      113.24725959131716
H           99.38122588024798      112.63737634339331      111.14392067701091
H           97.67636300360067      112.21067926952702      111.24679547063037
H           98.24404110717495      109.80697799464143      111.06489454757570
H           99.95983824199517      110.19709551546586      111.03644416991935
H           99.64945033771032      111.46492995087785      108.92145566862267
H           97.92389206985489      111.11536610327632      108.95607169230810
H           98.41424636743899      108.67697736540482      108.80764630811247
H          100.13938897345221      109.02366370960665      108.77671417806492
H           99.85358214918081      110.31187986895772      106.67216493090500
H           98.12103096833401      109.99512401354880      106.70245782761842
H           98.54374227178475      107.56155635522742      106.50217707015300
H          100.28114470009844      107.84607289424204      106.54148749866202
H          100.11045386216480      109.19844808085983      104.46144966822135
H           98.37682040129863      108.89588078759296      104.40007872809556
H           98.76617851971058      106.48219756844153      104.12473337716173
H          100.50077381937196      106.70648218031704      104.34396027586827
H          100.60591895246085      108.09078837310363      102.29784749613471
H           98.87024240030659      107.91186197486776      102.06422231154059
H           99.10611963921625      105.50284575464315      101.71178398792441
H          100.81038436735921      105.55938647330244      102.15285652734879
H          101.29956586741672      106.98315104949022      100.19559061613573
H           99.59301351299028      107.00684738471425       99.75859415451855
H           99.61475969250175      104.56232400144864       99.42804468524851
H          101.30957984686809      104.48870889866974       99.89240364276181
H          100.33527926153492      106.19121398701554       97.56891040599665
H          100.73051899619060      104.49049257800714       97.36217654093298
H          102.72336376664957      106.44889511972775       98.54793061575934
H          102.56103725805511      106.23687510567514       96.80871678878347
H          103.07506876322388      103.88805378318445       98.66324833158622
H          104.38456811921547      104.86974828694729       98.01848132926445
H          103.76693258763629      104.29799600973776       95.72338419129899
H          102.33681585355572      103.43132559107018       96.27784245493169
H          103.76544715735244      101.83692950892501       97.52223462812270
H          105.20733891201877      102.68246043229473       96.96911517209003
H          104.70849693511259      102.09714975024168       94.63352053471726
H          103.16878984301036      101.38022760401257       95.11022563791909
H          104.34549558603926       99.69184481951447       96.47259655234787
H          105.89796496984600      100.40349694906668       96.06021200874541
H          105.60539322727793       99.80820825959249       93.69949508321521
H          103.96759310073573       99.24062594742307       94.00297562808831
H          104.79547579165346       97.45885043865128       95.46472686091720
H          106.44437975203213       98.06495719652902       95.33883751706264
H          106.47650973015161       97.57617218122620       92.92505613569548
H          104.82040080230033       96.97928108462192       92.99449196752128
H          107.11870361906040       95.79720287552919       94.61378168217423
H          106.64612873766313       95.20846005940720       93.02010282293064
H          104.39605113689937       94.65417419219018       93.85790886231408
H          104.82922477720419       95.23004725322075       95.46739830641941
H          106.64709978024068       93.55075344973081       95.59421643914368
H          106.21744677732831       92.95326683254274       93.99349398336408
H          104.33149972698187       92.93948879270684       96.38743709802537
H          105.34325834518935       91.57437413195304       95.91465305997188
H          104.23522924532176       91.61896052659728       93.64194016625561
H          103.10256165665655       92.81171936109534       94.26485364602810
H          103.50378598334022       89.97079006045388       95.29185168056053
H          102.16614087102630       90.54211195151996       94.29714445237262
H          102.75599806654174       91.34584967604043       97.17827156540565
H          101.47170012635539       90.28604282888796       96.60990176533302
H          100.54610552215821       92.24772926520490       95.27954448356351
H          101.74481790804428       93.26989162247686       96.07694944073629
H          100.80718351658302       92.54261297663628       98.30216926963290
H           99.51158533237046       91.71405194562871       97.44077783871482
H           98.81279037804134       93.86672827996701       96.40993344164644
H          100.17039468410212       94.67931068766407       97.18234435965985
H           99.23185275598719       94.01679896636232       99.42116055887024
H           97.78799954527574       93.42436572163695       98.60360021926445
H           97.28762314197823       95.63464884337249       97.72310128408851
H           98.83996440509225       96.26422429061684       98.26767062850868
H           96.70348294799781       95.24032872104542      100.17610343950246
H           96.83757576674603       96.92201388454340       99.66884009784934
H           99.13537437908838       97.03422737034234      100.58619116598325
H           99.02663068076116       95.34572338668931      101.08256809927983
H           98.61939704538125       96.54391797802599      103.04158805478727
H           97.02476843262575       96.00276383696799      102.52300403532313
H           96.63769604636565       98.25968354118105      101.49484904883704
H           98.20200034580471       98.78813325759960      102.11229344811038
H           95.94535643183923       97.74498740610269      103.87802183554028
H           96.17203701538710       99.45096491141827      103.50372925728398
H           98.38386393820390       99.44431600636527      104.57030840747714
H           98.25682065070966       97.71668653733751      104.89301460397971
H           96.24975648244404       98.12019338114388      106.30425593514944
H           96.39912754576757       99.85342738401285      106.02198854060656
H           98.59684046012539       99.88353152128100      107.12993684308894
H           98.57017445101263       98.13013948845179      107.29300600030258
H           96.57181992521342       98.29334905743117      108.76865713896639
H           96.60629937553330      100.04934824190238      108.62138340982879
H           98.86645911036706      100.10188385296600      109.64354837541060
H           98.86685442623045       98.34211909557108      109.75254677258825
H           96.89878293931000       98.43979398977386      111.27851037881007
H           96.92135962863070      100.19990346559693      111.18888847503271
H           99.22045554013378      100.21957993765744      112.14360909550588
H           99.20221908478067       98.45715562452656      112.22383778729103
H           97.21229307643537       98.59250325825306      113.76091265395299
H           97.36013666892532      100.34840795111091      113.74994715501634
H           99.67712822820913      100.13967580733937      114.67203755743880
H           99.49349805070443       98.38594645718315      114.69850163310691
H           97.44008164770578       98.73309333018365      116.18116827287967
H           97.91445491691816      100.42340829919863      116.32156565959625
H           99.60120875144845       98.02171220403808      117.16437704530608
H           98.63780266518091       99.03108692818670      118.24098339107452
H          100.04315086141173      101.01638497855782      117.48722545493287
H          101.10825434482975       99.86882191128377      116.67312574487096
H          101.43401712572987       98.68428293688655      118.87628414591590
H          100.46153069332166       99.93034322824677      119.65152401600854
H          102.09743746139320      101.66010306256220      118.83506558542958
H          103.09625988036841      100.36669760635293      118.17741643751287
H          103.34256600416536       99.41622896571759      120.47992067519364
H          102.34135326414186      100.71962666664840      121.11259937858246
H          104.00949301072129      102.38472997929144      120.25016212593712
H          105.03157494180802      101.05312523737048      119.71270360182623
H          105.16316881210558      100.23128304998852      122.07906570837447
H          104.17673013939346      101.59814069445783      122.59098080839705
H          105.92228849396930      103.16263764569968      121.70832837569890
H          106.92152714345585      101.77740817880878      121.26982556565297
H          106.96746907047617      101.07258495298359      123.66780478477428
H          106.00181457782941      102.48618226463955      124.09206495804740
H          107.79221574379706      103.94997813114523      123.10028706736634
H          108.78638394009975      102.51751118506004      122.85042041926266
H          107.75686267507091      103.46564396191557      125.56323585631667
H          109.34309325301227      103.86153524142351      124.90236351173984
H          109.88947257410487      101.41928957862987      124.81703076746143
H          108.34493314306526      101.06848541279560      125.59503706100050
H          110.16734148045613      101.14340937576080      127.27254937386958
H          110.57682531701974      102.78629935829409      126.77612359162937
H          109.02952880496349      102.46205528776193      127.55684813913042
H          120.38034873620362       96.12508889508497       90.73175469017418
H          119.75808601597130       94.47958655522996       90.60665772004751
H          118.65233170833145       95.85135718622404       90.50749010042718
C          111.52346333795319       95.61126778217152       89.42017533235710
C          110.44851493225234       95.90558541525233       90.45982149633353
C          110.95699569212604       96.84301404074471       91.54934425384498
C          109.88355772453758       97.21632424389890       92.56712465445247
C          110.47630416831281       98.04667575179562       93.70079772253365
C          109.45059681726173       98.46434428227094       94.74937567270983
C          110.09424539685847       99.34007197175980       95.81999529938480
C          109.09813326423981       99.90572885444043       96.82718300005131
C          109.77921568455173      100.88193538442049       97.78163746252790
C          108.81346294240575      101.54954039456283       98.75454108819025
C          109.51290421226072      102.61163302817108       99.59802690247056
C          108.56164775070675      103.31423898694517      100.55988682818510
C          109.24689428633567      104.42757485927217      101.34602518941209
C          108.28185020115684      105.13409125834923      102.29204038548052
C          108.92949083414112      106.29848464641583      103.03417667830162
C          107.93667721055110      107.01117920702131      103.94669604453507
C          108.55627051790587      108.19696759360919      104.67916684508597
C          107.53739784937706      108.91266916381598      105.55984622550238
C          108.13154259675093      110.10473179835914      106.30384742732154
C          107.07954495574575      110.81982414441657      107.14503982081600
C          107.63569554021481      112.01332808010366      107.91587346645119