3258
 energy: -3427.714007508465 gnorm: 0.000899944517 xtb: 6.6.1 (8d0f1dd)
C          109.76416852460730      102.06653969024617      126.85966322427656
C          109.13136839273655      101.81755217971006      125.49587096579840
C          108.55339651515895      103.10302940865596      124.91053947880718
C          108.01301257194345      102.95245133246516      123.48891390362782
C          106.74699623824402      102.10477013171342      123.39008066507553
C          106.16626489640053      102.13054517155277      121.97715926704041
C          104.91111857673241      101.27044501654777      121.85171924968530
C          104.29024441175858      101.34931561548562      120.45882796730386
C          103.05525833946385      100.46015411415640      120.32761492977305
C          102.38209312334382      100.61513487060306      118.96598149951123
C          101.14200404845344       99.73607033135451      118.81870552396929
C          100.40777996331128       99.98617741628965      117.50154454014243
C           99.22575191956834       99.03619006312101      117.31888175434413
C           98.29634717406707       99.41246088799248      116.16300041208888
C           98.95198860984573       99.33049664642215      114.78525777306864
C           97.92237369962568       99.41667382598391      113.65892058032153
C           98.57291212764567       99.34958470662633      112.27907121702731
C           97.54930724977143       99.30758023815039      111.14588315169632
C           98.22581241648261       99.22733759617594      109.77944900002940
C           97.23059591454518       99.15325190742416      108.62408061244447
C           97.93985214174403       99.02249132084431      107.27784883321219
C           96.96510505712833       98.92262129731174      106.10715806514604
C           97.67936710515367       98.63596282945521      104.78769250955415
C           96.69565284587682       98.49878337088204      103.62719190926796
C           97.35939017531322       98.11719235774657      102.30204843162923
C           97.85190067396090       96.67153724587186      102.27622052823637
C           98.44683567863846       96.25720289784407      100.92958669801948
C           97.40478158837507       96.00517122064608       99.84180661936016
C           98.03567492538012       95.56785431070951       98.51832462175156
C           98.60355832021980       94.14841360663256       98.53955519160537
C           99.44855724493367       93.86898200943646       97.29909654912315
C          100.21361464479591       92.55037986232507       97.38483576278615
C          101.14338057395199       92.36744333850898       96.18689928473626
C          102.07028643828416       91.16495522222810       96.34823109294425
C          102.86660755094023       90.83725400950186       95.08311269370141
C          103.73782688478168       91.97597141883732       94.54861329321297
C          104.80417528241014       92.44843281835504       95.53501764181696
C          105.81314686882907       93.40801721604227       94.90127734662008
C          105.22456120564503       94.77526207017195       94.55723085882892
C          106.27374629268111       95.68988852545537       93.92767665659474
C          105.74505011694873       97.07967928167241       93.56796936185020
C          105.50287055235508       97.95301842425334       94.79608165742791
C          104.96120270387974       99.33799006138159       94.44657562371110
C          104.88603101648201      100.22500714332757       95.68725149052403
C          104.19501170711207      101.56278353263683       95.43660081990518
C          104.18079306428299      102.42211606445191       96.69916375086233
C          103.36041881219138      103.69953013969641       96.54356571191970
C          103.36430816586669      104.52656777455084       97.82847525200118
C          102.43066616247978      105.73777315459772       97.77321173734126
C          100.95346381272739      105.37694737368713       97.95815250593590
C          100.55629424187590      105.11548301511385       99.41394946120124
C          100.37608388679716      106.39952424449140      100.22150871551941
C          100.00487201215483      106.12311865130876      101.67765303064753
C           99.76130823158584      107.41477117153899      102.45694322156838
C           99.59420200834114      107.17513897247794      103.95636983435752
C           99.33425216966462      108.47390260105050      104.71784106488136
C           99.32602786014631      108.27524011456228      106.23225800199332
C           99.09681138283871      109.58731092493713      106.98033298380047
C           99.15862889091805      109.41434019174210      108.49688046018161
C           98.90722534101513      110.72743256617838      109.23611636315216
C           98.97073502039122      110.56182330227627      110.75363639991737
C           98.68606338090326      111.86904387140329      111.49129647966734
C           98.81848103771057      111.71924691544420      113.00600313844996
C           98.51895661605421      113.02157170225227      113.74594661352556
C           98.78953100823334      112.91020864847378      115.24571897866237
C           98.31692118524673      114.14637291644209      116.00842476550774
C           98.62162765213927      114.06273813535005      117.50316406832465
C           98.02788222505917      115.23899053628658      118.27581127909497
C           98.35864291151104      115.18741670650655      119.76629869898051
C           97.69313282011196      116.32240842079311      120.54098611193059
C           98.06007193074996      116.31741045910782      122.02470178323667
C           97.25093290179423      117.35530779042853      122.79975793179113
C           97.56805261001209      117.40305282969122      124.29587020412411
C           98.89878738611131      118.08236764005308      124.61488687715544
C           99.08405609621347      118.28517391437146      126.11844300048543
C          100.27250048954724      119.18237149693967      126.47001973501460
C          101.62971318531265      118.52497159512217      126.23394736907781
C          102.78464948115793      119.47362610539481      126.54762460463692
C          104.14393247459894      118.82077500264185      126.30902629814270
C          105.30196890794946      119.77993581925658      126.57501245398790
C          106.65849924356034      119.14279307025105      126.28196303200595
C          107.81205103245821      120.11891316484193      126.50110518256706
C          109.15948171931721      119.52670958588367      126.09355026346373
C          110.28320971643187      120.55784537002367      126.17678300236695
C          111.61030675569535      120.06556515829308      125.59706311866337
C          111.57175342475881      119.93059283337642      124.07776460488186
C          112.94932761394431      119.74225303401056      123.44879915301081
C          112.84271745305941      119.61995594305762      121.92893022539377
C          114.18274010039723      119.80578645361031      121.22512327536877
C          114.10870055622316      119.58174984712986      119.71117543768605
C          114.23722783056523      118.11022083646380      119.32180337444547
C          114.27992889387268      117.91082514903800      117.80813278127059
C          114.61744496384635      116.47269590142754      117.42231050443432
C          114.61781054614330      116.26509307842015      115.90921351470018
C          115.02661633170402      114.84553212904416      115.52497672827030
C          114.96305578798777      114.60737330581964      114.01788833837284
C          115.40155965659974      113.19260994126724      113.64820551336703
C          115.30414508032727      112.92003913817982      112.14904156844422
C          115.75707712553414      111.50428000895656      111.80012460662257
C          115.65977158710858      111.20993209054761      110.30521209012277
C          116.10634766089809      109.78806866272885      109.97290287494222
C          116.02851831650283      109.49043638940057      108.47757099384657
C          116.44450960140405      108.05803279531611      108.15096684543281
C          116.40648224462258      107.77816620999397      106.65075947391759
C          116.76458344698595      106.33230792078756      106.31550315109385
C          116.79316866236398      106.09009589376670      104.80866341966231
C          117.07167687913233      104.63315673546721      104.44814015534165
C          117.18388408782621      104.43778300169622      102.93837528757811
C          117.36804671394354      102.97601480324549      102.54063910391865
C          117.54814867808764      102.81806696838949      101.03295936806647
C          117.64244086743869      101.35831578304104      100.59768968035101
C          117.86827869930444      101.22837717306216       99.09361406121381
C          117.93281046970860       99.77622830599644       98.62660146835547
C          118.20046553104447       99.68257858079406       97.12671902177949
C          118.29434466040460       98.24476495968555       96.62117133347738
C          118.60609678329192       98.20744688488492       95.12719041846856
C          118.76103826098907       96.79295876471302       94.57434072091750
C          119.06795258208325       96.81812869933509       93.07846877167422
C          119.35715931784698       95.43345676496649       92.50673480584220
C          119.54906340507263       95.47496443380143       90.99573544793459
H          120.25761200634567       95.02631237210230       92.97361343781944
H          118.52943142668120       94.76470314357384       92.74894572902254
H          118.22092752449952       97.25653264879274       92.54600853541632
H          119.93134822074111       97.46459844026313       92.90110431526826
H          119.56766126314808       96.28086756172651       95.10451574195844
H          117.84372388102916       96.22492778163179       94.74992687727099
H          117.81160239119880       98.72152480203734       94.58047599341688
H          119.53348880232632       98.75779463409712       94.94744155488723
H          119.07920395581218       97.71858288040676       97.16888460476247
H          117.35330950034327       97.72472749695774       96.81394501940454
H          117.40655912057133      100.20300760175772       96.58505790956777
H          119.13901387794316      100.19606807390906       96.90272450865298
H          118.72870419642585       99.26002418611816       99.16774325793584
H          116.99143276577473       99.27480322921421       98.86126824859529
H          117.06390763078268      101.74243710221550       98.56201202955759
H          118.80468640887284      101.72642240772996       98.83075132139646
H          118.46789583230303      100.87896136336121      101.12813953449167
H          116.72137115964813      100.83826253929431      100.87168988527158
H          116.70987262256146      103.29308031688392      100.51888933718287
H          118.45800385025841      103.33953289407867      100.72706110659890
H          118.24319275347092      102.57101323665366      103.05301309391785
H          116.49539267411535      102.40154543710408      102.86305320480908
H          116.28493752057410      104.82853586296335      102.45802340179880
H          118.03173953601704      105.01777588908469      102.56683889360069
H          118.00062857648157      104.31298107436058      104.92455559218469
H          116.26427751329699      104.00556045627573      104.83583059525408
H          115.83495852258217      106.38718228146152      104.37819086672793
H          117.56228799339324      106.72314910032165      104.36003267228894
H          117.74215633325900      106.09292443397260      106.73907270853088
H          116.03122340333830      105.66481042112443      106.77618425928827
H          115.40729436307332      107.99742470205143      106.26819203626721
H          117.10363217938232      108.44850446864790      106.14244957536931
H          117.45458185154408      107.88007812086656      108.52589044023141
H          115.77446060696963      107.36416023510870      108.66550514808314
H          115.00667852910931      109.65685303132301      108.12825911831233
H          116.67405168710302      110.18628659122564      107.93650334387539
H          117.13327169789886      109.64341241471438      110.31559212909605
H          115.47515873455976      109.07904439613556      110.51486883208382
H          114.62774671334601      111.35110471923441      109.97402643733605
H          116.27737374864854      111.92248980235863      109.75365276869060
H          116.79071229246624      111.36725167548676      112.12618120705011
H          115.14095009024888      110.78709517683534      112.34825465758030
H          114.27066754348513      113.06082952248990      111.82123372299282
H          115.91677901525783      113.64297328159141      111.60576111573228
H          116.43318860310873      113.04002349737425      113.97421928714171
H          114.77684149310639      112.47390399232559      114.18401362538461
H          113.94009736402646      114.77196773505862      113.66851152493228
H          115.59925478410268      115.33247940417139      113.50555908278032
H          116.04410322391630      114.65738775786208      115.87612964765152
H          114.36704061769402      114.13446404836566      116.02784067793883
H          113.61863830767723      116.47076597198794      115.51605452913053
H          115.30101321399292      116.97897173481512      115.44351777500030
H          115.60358559566565      116.21809753107065      117.81877659569061
H          113.89169067800786      115.79576227850282      117.87890998390505
H          113.31186023692902      118.18060782678427      117.37895680637597
H          115.02502180424686      118.58215656345976      117.37480551186226
H          115.15680175983402      117.71158940116088      119.75757258656007
H          113.40189209395717      117.54227913803163      119.73540132941199
H          113.16860001734540      119.98533578234992      119.32769281431636
H          114.91661746811495      120.13572984174422      119.22836282535003
H          114.53179445656023      120.82398684557431      121.41810004313531
H          114.91167776101594      119.11678833774758      121.65512030073165
H          112.42683323392576      118.64347983254284      121.67823883453049
H          112.15088172290798      120.38161859447244      121.56346695513814
H          113.57918764127716      120.59803642576202      123.70356664228666
H          113.42925867914808      118.84958451087168      123.85663181196782
H          110.94169654401357      119.08434960472846      123.80387177110751
H          111.12235614303725      120.83180365573342      123.65649548689858
H          112.39036856441864      120.77996401308066      125.86678063528994
H          111.87093250532996      119.10252135538271      126.04182343556155
H          109.98046920421241      121.46163419108917      125.64151353296401
H          110.43024156746870      120.83369983886557      127.22298809387651
H          109.39704876554848      118.67910863996873      126.73986115741670
H          109.08055100788580      119.15062800596458      125.07183803774268
H          107.62754415251302      121.01980372037721      125.91037950210011
H          107.84578203954528      120.41640560078292      127.55161698604370
H          106.79470134827353      118.26795765326113      126.92203813932421
H          106.67393703440734      118.79990206373668      125.24392004334636
H          105.18274990789536      120.66840433250816      125.94973838435453
H          105.27140328738612      120.10548771887977      127.61747927852204
H          104.24181101159998      117.94846692269790      126.95783487209019
H          104.19627974729289      118.47228286121889      125.27432379029439
H          102.69794887750476      120.36423549310038      125.91995515724548
H          102.71614680734167      119.79866330690687      127.58869915416832
H          101.71299038700967      117.63507926377758      126.86163544715743
H          101.70802815491915      118.20641075820238      125.19422775765608
H          100.20947077429084      120.10090949200774      125.88104405044109
H          100.20072824299160      119.46467936902417      127.52363280098851
H           98.17716861543973      118.74580992391724      126.51906834458477
H           99.20085347992686      117.31505081376724      126.60720205053617
H           99.71792498380985      117.48278182511987      124.21982693334891
H           98.92662103606028      119.05647059768539      124.12077365344335
H           96.77001678334297      117.95570233348619      124.79872054989900
H           97.56850812886724      116.38846450408981      124.70087759213696
H           97.42227431597496      118.34406075918545      122.36693975206050
H           96.18958269890270      117.12494823133959      122.67541825754965
H           97.86529583796481      115.32647956977229      122.44097048812458
H           99.12659009958753      116.51761098064054      122.13508199208391
H           97.98379818370101      117.28007961408548      120.10108592993436
H           96.60855854873896      116.23300953455445      120.44008489149897
H           98.03124068513681      114.22965178917273      120.17655091631713
H           99.44071457018030      115.24735980496695      119.90013406475447
H           98.40341394958637      116.17485054659294      117.85403588333170
H           96.94250309745354      115.23678015830249      118.14984572722175
H           98.21880572380911      113.12954050530635      117.90304796530351
H           99.70453107667751      114.04171064537744      117.65084054083306
H           98.79648514268209      115.03484870237544      115.59126052321729
H           97.23893797987633      114.25939250009375      115.87013802313194
H           98.27886682500775      112.02894999291242      115.64035078447564
H           99.86113378279686      112.77002231215052      115.40693000957641
H           99.13364838827692      113.82379350131995      113.33043006761545
H           97.47275636340960      113.29307422857156      113.58621860759251
H           98.13422783338689      110.94189745673971      113.35298267555702
H           99.83166402459138      111.39423554761072      113.24822833183826
H           99.38122766884806      112.63820590562162      111.14383825952146
H           97.67694068745804      112.20958418292989      111.24761731802775
H           98.24409244791799      109.80798904235330      111.06465068758641
H           99.96004128624850      110.19623668554297      111.03707488449626
H           99.64935380409010      111.46552155641291      108.92114444213392
H           97.92416393197095      111.11423285436270      108.95703620060166
H           98.41438345554258      108.67767628610186      108.80782248237990
H          100.13956603644384      109.02297551740695      108.77724067969544
H           99.85336749814874      110.31213589905489      106.67220000463934
H           98.12108029249417      109.99380776704115      106.70341587950217
H           98.54394309838749      107.56179414159570      106.50233434606606
H          100.28122144390963      107.84534646340477      106.54222622568847
H          100.11048032640838      109.19856628478151      104.46170617417069
H           98.37698317806658      108.89474792169923      104.40112562319139
H           98.76576271778960      106.48290552815860      104.12490316102185
H          100.50027803996169      106.70536110570924      104.34486192298482
H          100.60565865367883      108.09077098132920      102.29781656737973
H           98.86990515192414      107.91049793342447      102.06536214356245
H           99.10546203522139      105.50339804168513      101.71205375712330
H          100.80942220758796      105.55810209445686      102.15386008839982
H          101.29912019641421      106.98286539922445      100.19578682575577
H           99.59227894157205      107.00509715318591       99.75970051566449
H           99.61398501618874      104.56223959755309       99.42944504419616
H          101.30850414136754      104.48719832315267       99.89401780064523
H          100.33486000683115      106.18992341963821       97.57095075946324
H          100.73040653864466      104.48905993860924       97.36403277981168
H          102.72343042300498      106.44854226623282       98.54793248798920
H          102.55961815227488      106.23498378159239       96.80903663549594
H          103.07486470045998      103.88742091447243       98.66368733937195
H          104.38393511736501      104.86934089379227       98.01883614928582
H          103.76589659452246      104.29769988906800       95.72413090500848
H          102.33589606148601      103.43049414636488       96.27933669113931
H          103.76524673019770      101.83680294480031       97.52242399893167
H          105.20661518587148      102.68258158238841       96.96932923754643
H          104.70771395648643      102.09728850900835       94.63388452640761
H          103.16807134015227      101.38002577309886       95.11115867257845
H          104.34545608957286       99.69208237290066       96.47262948654003
H          105.89743270815448      100.40403503097920       96.06033152112610
H          105.60451236093841       99.80883980619490       93.69948606766094
H          103.96697730454002       99.24063316276795       94.00384842266644
H          104.79549026324392       97.45938336029488       95.46452745962456
H          106.44416442374889       98.06554948277356       95.33886160359887
H          106.47608541339598       97.57711387884822       92.92499996060059
H          104.81987948050813       96.98045302067540       92.99484877743097
H          107.11835736983046       95.79823517220748       94.61340693162639
H          106.64544439456911       95.20944483062821       93.01986696918928
H          104.39625398898292       94.65477996095316       93.85757459127066
H          104.82891516954476       95.23094341468178       95.46707335385865
H          106.64679477853184       93.55133593460435       95.59424628335817
H          106.21699518290822       92.95442659403956       93.99317362486363
H          104.33162494580851       92.94015308716538       96.38732065887592
H          105.34238083495620       91.57504898720873       95.91281766082081
H          104.23438209744914       91.62146441041860       93.64084197988751
H          103.10199984262164       92.81412961972583       94.26437988189014
H          103.50379687941020       89.97348906656937       95.29099427822784
H          102.16571584271428       90.54443081588396       94.29650593358012
H          102.75616815317403       91.34736927399737       97.17773964332341
H          101.47156944457616       90.28829098844966       96.60893810403657
H          100.54589624159692       92.24926059827769       95.27973684421217
H          101.74448478931522       93.27194055698678       96.07674329945826
H          100.80732641934864       92.54277863966487       98.30226959858403
H           99.51179164432124       91.71539283069033       97.43993726566512
H           98.81276687319640       93.86741731593476       96.41089816684229
H          100.17020806094035       94.68049815441911       97.18286644527068
H           99.23177890321297       94.01563440850933       99.42199939079320
H           97.78823483881425       93.42436540162541       98.60320995600438
H           97.28728424774350       95.63371721511473       97.72459366933856
H           98.83934353735670       96.26447611850297       98.26838686463056
H           96.70341299646256       95.24024818661252      100.17702634082859
H           96.83776213336336       96.92213545896955       99.66938932251588
H           99.13506427263360       97.03402944974012      100.58715565323510
H           99.02602337799964       95.34552157644833      101.08337781971839
H           98.61846971431696       96.54345264139380      103.04258029872084
H           97.02389953278742       96.00301840627360      102.52317704204853
H           96.63736174316789       98.25920018362596      101.49551027591468
H           98.20158000954062       98.78793394057229      102.11254204371180
H           95.94587803353527       97.74413842186902      103.87856919557723
H           96.17198546066477       99.45043197152302      103.50470925571813
H           98.38440051338252       99.44295053953084      104.57088767372528
H           98.25609493291348       97.71555647577972      104.89403800027469
H           96.25024443075949       98.11987552943646      106.30496001167089
H           96.39941117045996       99.85320335255854      106.02229324320278
H           98.59742664644038       99.88261952313191      107.13038398807268
H           98.56950897014808       98.12935169587082      107.29358770200653
H           96.57239990064967       98.29305503589400      108.76902284609022
H           96.60650515874282      100.04921906415504      108.62169892080463
H           98.86679382661367      100.10120009782297      109.64398569536631
H           98.86624881698830       98.34152462115655      109.75308549022412
H           96.89923948080654       98.43936535676920      111.27866398323448
H           96.92127772000475      100.19964116627852      111.18916143784492
H           99.22062648670740      100.21875764877564      112.14394286558264
H           99.20135016102887       98.45643294296006      112.22434205028310
H           97.21285487911150       98.59166318539678      113.76101780155902
H           97.35944008017326      100.34781041429028      113.75014796303924
H           99.67724614312293      100.13894223292152      114.67193539658700
H           99.49252587427398       98.38548204994217      114.69891753571721
H           97.44053234153381       98.73240856439693      116.18095064679598
H           97.91369536516999      100.42304266255969      116.32188442601363
H           99.60110995481975       98.02183226622482      117.16414592705458
H           98.63807247281055       99.03159100478496      118.24087006607179
H          100.04277032146308      101.01619403892832      117.48718394247028
H          101.10833836814463       99.86919693968750      116.67325508013600
H          101.43334275296310       98.68445536526549      118.87648181350235
H          100.46092270735318       99.93119292845924      119.65114230816494
H          102.09693551307373      101.65987508407173      118.83524201756630
H          103.09568199154479      100.36680577933591      118.17750281425904
H          103.34145889568907       99.41652941041971      120.48054807298172
H          102.34059910017307      100.72114107652460      121.11221344172894
H          104.00916700960629      102.38441682542931      120.25007908309014
H          105.03097044152808      101.05285080189736      119.71289150832111
H          105.16224757931960      100.23132004113788      122.07924178512113
H          104.17587061057503      101.59880460546104      122.59059970129513
H          105.92215784657823      103.16209467597535      121.70831242798404
H          106.92081650851384      101.77674207362027      121.27010815076737
H          106.96731086409564      101.07225785652291      123.66763394318954
H          106.00128520980746      102.48587175429580      124.09201467973045
H          107.79155555137335      103.94927467025644      123.09975001054657
H          108.78541189642691      102.51674758897758      122.85025138733961
H          107.75564118426431      103.46449888883471      125.56275551407576
H          109.34176305673978      103.86152560355814      124.90237889701874
H          109.88860764441507      101.41864922772740      124.81711905354913
H          108.34372425873082      101.06880720745040      125.59507369461322
H          110.16548890085522      101.14391378664405      127.27253890434969
H          110.57601280071842      102.78650475081407      126.77602716157377
H          109.02808292042444      102.46300257328592      127.55601573941469
H          120.38072537983351       96.12560569074216       90.73302275555599
H          119.75766875087572       94.48037815185590       90.60768813714556
H          118.65249538608545       95.85261620447382       90.50793568762241
C          111.52376942300494       95.61095476515617       89.42052720057440
C          110.44850886804049       95.90569183150419       90.45968258003049
C          110.95743356908896       96.84336097302638       91.54909903098317
C          109.88347392722154       97.21673612704780       92.56669494838231
C          110.47667280237803       98.04721370374033       93.70039529408575
C          109.45038674637989       98.46475882378861       94.74888066783807
C          110.09459358449254       99.34058322618246       95.81953780200934
C          109.09783594450019       99.90606067608796       96.82669450418727
C          109.77953657690286      100.88223670080912       97.78130104006202
C          108.81300424290241      101.54966983466038       98.75415303486868
C          109.51309826941599      102.61176634713637       99.59777751009297
C          108.56108447935573      103.31417082842975      100.55964687091037
C          109.24700264396269      104.42761416394998      101.34581565129986
C          108.28128193691003      105.13389496685402      102.29196531421896
C          108.92958283403456      106.29851960878702      103.03400694280135
C          107.93614627040236      107.01099175534368      103.94670668921142
C          108.55639646927334      108.19699842741673      104.67911894192997
C          107.53689706455722      108.91252972627994      105.55992387007539
C          108.13173122947718      110.10478724580223      106.30390998957553
C          107.07904907309320      110.81978457990014      107.14510411571914
C          107.63591305250648      112.01344408353980      107.91598527758283