3258
 energy: -3427.439632470987 gnorm: 0.000948647419 xtb: 6.6.1 (8d0f1dd)
C          112.63311598264623      113.13843297684045      127.22487508826059
C          112.79287370370814      111.91164652328197      126.33631596478649
C          111.76119203964004      110.83135660171047      126.65079918381227
C          111.98046818368741      109.57257295456455      125.81499154286759
C          110.92593784070547      108.50394322561571      126.09691208469168
C          111.23727359339536      107.16164914305077      125.43185061278480
C          112.35654300950465      106.40037337080884      126.14018385811059
C          112.62785198462626      105.03877229782614      125.50534909890409
C          113.67135158278225      104.24610956803537      126.29076161426673
C          113.92292285287020      102.86313334983582      125.69300550993276
C          114.79181828937743      101.96954530627610      126.58050565899994
C          116.25070281334663      102.40978762374699      126.71989355434944
C          117.05760317508181      102.21884972269480      125.43816722139285
C          118.54081000445767      102.52516424576628      125.63200281170974
C          119.34272567679105      102.22265867636413      124.36758921573765
C          120.82963948010810      102.56170090574058      124.49091855385005
C          121.13460306382791      104.06127183928292      124.47593515229568
C          120.93401283682543      104.69512895481004      123.10161141602080
C          121.17437728975942      106.20257573371575      123.11676430476692
C          120.86093469168817      106.83591875146119      121.76358369394623
C          121.11423646694621      108.34265422426851      121.76031365242289
C          120.54458120951959      109.04216636026899      120.52613953669056
C          121.19189645810182      108.57867957710943      119.22339571629668
C          120.69582349247996      109.34264188588622      117.99463484394028
C          119.18625424575774      109.25678828123637      117.76224727472326
C          118.66915006461952      107.82319943891436      117.65843561318243
C          117.22330953824347      107.74064313763530      117.16353999143513
C          116.21645085075777      108.53324670468659      117.99805013558991
C          116.10417460094483      108.04137318584068      119.43840348696148
C          115.15367321913050      108.88276983719281      120.28992285414307
C          115.71400517281180      110.26012986013107      120.63739631442985
C          114.81059290994492      111.01988374876466      121.60518086097099
C          115.33464196279022      112.42319843788071      121.89818707313221
C          114.54644464998924      113.11512415113346      123.00872858757246
C          114.95159504273066      114.57849627575681      123.20438035626962
C          114.32753782239905      115.50121144831034      122.15936116805395
C          114.91346929932628      116.91106151511913      122.18823335635518
C          114.29090594312876      117.79551884456640      121.11094264389490
C          114.88296259543681      119.20191479777083      121.06986795386914
C          114.26064423913178      120.02856565838054      119.94707737988263
C          114.87044207766755      121.42434273468048      119.83175567877728
C          114.37171064880097      122.18700300902019      118.60089659520058
C          114.99261348796450      121.66391542688248      117.30721037088742
C          114.42358929902662      122.32299674266660      116.05293898241040
C          114.96657286513907      121.65437592762282      114.79174363497138
C          114.35066763711701      122.19752936680827      113.50529121639107
C          114.75352903268004      121.36084101295955      112.29174052258514
C          114.06290795597937      121.84595581002519      111.02068698242148
C          114.40928734980780      121.02866540745460      109.77661609065154
C          113.91985643007261      119.58175175943080      109.84149861048357
C          113.92679631713574      118.92785089258214      108.46173791284947
C          113.50972816305541      117.45957422352808      108.50882605387325
C          113.39634349592484      116.84602828269281      107.11346518229598
C          113.15990099774952      115.33920132866106      107.17451222815652
C          113.17970278793881      114.64858497834206      105.81051780552600
C          111.95192794531100      114.95650951917951      104.95760062740057
C          111.93921747708441      114.20205041266080      103.62678394400193
C          111.76447777150982      112.69242557395039      103.78744796186523
C          111.49400673805344      111.97130112646006      102.46691178156053
C          112.68380514331251      111.98576341091686      101.51202362005435
C          112.38452827885342      111.24062493298456      100.21428919346073
C          113.53910209860413      111.33880870053649       99.22135550782804
C          113.18113234134094      110.74902826812298       97.86145229489635
C          114.32344302600697      110.89503025215620       96.85843590035169
C          113.93108715880273      110.43620533495923       95.45429499042322
C          113.06429998464883      111.45724645698843       94.71994272234447
C          112.56508637998186      110.94895326839986       93.36758453704742
C          111.41157713227570      109.95669940724297       93.49492656434177
C          110.99857096234317      109.39333370380184       92.13694598609317
C          109.63394354871619      108.70392884009472       92.15232380212656
C          109.49395443772893      107.57388366883420       93.17174872932931
C          110.49700032407880      106.44156164333940       92.96097663038660
C          110.12624726181811      105.16711940120723       93.72049623377451
C          109.96135205713907      105.34906366832489       95.22937296170525
C          111.23291916311035      105.82583012993270       95.92574543294890
C          111.08838529969395      105.91644166445045       97.44561099996226
C          110.14984661106838      107.04024968358442       97.87933322575114
C          110.11299555495924      107.23319759841047       99.39352430065021
C          109.16946226474563      108.36952647641833       99.77907700649706
C          109.13125959744029      108.63179712926832      101.28132537503146
C          108.20770340490220      109.79797213340638      101.62252921017203
C          108.13001968569229      110.07711804481315      103.12082819850419
C          107.24945615004025      111.28644132924403      103.42480877873152
C          107.17494090668131      111.58568209697508      104.91896263177972
C          106.30078525328139      112.79865453962002      105.22713202694287
C          106.20288325664124      113.06309874841592      106.72691765912430
C          105.35553843763985      114.29062102122421      107.04662336780903
C          105.34594791679258      114.63886847138554      108.53528462257533
C          104.50074803120312      113.69311092259761      109.38511032910192
C          104.46939831601695      114.13028218875431      110.84860335379365
C          103.54619311066648      113.25087561058807      111.68780024636189
C          103.58256293512527      113.57220488077250      113.18261095917755
C          103.05194019674012      114.96518432654457      113.51707234993928
C          102.89425519331191      115.16812448684296      115.02225542503683
C          102.30153223528748      116.53086362211566      115.38797227944727
C          103.26272744569462      117.71389734045572      115.26206857037950
C          104.31487284858218      117.76042215586801      116.36743067191145
C          105.19669095248658      119.00207223165410      116.25136333437450
C          106.28000420815312      119.08289823382417      117.32838229574011
C          107.38039294618687      118.04371107703270      117.13830160754638
C          108.48695301838136      118.15118281923229      118.18259537055049
C          109.52973602489085      117.05054113937584      118.00817405632061
C          110.61341550387627      117.09317226748546      119.08145945626001
C          111.59257221632653      115.92209851181154      118.99109781420337
C          110.97479407461515      114.53804286873893      119.20216972679124
C          110.30093594583171      114.36448114816564      120.56181177162902
C          109.76049344102455      112.94947115938091      120.77721275405665
C          110.85704925785157      111.90801924123780      120.98260639815157
C          110.29200436376736      110.49606744007809      121.11135465849966
C          111.38963602688747      109.43540750247580      121.14986734902993
C          110.82273405950346      108.02299659709128      121.24461030068441
C          111.90702972240432      106.94889704587153      121.22597153939675
C          111.31836383380269      105.54387438742998      121.33729512520469
C          112.40111757773828      104.46965585935988      121.28836562054965
C          111.85111783459706      103.04427986330734      121.27944249515824
C          111.15881035547835      102.64823253466911      122.58167479607889
C          110.80396815833278      101.16384188245796      122.59678628156030
C          110.09788754052609      100.74012868290195      123.88141914046861
C          109.75039126057685       99.25353628203790      123.87294204056963
C          109.03875614393812       98.81913655840182      125.14794037617912
H          109.11451780805491       99.03726975791479      123.01071407721355
H          110.66910606599888       98.67352722520408      123.75764830519697
H          110.74060166869823      100.95561451231012      124.73882246440910
H          109.18341782488216      101.32568759372587      124.00221098670377
H          110.15746265330722      100.94167708781767      121.74467926649150
H          111.71644947797849      100.57474079916257      122.47786475664876
H          111.82165353481686      102.86912277744455      123.42042420485544
H          110.24824336747312      103.23561255927436      122.71271304478842
H          111.15135246948076      102.93107993712911      120.44745013327132
H          112.68242285365260      102.35580181101291      121.10602255357620
H          112.99710530058893      104.61901254471756      120.38442471093416
H          113.06662858177370      104.58853843387408      122.14620867826011
H          110.76225502901302      105.46424597080130      122.27280177537638
H          110.61696781727315      105.38294498157492      120.51374676425600
H          112.47898362195023      107.02886735721381      120.29878622968056
H          112.59963479043792      107.11697291706794      122.05468713419414
H          110.24217885795413      107.93515515083546      122.16462950312119
H          110.14308599950782      107.85445067182869      120.40495048296007
H          111.99523166956041      109.51610985180920      120.24414946600231
H          112.04547885522184      109.61812044617429      122.00402567488422
H          109.68313779870395      110.42686386629588      122.01531755956806
H          109.63565059401586      110.29862165468080      120.26034168747813
H          111.54400549832332      111.93332895285627      120.13502753186752
H          111.42849897150334      112.15649689024325      121.88032221800852
H          109.10931273946457      112.94649437415848      121.65462313036258
H          109.15261614016578      112.66573233498249      119.91436464516087
H          111.01256849260848      114.60699653063914      121.35473994596269
H          109.46480398833955      115.06207064025780      120.63965363698894
H          110.25014950740645      114.32723329758575      118.41304533847303
H          111.77757565224699      113.80633654188722      119.10779610736095
H          112.06875580737083      115.94097647575498      118.00684654119662
H          112.37457405974976      116.06759357533812      119.73867106436582
H          111.17830927282454      118.02450488258893      118.98386826642523
H          110.14736091216443      117.10031771071606      120.06848560800859
H          109.02084954539725      116.08626522936746      118.05208514909782
H          109.99621443600932      117.13804367807086      117.02381712856275
H          108.96638628998267      119.12960095306623      118.11048418480095
H          108.04722945043670      118.06786148921790      119.17752551789665
H          106.94557393735957      117.04462284258594      117.19085464965515
H          107.81472615934562      118.16467020084040      116.14372160974324
H          106.72786115416018      120.08057845813994      117.30617876976216
H          105.82264047551875      118.94702289690296      118.31211740418858
H          105.66905052608388      119.01944756483026      115.26625062077788
H          104.55715446146695      119.88612832945681      116.32294754388764
H          103.81345143738254      117.76625116915901      117.33865735912646
H          104.93514154867063      116.86529537281866      116.32163856165933
H          103.75689005770292      117.68510486455072      114.28939949125972
H          102.68027519851098      118.63840313340259      115.30075550643672
H          101.44027341277204      116.71245893178677      114.74218886360103
H          101.93949603066984      116.49214599138803      116.41770690361446
H          102.23285101159971      114.38823430489798      115.40910426945402
H          103.86135341429073      115.03891008051937      115.51123197681603
H          103.72766853924379      115.71960166542297      113.11393839834746
H          102.07769042995957      115.09684675467653      113.04098964538628
H          102.97539183564875      112.82986660331190      113.70838868644410
H          104.60667846993326      113.47671269721124      113.55157432694308
H          102.52201783628655      113.35779248747035      111.32294733821057
H          103.83445289816703      112.20623877081540      111.54712134447404
H          105.48217084117535      114.08470308301028      111.25748035729757
H          104.13416256031498      115.16780410921791      110.90335484302685
H          103.48009720881345      113.67200734378990      108.99364258091553
H          104.90105247671201      112.67962642632797      109.32194385390923
H          106.37282219905812      114.64275000565000      108.90880514014063
H          104.95098982332775      115.65111348141059      108.65543712170407
H          105.75284888655585      115.14181265500797      106.48873683984209
H          104.33078154082415      114.12390084618676      106.70604965427185
H          105.77170732792749      112.18619227571284      107.21231009994644
H          107.20804782825809      113.21193292550893      107.13034867103170
H          106.71433997463016      113.68009974108158      104.73085251460975
H          105.29907076800963      112.63421799650530      104.82350654041572
H          106.77443450995162      110.71447448940619      105.44147079580573
H          108.18447002333660      111.76243026846299      105.29756344567770
H          107.64860503945660      112.15931353653787      102.90147792826068
H          106.24310630423976      111.10444929973004      103.04140189519421
H          107.72882916244902      109.19992182523312      103.63267310856732
H          109.13415357708308      110.25977982419418      103.51049804268617
H          108.56431837543049      110.69506486004322      101.11072473384861
H          107.20477701061549      109.58003540904051      101.24842620302481
H          108.79155027948941      107.73307370949910      101.79982421561978
H          110.14139274144685      108.85648807863393      101.62993494913023
H          109.48591585637418      109.28180021557074       99.26669926839887
H          108.16151894447944      108.13024384334764       99.43093138530749
H          109.78475346664602      106.30764519172529       99.87254182688184
H          111.11904819044494      107.45760470222970       99.75700730014309
H          110.47201962972981      107.97470201801931       97.41144440156185
H          109.13749192854631      106.82886217462178       97.52913852351611
H          110.72286058312756      104.96355799227079       97.83514356939969
H          112.07531167481670      106.09452065354147       97.88086207835909
H          112.04160680840226      105.13069121813962       95.68516850399129
H          111.51821920458126      106.80775790338637       95.54373137963533
H          109.14906338144516      106.05169968270938       95.41687051603257
H          109.66957561860194      104.38628264796313       95.65872184161873
H          109.18275200635071      104.78329948266322       93.32142454594903
H          110.89218609377068      104.41111619733370       93.53121506598015
H          110.54173665189565      106.19898891159104       91.89637154589599
H          111.49413845211043      106.76697125932554       93.25802576805090
H          109.60357790778544      107.98269582060364       94.17693531395942
H          108.48234280554668      107.16837529345439       93.09007676992944
H          108.86618080047649      109.45227339164207       92.36370559574206
H          109.43478706690867      108.30760107369753       91.15339350041353
H          110.95186738190579      110.21300195147600       91.41531867001737
H          111.76174236634188      108.69551477174198       91.78658778575323
H          111.70516370316180      109.13912075365208       94.15403519325056
H          110.55904249759094      110.46175817821124       93.95324303967104
H          112.22710473745188      111.80168621317009       92.77394684424067
H          113.38991428189745      110.48065362962234       92.82866432195127
H          112.20292826298392      111.72658111283265       95.33399303348652
H          113.65545356160963      112.36354330114575       94.56668307724523
H          114.83635921836928      110.26605012879027       94.86560171804862
H          113.40711677461181      109.48144386674120       95.52919668668477
H          114.64037286059259      111.94069908559003       96.81865620113381
H          115.17469579709937      110.30481312225164       97.20647829251378
H          112.93217749278725      109.69087393475662       97.97483112865568
H          112.29226882344840      111.25741804556286       97.48272489336922
H          113.80483776407789      112.38985287006574       99.08974944162924
H          114.41596258018821      110.82466779250321       99.62372652207230
H          112.17568959160091      110.18999978639835      100.43020027793898
H          111.48811972563162      111.66592668506982       99.75900555166804
H          112.94956501239477      113.01632209819606      101.27052546032698
H          113.54375220968514      111.52513403456710      102.00371023184006
H          111.23743585925187      110.93162477576854      102.68468406872269
H          110.62941414595207      112.42637535595706      101.97679177072321
H          112.65605172341067      112.26086140050920      104.24577934885974
H          110.92083120264824      112.51024950950095      104.45840837199236
H          111.10983180731523      114.58056968972916      103.02315950710791
H          112.86626887750255      114.41329859095576      103.09092113313365
H          111.05145614923691      114.70453201934306      105.52308520489429
H          111.92260260555143      116.02751744987992      104.74805462915802
H          114.08104618119046      114.94563044342583      105.26746455970780
H          113.23106361405490      113.57127729700512      105.97923356301737
H          113.94407678118242      114.89846802412509      107.79500860660336
H          112.20398110215129      115.13707894864409      107.66313847250765
H          112.58382543546037      117.33242778272468      106.57024429411301
H          114.32045094922275      117.03669353942141      106.56204041566950
H          114.24152739894160      116.89484293010089      109.09251969130339
H          112.55054577318752      117.37345534977716      109.02543441722455
H          113.24433930551575      119.47632167403432      107.80935501886744
H          114.92826856414548      119.00694333647047      108.03051399681624
H          114.55385384846548      119.00410720718772      110.51675142902812
H          112.90313340393891      119.56180168988747      110.24143883827465
H          113.94602978772060      121.51243748581393      108.91300050161215
H          115.48997826262232      121.03963820258511      109.61816316068779
H          112.98225348517906      121.81459182413175      111.17308586582388
H          114.34032269292892      122.88850760826827      110.84531302222004
H          115.83734970626666      121.40238628515453      112.16095885307702
H          114.48061198718487      120.31973213925947      112.47575670944701
H          113.26112134798734      122.18816766263535      113.59433741005003
H          114.65746643833792      123.23502862946313      113.35613600383734
H          116.05190546552933      121.77347770802527      114.75396282322048
H          114.75773681083366      120.58442838417707      114.85218960535529
H          113.33472421202313      122.23115154982912      116.06579610599832
H          114.66629724162505      123.38787524452179      116.04560595016467
H          116.07352735739967      121.82102615302261      117.33993955768396
H          114.81800388947288      120.58997741298943      117.23462938352452
H          113.28353606202296      122.10277317905022      118.54339461067626
H          114.61551563232979      123.24648874263458      118.70964916354633
H          114.62552915764773      121.99060183928624      120.73248141854597
H          115.95862818728560      121.34076007889585      119.78121856249912
H          114.39864914418416      119.49039940685688      119.00768550082812
H          113.18510724470923      120.11900477253165      120.11910571552039
H          114.71723459996993      119.69973482611647      122.02684873417020
H          115.96200761442131      119.13495366983010      120.91179396118892
H          114.44263311990159      117.32367712003729      120.13639364890989
H          113.21446073509873      117.86584418660004      121.28376540607469
H          114.74609726674696      117.35665254628121      123.17147235230956
H          115.99346976736543      116.85621725698549      122.03015471886370
H          114.48130953610352      115.07887858232554      121.16465521005935
H          113.24886442896292      115.55446948816602      122.32625264027811
H          114.64273475537274      114.91112799163126      124.19825785492314
H          116.04068167870057      114.65859635798714      123.15960469687646
H          113.47852003381679      113.06958678043041      122.78022319795068
H          114.70816463224469      112.56922102899678      123.94122004919032
H          116.38362218344507      112.36083123479349      122.19250164451576
H          115.28439134524514      113.01414259224960      120.98322390555873
H          113.80851895056611      111.09359352309865      121.17983118375565
H          114.72975130289839      110.45837323597706      122.53987277960529
H          116.70271241746589      110.14238231175274      121.08823817319978
H          115.83033254711341      110.85172831760030      119.72811532933021
H          114.20438574954383      109.00182801741639      119.76355290995048
H          114.94867988224524      108.34692094263616      121.21934069170041
H          115.75327063368317      107.00615823722519      119.42759719086530
H          117.08943103907858      108.05005549620473      119.90686814586356
H          116.49472236684989      109.58741667206617      117.98879679702701
H          115.23587295084197      108.44892988329543      117.52090537179525
H          117.18112655466494      108.11396705898264      116.13764346988570
H          116.92024156670944      106.69018319399939      117.14405880408516
H          119.30168266589136      107.26988779240551      116.96056201456959
H          118.74843301560811      107.32881971782687      118.62693175347547
H          118.67346762011148      109.77961570858309      118.56985584836212
H          118.95273939756343      109.78353913459402      116.83439294697561
H          120.96946364168490      110.39657801660590      118.09492410604234
H          121.21337596901780      108.95048100905346      117.11541336431978
H          122.27379370850353      108.71504420334885      119.30108831962383
H          121.00549227975269      107.51452742558752      119.07897885395263
H          119.46993640949340      108.85424890902334      120.48859799104004
H          120.68850643769140      110.12047849101222      120.62951890396620
H          120.64947871034802      108.77669211377447      122.64949692526790
H          122.18834758613720      108.53106284174068      121.82574476098678
H          121.47205789481175      106.35477338881599      120.99804256285907
H          119.81282434848747      106.64663841915376      121.51890057474930
H          120.54270319978812      106.66089043821914      123.88235352499373
H          122.21408983202866      106.40477316733649      123.38425547125789
H          121.61290398778561      104.22587338578113      122.38510481985385
H          119.91490034548211      104.51049728565593      122.75690579054910
H          120.50371854631018      104.57195240173188      125.20574032323314
H          122.17245771613305      104.21177525789236      124.78280078379329
H          121.20874605219073      102.13054275318979      125.42050984973018
H          121.36969222623114      102.09010530365379      123.66581750284008
H          119.24631927976327      101.15698624312132      124.14310315716166
H          118.90865792244291      102.77116011323729      123.53040487768953
H          118.65351748882527      103.57621536229435      125.90380781480044
H          118.93314954643907      101.92651824381234      126.45778799798944
H          116.94559224603724      101.18679669707724      125.09624214307092
H          116.66778364246986      102.87110324704010      124.65626570500724
H          116.29669353363222      103.45460591321935      127.03141752501409
H          116.71135702457890      101.81431293592077      127.51245076580095
H          114.34041932041521      101.93287441247469      127.57533659218485
H          114.77578427323223      100.95356464432787      126.17693005360890
H          112.95908760627887      102.36500855858570      125.55613225143030
H          114.37736781175941      102.96610058474127      124.70598796268234
H          114.60332171489050      104.81420886674466      126.31903927956796
H          113.32604663719192      104.12948725679695      127.32118722603118
H          111.69592767897053      104.46882562234866      125.46724045587025
H          112.97161040198755      105.18054621428894      124.47805434410157
H          113.27599256187540      106.98840728886307      126.12181472383904
H          112.07791756915793      106.25545874830303      127.18722212672623
H          110.33594378787380      106.54310861594340      125.44374603075212
H          111.51076802106412      107.32779591229820      124.38787086373422
H          110.84481679872951      108.35262542659892      127.17634913526723
H          109.95670891140294      108.86569908939164      125.74535303994892
H          111.95494458308720      109.83177682423069      124.75335215106432
H          112.97386412898423      109.17652145116665      126.03336310330991
H          111.82400278352695      110.57223244592412      127.71117630856401
H          110.75947717303424      111.22323661327074      126.46315951027697
H          112.69211034941485      112.20821665783984      125.29009601375068
H          113.79617137521457      111.49897808070719      126.46919695249558
H          112.73949311594771      112.86916209699375      128.27393984172286
H          113.38580098270249      113.88618815297937      126.98477679304116
H          111.65169863019045      113.58444143424671      127.08278250377691
H          108.09758242252299       99.35230563922846      125.26540817900893
H          108.82524255390136       97.75287691616572      125.12315011112676
H          109.65652309847029       99.02540697491183      126.01947246692343
C          109.66570865251366      113.65222501473140       98.54464996443822
C          108.67339773144840      112.49827295766410       98.47702171809334
C          107.92457183264786      112.42255611277419       97.14646329360474
C          108.80610592693043      111.97903824787500       95.98005057406847
C          108.07662474222438      112.02096785220387       94.63552085605612
C          107.01595536999442      110.93099091018149       94.50298562555402
C          106.22986677921865      111.04438175763829       93.19861090752170
C          105.17889661066556      109.94511283499384       93.03385112048856
C          104.14937665439888      109.94502464868718       94.16290183402766
C          102.94741991541896      109.04962140928578       93.86975477993434
C          102.08485619931950      108.79586375072995       95.10816716779131
C          101.56661638018349      110.07429012801167       95.76579789343377
C          100.58010674425543      109.77719364874365       96.89351240142675
C          100.17245995011588      111.04020831017702       97.65037848403792
C           99.12960113497891      110.75147711841080       98.72793153630910
C           98.83286273261518      111.96923077754796       99.60040118284557
C           97.85532188363121      111.63383576029479      100.72478326597950
C           97.69691476477506      112.77733446277199      101.72483691665309
C           96.89505876827683      112.35208583438599      102.95293423127747
C           96.83433075427341      113.44369037738238      104.01957637479954
C           96.20161717955227      112.93859767801665      105.31467973719286