3536
 energy: -3716.261938602748 gnorm: 0.000817235660 xtb: 6.6.1 (8d0f1dd)
C           60.46144841767462       56.24003750129287       37.74904743168973
C           61.07503013567698       57.38743545797146       36.94915440752974
C           62.03812182162156       56.82274889954343       35.90666602089983
C           61.77836731496589       58.35939903918914       37.90060694619574
C           62.26522319100570       59.67599217264503       37.28209021068999
C           63.06495894605915       60.44356277745381       38.33604177858609
C           61.10470413248684       60.54196716143412       36.75923535935860
C           60.88180853613489       60.47627382044720       35.24045185151740
C           61.99454253919991       61.22340440783796       34.50737456976456
C           59.50845408792664       61.06918681796373       34.89980656260363
C           59.03926627419148       60.89012274513797       33.44947598133673
C           57.77240203078136       61.71575756317091       33.22743112888966
C           58.86862492777482       59.42067220209589       33.02117123413974
C           57.90215450937654       58.54414158779081       33.83807811278325
C           58.42574240310068       57.10670594600753       33.86924103925961
C           56.47586208035666       58.56446503701612       33.26814867494797
C           55.40352374419499       58.10760551478041       34.26845162629904
C           54.13676334456931       57.69018097556578       33.52265078609927
C           55.08526825857633       59.21045631253138       35.28677366609871
C           54.51567662068202       58.68538605705671       36.61108244757255
C           53.97972296210822       59.84801856406709       37.44306655996477
C           55.57790095709016       57.90183702711765       37.40584609836817
C           55.27171690761855       56.40951164778559       37.58068616024318
C           54.07477866856391       56.20544782297046       38.50662473260727
C           56.51223808855026       55.69238810670971       38.12984842543267
C           56.53133394700357       54.17681580302004       37.89373272151001
C           57.50782391050547       53.51364890167665       38.86244078187414
C           56.91708920706421       53.86884039423045       36.44211987006935
C           56.58648735814706       52.44835339588969       35.96912579054241
C           57.17897190359534       52.23053120293010       34.57621292946062
C           55.06790732743069       52.19413770129248       35.95932358720577
C           54.56931995335557       51.29746881149288       37.10242095966298
C           54.93878572249920       49.84175640700064       36.82295931139112
C           53.05401850670360       51.47250223143497       37.26297237936382
C           52.44924446696679       50.77596993731490       38.48768750018168
C           50.92391277630389       50.78199608697259       38.37522151401460
C           52.89762914316963       51.42968482345221       39.80918804882523
C           53.59517921956520       50.47213457072338       40.78238971434800
C           52.65777981488510       49.33782258318877       41.19479184455935
C           54.07737806424578       51.22647307483410       42.03269204592140
C           55.36482577833613       52.03806433658726       41.84981876172964
C           56.56800231103696       51.11651781944470       41.64516818731352
C           55.65367886998838       52.93643683934279       43.06352489487815
C           54.63727803148211       54.04387443046456       43.37337434857449
C           54.25781869541722       54.82513539713747       42.11568764991867
C           55.20160108438722       55.02403660218409       44.41717024550141
C           55.48738212223283       54.44921750279818       45.81049592731570
C           54.20714619249296       53.92070825042469       46.45514985916025
C           56.10024263667810       55.51529332453056       46.73588129995063
C           57.55535522601898       55.90438908906822       46.45202613697010
C           58.49362379003539       54.71702708025947       46.67387758011057
C           58.01976548409394       57.05950354162168       47.35627974481603
C           57.29253529595478       58.40515249622903       47.21798095763789
C           57.20979811149610       58.83744484044489       45.75708240007054
C           58.03160755843199       59.50138683207309       48.00381637285595
C           57.90474595785403       59.43072173426441       49.53090645911350
C           56.59495689616038       60.07575505048164       49.98433638804095
C           59.07328337039919       60.14399242918635       50.22946358366438
C           60.45717904655007       59.51390887140277       50.04097097690272
C           60.47203202275307       58.05784224966326       50.50054528081922
C           61.53586928908123       60.27775385229002       50.82195780007387
C           61.76420543185827       61.74707967718569       50.44584571359204
C           62.05755548477653       61.90814329908845       48.95533846369965
C           62.94119075600213       62.31333635805688       51.25784991073745
C           62.61993074234116       62.64460363241371       52.71960671453050
C           61.78821923837811       63.92473401081208       52.80632608996673
C           63.88932264739842       62.83478723164129       53.56332858187157
C           64.84721573556529       61.64169235968511       53.65264169271342
C           64.12269740877066       60.35944560515831       54.06137284403872
C           65.96761292706779       61.90666927853425       54.66935776406005
C           66.84085874273696       63.14723116500493       54.44256557295851
C           67.50197338729960       63.12348248125124       53.06594305179796
C           67.91046362878777       63.22862666148172       55.54571902500076
C           67.40555233514897       63.84928577419915       56.85633796273266
C           67.47900699020808       65.37388052483202       56.77220703615251
C           68.21923148672558       63.36326822583180       58.06553889908609
C           67.88879040909458       61.94230857482091       58.53817619678371
C           66.50275527560299       61.89257651395742       59.18165305332160
C           68.90585294718417       61.42727382606365       59.56844176521800
C           70.37057916901263       61.32913905564222       59.12383000063863
C           70.51395041082003       60.54132676641932       57.82277040835094
C           71.21814572973452       60.64477497998483       60.20819329772466
C           71.38523204352528       61.41421267145714       61.52428194989438
C           72.26959789902590       62.64547715344004       61.33289398071838
C           71.99728192718950       60.49685185366911       62.59543840483883
C           70.98702818981144       59.54979955349939       63.25871716050838
C           70.15875221742951       60.30170267752409       64.29865242818536
C           71.70971290627834       58.35266761579555       63.88964310715533
C           70.76518233365361       57.23911478540298       64.33820197710983
C           71.52345296963844       55.99615668755656       64.78727251168121
H           59.75644117579718       56.61465096204915       38.48745487967937
H           59.93495359206612       55.55437192879074       37.08788050174513
H           61.23834269855710       55.68408643750364       38.26861488394619
H           70.82965663207187       55.22450697121324       65.11495644675891
H           72.12284210268997       55.59727409867153       63.97113501063399
H           72.18849764820425       56.23142101356462       65.61574030570141
H           72.40535997169872       57.93580666298647       63.15593850430878
H           72.30311280513909       58.69448776826928       64.74151909459620
H           72.79604133074537       59.91314510964283       62.13066372882815
H           72.45776969337355       61.10804196158467       63.37534268493577
H           70.40519464262080       61.74923834967972       61.87327125205606
H           71.84925383210987       63.31814626495015       60.58968209826190
H           72.36555445999103       63.19526894513185       62.26707621628328
H           73.26520711890315       62.35105701417438       61.00573801036384
H           70.77166533364451       59.67035642663512       60.41876750199572
H           72.21712941048604       60.46042750647234       59.80220522321754
H           68.85104296448878       62.08041014561748       60.44222999577868
H           68.58388559156292       60.43140297091837       59.88447063108326
H           70.31196192903263       59.16487677067224       62.48595522365914
H           69.37470685981877       59.66996745387146       64.70664231966852
H           70.79306158069960       60.63307043267120       65.11878080320200
H           69.68716190518491       61.17721649595543       63.85904847408524
H           70.76746107194649       62.33504839561817       58.95595941485801
H           70.04480166180969       61.06276124867109       56.99349474441612
H           71.56684651965504       60.40650320228597       57.57936767202053
H           70.05518505025570       59.55982099741201       57.92214874228039
H           67.88523013815400       61.26800193889569       57.67739187545890
H           66.45286997440593       62.58377212800683       60.02112334466808
H           65.72485658984127       62.15906440348979       58.47176788335080
H           66.29132168908745       60.89270902876071       59.55171635225123
H           69.27711077740986       63.42781711202390       57.80346633424120
H           68.04994731426108       64.04662684869139       58.90206416183485
H           66.35776307242730       63.57303071808624       56.99836580685184
H           68.51637407940244       65.70200694726185       56.72405545531882
H           66.96547174717969       65.73806454962140       55.88589924136500
H           67.01740759696732       65.83203694214660       57.64385724684508
H           68.28993936535667       62.22222745313672       55.73390704195442
H           68.75526780945877       63.82477652040091       55.19022821731788
H           66.21701225426393       64.04414418272727       54.50674474379971
H           68.09330909169698       62.21906400886018       52.94193006212408
H           66.76003540524914       63.15710205111311       52.27314122675254
H           68.15916469754264       63.98282918957901       52.94356082689182
H           65.51866039015152       61.97581424981126       55.66326410629691
H           66.62227389872862       61.03090445251485       54.67034251063139
H           65.30808790616557       61.47222648829125       52.67483484005366
H           63.43178456291910       60.03729689814099       53.28744924182623
H           64.84303239874718       59.56019433613397       54.22514947190135
H           63.56829032751024       60.51574862426713       54.98492551267940
H           64.43584596514343       63.68842069745865       53.15643006712806
H           63.58178490517520       63.10016617914759       54.57859212648196
H           62.03131727060720       61.83167144363722       53.15368312682074
H           62.33227938570850       64.76574524081099       52.37943961587757
H           60.84792297377216       63.81821550933076       52.27067433922496
H           61.56384453058887       64.16245268467044       53.84381634473564
H           63.75625367554767       61.58937716234827       51.21442420744989
H           63.29860563697677       63.22686711398482       50.77534195568436
H           60.86362561282573       62.32242475804780       50.67920798155123
H           61.19955407216310       61.62715625609400       48.35129894907669
H           62.29662806826385       62.94397306077320       48.72585919346185
H           62.90450160696178       61.29045547430044       48.66352757746325
H           61.28394085672304       60.22077853172284       51.88385028774530
H           62.48312638763113       59.74893474591182       50.68112553800985
H           60.72386989185738       59.53682829687254       48.98098051289991
H           61.48829803620481       57.66872720952878       50.50353357370780
H           60.08145355992235       57.98467920229212       51.51198057187855
H           59.87444012639009       57.42807628219771       49.84798986546292
H           59.10422468262434       61.17374188493076       49.86689705381528
H           58.85958088923441       60.18152185002829       51.30163061179618
H           57.88860956930857       58.38463962983233       49.84523341087179
H           55.74852205164267       59.66158205301231       49.44398209131661
H           56.43109435175396       59.91633386762615       51.04802380500761
H           56.61653726352107       61.14900159399622       49.80292089584387
H           59.08318830905937       59.45154753263837       47.71911451629497
H           57.66070584521768       60.47753703019331       47.67957406160119
H           56.27663998159960       58.30677886218912       47.61551309956041
H           56.62485307737074       58.13806008879858       45.16666951055560
H           56.74030185877791       59.81474057400413       45.67272259735333
H           58.20967852226025       58.90248942399271       45.33613306452643
H           57.94160840484793       56.72357477006442       48.39316504007127
H           59.07956879149733       57.23314648630630       47.14735610212072
H           57.65305490096362       56.21335791882360       45.40750984338607
H           58.40640865372922       54.34542946011138       47.69310471384792
H           58.26706825519602       53.90303186871094       45.99079212966041
H           59.52740018477693       55.01139149273772       46.50669205918434
H           55.47049648806782       56.40574005540503       46.68466383514098
H           56.05234938305624       55.14636237949586       47.76376427053115
H           56.18896335813041       53.61606467661705       45.71832286330555
H           53.45806463301940       54.70736086470205       46.51841998142664
H           53.79165159341751       53.09326070715613       45.88548513264066
H           54.41017996049120       53.56536346359767       47.46319796606122
H           56.12228434328380       55.44986397954548       44.01142082569864
H           54.48717596838100       55.84406694320842       44.53266257721966
H           53.72495803343013       53.59293522135796       43.77538693723724
H           53.67229088933206       55.70459512190579       42.37626442444113
H           55.15041666239429       55.15425951271816       41.58955872667412
H           53.66361603453365       54.21731969482515       41.43881063130468
H           55.75053533236309       52.29431941239679       43.94253835906154
H           56.62622238466282       53.40966139461659       42.89855189197601
H           55.26949727697800       52.66630197408546       40.96055824429611
H           56.68560316259369       50.44704480439643       42.49557891843190
H           56.45668952489100       50.51089933863522       40.74866015409017
H           57.48007857096199       51.69945632449901       41.54212782096307
H           53.27160772538838       51.88621041075013       42.35770645242782
H           54.24636182391511       50.50639605302130       42.83691447966340
H           54.45604698569633       50.02763326213451       40.27229774396382
H           52.34303962890095       48.75115120668628       40.33541904439903
H           53.15679231169824       48.66442129094034       41.88866487343218
H           51.76937039309756       49.73751877198750       41.67707964269032
H           53.57507233271560       52.25652110343361       39.59108887433052
H           52.02764741037134       51.85552214050603       40.31373902143964
H           52.77683805604118       49.73349294631883       38.47246196554008
H           50.55009282456610       51.80334165540430       38.33234053212578
H           50.60073632414696       50.26344373055848       37.47429302754588
H           50.47513695074039       50.28581929727901       39.23244874881808
H           52.82207317154256       52.53980712656439       37.32418731226108
H           52.56743911155314       51.08827396204802       36.36206115639146
H           55.06015460379185       51.60157412863418       38.03159465794148
H           54.37883830504461       49.46465411655874       35.96895745212717
H           55.99947074005411       49.75306628038432       36.59956448671159
H           54.72567052266913       49.20740842983943       37.67975397657345
H           54.54889502524767       53.15404377860348       36.00413619898217
H           54.78026799138953       51.72573964006229       35.01527201247665
H           57.06487403823570       51.73607407960808       36.64801771866350
H           56.73638330251025       52.92272387205298       33.86213138627296
H           58.25521499709889       52.39234510313791       34.58531270261452
H           56.99065470186269       51.21562168193641       34.23235451767518
H           56.40991289401587       54.56922298639035       35.77376743369007
H           57.99189267696393       54.03708017403594       36.32875684608923
H           55.52993720193987       53.78408409731661       38.08660625712755
H           57.53699794873697       52.43737735346878       38.71404554390244
H           58.51182392545464       53.90670213219749       38.71564489692740
H           57.21443719616012       53.70403295604722       39.89166817319472
H           57.40917289725837       56.11716502895377       37.67368934122543
H           56.56832267124718       55.88949814865347       39.20214928747124
H           55.02193299661599       55.98994370682447       36.59941162371389
H           54.27960054948969       56.62519580692358       39.48894295404763
H           53.18630125304453       56.68905895981835       38.10760422775083
H           53.85433270654696       55.14730019150728       38.62858756352178
H           56.54211553502044       57.99969660467798       36.90268183501995
H           55.69356216762549       58.34190574264451       38.39845500410270
H           53.67725771868162       58.02036019699638       36.37972606283909
H           54.77847021880854       60.55033423215993       37.66854756543667
H           53.20201670432447       60.38661156229040       36.90612662656724
H           53.56160084903343       59.48567213365310       38.37930081454225
H           55.99133657702831       59.77782967275830       35.50971507533417
H           54.37351975325979       59.90705351575047       34.83478474010231
H           55.78185150272052       57.23436582275955       34.80584782556446
H           54.33660515976280       56.84639882986948       32.86498191046051
H           53.35508041499676       57.39654125411857       34.21988449537812
H           53.76297939601383       58.51400293122312       32.91690645048942
H           56.21994306473514       59.56616163949347       32.92449679794309
H           56.45034184954587       57.90811349014537       32.39393598086791
H           57.87671188483088       58.90899675765132       34.86762684667382
H           57.75595333386072       56.45675973574978       34.42714635743798
H           58.51664656355138       56.71422775398192       32.85775866871769
H           59.40414734556158       57.06378084719921       34.34146910822523
H           58.55300502567628       59.40748957700189       31.97427179385170
H           59.85793568725401       58.95888537666740       33.05197933987439
H           59.80988901707466       61.30705962309113       32.78992658165116
H           57.40798276189819       61.59704220052286       32.20903122118028
H           56.98807122726713       61.41999020503832       33.91748820549748
H           57.98130962771580       62.77163354755736       33.38932006867917
H           58.76144104849578       60.63463803499764       35.56733548007666
H           59.53726106121848       62.14066350218781       35.11482572156039
H           60.90175588583506       59.42971051215961       34.92789046040144
H           62.97356352516192       60.86881533768599       34.82124480176353
H           61.91995173111412       61.08326466282142       33.43172076403858
H           61.93680374913193       62.28967086438019       34.71943538287468
H           60.18769552344008       60.24173816223519       37.27010602835075
H           61.28774970703297       61.58529086588921       37.02337837638801
H           62.94268598642379       59.44120769938251       36.45600122551046
H           62.42807763123034       60.69620982514709       39.18038999268905
H           63.89621546553379       59.84404321559248       38.70223528945517
H           63.46868725129382       61.36346096207519       37.91895755338531
H           61.09298284061451       58.60376340364135       38.71695623597593
H           62.63733708711015       57.84321018822436       38.33914028933688
H           60.26517923441086       57.91642042901431       36.43746117701674
H           62.87150034299000       56.32190707180266       36.39595884418407
H           61.53187976713323       56.09623872246515       35.27303892999961
H           62.43855947897274       57.60583607935915       35.26744039385272
H           70.13945256356112       57.58837756176030       65.16132115393356
H           70.10818837946616       56.97669580243084       63.50511659612742
C           59.61847920675749       62.79533064161266       56.12183306992567
C           58.75771741222628       64.05524114240045       56.17706268980550
C           57.82824568963981       64.09533879649786       54.96468442421575
C           59.60025525543484       65.33746878217843       56.20431684410958
C           60.63544859331944       65.43803511153081       57.33042343842222
C           59.95088230222138       65.43929473359036       58.69607558253789
C           61.47718855725348       66.71516281861417       57.18675731141959
C           62.46329191918176       66.73234042725221       56.01089144857195
C           63.68509776240311       65.86863207982779       56.31550317338625
C           62.90634752725783       68.17124971917163       55.70351675007576
C           61.83866698655250       68.99803942633412       54.97397977443300
C           61.82891093787094       68.67700244559579       53.48127101372039
C           62.03404436490347       70.50728031587435       55.18370025870568
C           60.71807333301805       71.28866333897162       55.06591648825320
C           60.98670867656627       72.75255757085368       54.72207794797771
C           59.89977945943203       71.18699682948974       56.36356390228239
C           58.38236039899672       71.19007882050852       56.12536321839333
C           57.64675963371226       71.70430076903496       57.36087363193759
C           57.91079007808884       69.78195805141073       55.73944646862960
C           56.51207878944282       69.72459401216054       55.09940642499907
C           55.48332916574770       69.16413865669131       56.08104478558989
C           56.49461684152041       68.86195339034063       53.82842811282737
C           57.37075077017492       69.35074765255925       52.67007851119467
C           57.04906214164069       70.79710490759962       52.29074216412479
C           57.17572191122166       68.47598061162317       51.42500785560409
C           57.47855667450853       66.97672520250264       51.54871215354105
C           58.88503627089696       66.72198996151756       52.08270740471154
C           57.31701080165845       66.34163115897398       50.15808903100146
C           57.10016203904519       64.81802564412256       50.14669471082912
C           57.98639470729520       64.16278256663200       49.08637399878585
C           55.63355111382523       64.46218548302944       49.86647263962025
C           54.65094064057725       64.84378057262306       50.97826135378834
C           54.85355671612786       63.94856685063466       52.19835648156742
C           53.19871581146193       64.72775621116216       50.49119784396071
C           52.21417727995760       65.61935400661967       51.26866933142003
C           50.81456514019661       65.01035188320185       51.23323737277314
C           52.22920324231494       67.03348969165202       50.67291891039938
C           51.33225560406347       68.07384960179466       51.35822916109262
C           51.24985830958793       69.31545082108360       50.46827167796370
C           51.82849476658959       68.44672022764708       52.76743581451907
C           50.73928352439064       68.42867931093151       53.84924119321171
C           49.62406013289748       69.42802369168724       53.55159467871452
C           51.36489283821678       68.72721530748285       55.21849832728773
C           50.44648273723855       68.42130004716516       56.41853570792766
C           50.14448970649545       69.69401975794645       57.20904769934506
C           51.07535007059328       67.38012439193541       57.35181063869108
C           51.21913173688813       65.98680654837844       56.72235115062364
C           49.95171893087084       65.16467535718385       56.94788017026166
C           52.43479962571671       65.23880070698506       57.28550774084732
C           53.78692240271113       65.79690934380329       56.82647524740126
C           54.02344233594258       65.51371846698127       55.34458533512364
C           54.95227827988288       65.18731929907794       57.61477800297548
C           55.00409341616096       65.49424799466220       59.11419054602990
C           55.11785227494419       66.99174694651599       59.38976630238943
C           56.19882212459659       64.75546274357119       59.73510471980299
C           56.07004967035145       64.48301135492474       61.24145835411898
C           57.42844929458624       64.68051900270062       61.91715599177554
C           55.56839043698335       63.06092626483031       61.53168489738015
C           54.19780578092443       62.68432013600601       60.95205878323512
C           53.08326271568205       63.44181857043930       61.67650066374647
C           53.94735428397959       61.16958788942298       61.07276144658079
C           54.26150257588443       60.31915605316527       59.83073348737764
C           53.89518933282831       58.86983490406617       60.14138777243822
C           55.72798736576849       60.44418994896483       59.40741669738573
C           56.21650221363646       59.54900130329471       58.25742406823282
C           57.70712133513602       59.82786152655362       58.06847060766204
C           55.44109659020506       59.80495421547666       56.95991222588805
C           55.82914378608122       58.88792260644630       55.78304437122774
C           56.07536421126786       59.71952552439719       54.52240544983415
C           54.76153258880939       57.83207734589739       55.47393948904094
C           54.52733823621181       56.75481767301819       56.54208079734297
C           55.77111761643091       55.89473327747032       56.74664271109691
C           53.33382532719282       55.89524123781666       56.10268969721621
C           52.72138094918683       54.93754336597619       57.13689968113818
C           51.70205817799090       54.06132887075140       56.40813611930924
C           52.06620552079472       55.72767847770425       58.27676280099948
C           51.39615319611906       54.93014836435172       59.40725866660765
C           50.17885384728858       55.71135402399813       59.90762756985267
C           52.32131404354670       54.67068166467503       60.60260601632750
C           53.57797731972888       53.84289393979418       60.32552107143555
C           53.22889711300023       52.43408063785756       59.85077418540492
C           54.44774279396930       53.74306626864635       61.58481115770480
C           55.17918472550578       55.02378051099096       62.00088429785722
C           56.23795943000020       55.41541867917518       60.97301476240361
C           55.81774640871502       54.80726305147466       63.38139900744644
C           54.87542682337539       55.11658003089729       64.55065954709146
C           54.92414389443388       56.60619874761311       64.87531544596096
C           55.24278114518951       54.29804097614829       65.79376675714062
C           54.71644720354650       52.86974934437079       65.71517532170328
C           55.12494249065458       52.03263423114137       66.91817677775455
H           58.99384032652279       61.92030812011387       55.95573204388087
H           60.33311262391296       62.85716214426541       55.30461559375667
H           60.16379275580704       62.64754382775535       57.05026008793567
H           56.20683796955215       51.94768978845420       66.98208991928286
H           54.76372642388930       52.47703720382545       67.84340067480655
H           54.71096603535205       51.02901040437123       66.83795904974151
H           56.32943379102819       54.28625865038143       65.91149114471521
H           54.82268924658233       54.77782092864844       66.68051515258749
H           56.16154328815762       53.77296729173291       63.44542057912422
H           56.69772562245691       55.44227324702507       63.48586501364358
H           54.45948878067642       55.84519008234697       62.07455620051685
H           56.76064778451356       56.31609383142207       61.28790533481846
H           56.96711488402683       54.61552063286151       60.85593964081738
H           55.79070554406881       55.61685987591454       60.00324676052804
H           53.81753868243207       53.41201184155656       62.41503091058348
H           55.20515998974891       52.96926887559922       61.42320349768848
H           52.62094662740161       55.63986442934220       61.00834971678807
H           51.74260157734477       54.15825104905474       61.37795367579022
H           53.84967648817503       54.85689871828399       64.26299098378099
H           54.72359723229520       57.20471189308224       63.98909089417150
H           54.18801348472652       56.85699924933752       65.63534263916266