3536
 energy: -3716.240358063755 gnorm: 0.000995720389 xtb: 6.6.1 (8d0f1dd)
C           60.46170929559836       56.24076754274082       37.74875303844389
C           61.07473810562806       57.38873057804602       36.94872537175075
C           62.03795128223600       56.82402279149413       35.90681818864473
C           61.77863132249940       58.36007365266965       37.90078469503204
C           62.26540645242255       59.67666049994089       37.28191359912108
C           63.06532361371823       60.44445965109917       38.33571982213048
C           61.10446788821925       60.54218133322581       36.75901547964089
C           60.88187959865199       60.47609322178111       35.23997244992480
C           61.99431026416020       61.22373126642832       34.50757627054843
C           59.50849855945802       61.06966370611427       34.89998957386420
C           59.03941134394916       60.89005686381609       33.44958962856961
C           57.77257205383247       61.71563726359415       33.22764687322552
C           58.86893766255790       59.42074602778381       33.02155028862860
C           57.90253013364707       58.54460904792479       33.83896257783751
C           58.42604696415252       57.10703037573303       33.86899395390186
C           56.47646892621601       58.56496289531220       33.26822353810412
C           55.40418879000071       58.10732726202716       34.26812091756769
C           54.13724926036228       57.69093739801483       33.52248242828360
C           55.08586388871701       59.21066440808727       35.28614816635721
C           54.51553961891772       58.68515252745273       36.60994098150451
C           53.97953726513786       59.84774818846324       37.44239179864037
C           55.57819675851034       57.90202469721032       37.40504302161817
C           55.27164579047821       56.40961156501033       37.58011336441542
C           54.07418688014766       56.20568182503610       38.50576180571746
C           56.51238631355748       55.69262240509342       38.12953060343453
C           56.53132499470886       54.17687698007181       37.89271366602581
C           57.50829980548769       53.51374742739388       38.86145756468706
C           56.91777374555508       53.86920461226270       36.44128087662972
C           56.58696817266598       52.44835019088165       35.96935499263630
C           57.17899906201723       52.23144562685915       34.57648913940159
C           55.06835732582130       52.19475180101003       35.95954795424875
C           54.57017732524569       51.29835999806441       37.10310917625628
C           54.93901808987437       49.84275679759079       36.82279018630722
C           53.05473167786291       51.47340283892817       37.26290553275796
C           52.45016409979647       50.77612382137547       38.48712492410226
C           50.92504908323617       50.78283242017311       38.37557993038783
C           52.89845634644364       51.43043000551614       39.80852915804020
C           53.59523242302497       50.47220123037832       40.78175345555818
C           52.65704419108899       49.33880244073430       41.19444770484929
C           54.07678212419147       51.22676635912079       42.03243218562196
C           55.36436452784476       52.03840517623766       41.84904045257799
C           56.56766979223338       51.11659065000424       41.64492713635994
C           55.65328959529160       52.93650224084433       43.06333515240286
C           54.63626466472255       54.04381199593588       43.37304380382744
C           54.25731860032931       54.82553549980927       42.11522685787561
C           55.20099352916979       55.02437400910595       44.41665454615187
C           55.48694439736103       54.44894332434983       45.80999899099367
C           54.20604420883259       53.92160693167714       46.45492959175490
C           56.09989198631794       55.51532950319634       46.73553225407122
C           57.55533469539290       55.90420440353795       46.45126010820551
C           58.49344568204158       54.71648894122927       46.67340160688491
C           58.01980277486282       57.05887610968232       47.35653433496994
C           57.29213066777888       58.40468491664767       47.21828840362551
C           57.21012923026404       58.83706189009000       45.75711397161089
C           58.03206263105530       59.50091504807691       48.00389228086908
C           57.90495238695574       59.42984108121883       49.53123208722135
C           56.59534550867540       60.07591181974126       49.98453108054859
C           59.07341971577779       60.14387532288800       50.22958873466734
C           60.45735205698746       59.51351166543591       50.04050924177114
C           60.47178587403430       58.05735767796257       50.50102309128632
C           61.53581038264718       60.27753027697400       50.82209858426117
C           61.76369298208205       61.74724231840135       50.44587121456402
C           62.05734574328161       61.90827455873452       48.95519121394081
C           62.94147552641605       62.31248627346672       51.25784329328811
C           62.61956799125557       62.64348804976837       52.71985816482291
C           61.78817492811613       63.92414679765379       52.80609785009155
C           63.88924304764834       62.83441863831259       53.56336489622437
C           64.84764262962699       61.64155501312510       53.65219588620636
C           64.12309636903846       60.35896577156811       54.06116491084276
C           65.96759425011412       61.90694196730162       54.66955186368719
C           66.84064900654413       63.14794793704382       54.44248280705806
C           67.50183005826212       63.12352201826664       53.06580985063679
C           67.91003442744926       63.22842409847701       55.54599733133235
C           67.40429623741592       63.84933753107300       56.85650744076833
C           67.47877036020057       65.37380504179433       56.77190366085953
C           68.21905983692839       63.36365144102066       58.06529618587237
C           67.88892168180966       61.94255927476664       58.53775158550694
C           66.50278609407268       61.89276619396739       59.18213809047780
C           68.90592365544778       61.42771807579626       59.56847253684001
C           70.37073042405909       61.32973969959893       59.12359141421736
C           70.51422019077083       60.54206494419105       57.82228587318715
C           71.21746697686422       60.64470451079488       60.20813295704004
C           71.38400438013134       61.41460496292129       61.52421010326849
C           72.26908802451753       62.64484578847667       61.33210128486699
C           71.99658188154993       60.49688528013306       62.59464592617820
C           70.98641848157909       59.54945677009928       63.25747742084238
C           70.15883451232298       60.30172472133689       64.29803904181516
C           71.70941775148790       58.35268452658960       63.88882393644494
C           70.76450154431764       57.23915647350913       64.33719287024097
C           71.52329759177685       55.99630368357025       64.78596344448923
H           59.75625646757265       56.61490338564678       38.48739395419265
H           59.93592182660765       55.55521498139819       37.08727052867033
H           61.23917366938856       55.68548758288953       38.26810446068242
H           70.83013304183518       55.22431262762932       65.11425335890354
H           72.12269937479326       55.59783586936476       63.96980740555030
H           72.18782893101299       56.23294229293996       65.61400470387841
H           72.40509483396414       57.93596186844580       63.15555972591523
H           72.30089441232906       58.69496234535343       64.74106108502292
H           72.79475193158783       59.91348908814986       62.12939898707454
H           72.45572374682540       61.10794777231686       63.37470649255875
H           70.40405437266791       61.74948794108605       61.87318446104613
H           71.84875810565320       63.31738435470552       60.58893725032996
H           72.36501771029786       63.19428345921536       62.26623894818078
H           73.26397314691079       62.34902402308698       61.00504124968487
H           70.77072380189655       59.67018653227890       60.41781794390042
H           72.21602694594266       60.46116643802502       59.80212690683576
H           68.85029362760724       62.08104895101943       60.44160787827717
H           68.58318231827624       60.43194553267422       59.88436288756249
H           70.31095586403875       59.16460759910402       62.48495147212100
H           69.37489530027960       59.67033046486651       64.70700680921712
H           70.79428545822914       60.63235106886849       65.11718063921309
H           69.68719762448235       61.17755203788683       63.85895640664167
H           70.76668836848063       62.33508808751970       58.95629681285332
H           70.04547661973206       61.06373333164026       56.99294713309209
H           71.56697962973836       60.40714857288413       57.58020047116391
H           70.05496223374743       59.56051838452100       57.92129892145451
H           67.88444710093552       61.26776740310050       57.67754341415916
H           66.45360710932292       62.58337156782091       60.02184580400982
H           65.72417689461413       62.15926273806474       58.47271302790088
H           66.29115387981113       60.89265829509761       59.55198810451779
H           69.27610399627831       63.42688065314622       57.80230318620249
H           68.04923284903467       64.04604052388632       58.90175158558757
H           66.35677891705622       63.57236135070114       56.99869388401086
H           68.51627776861065       65.69968385072598       56.72394411352712
H           66.96553785456615       65.73744951229990       55.88529527821515
H           67.01713375023206       65.83177541447792       57.64337058101765
H           68.28859460631135       62.22177891581735       55.73359692398912
H           68.75360288348560       63.82476202693005       55.19032203856186
H           66.21605285898914       64.04352107913228       54.50707192756976
H           68.09210896160747       62.21840961384400       52.94266817640212
H           66.75965621517412       63.15714227116359       52.27316650652934
H           68.15874675254454       63.98250628900770       52.94471655002189
H           65.51750423457365       61.97526110823252       55.66284647806666
H           66.62146147133045       61.03075692935041       54.66972959419739
H           65.30813517419671       61.47176118970542       52.67490545432473
H           63.43158962131777       60.03679396711946       53.28766467602002
H           64.84380606493224       59.55978808025676       54.22423325179250
H           63.56919555623671       60.51538975115855       54.98515317157623
H           64.43505191504153       63.68735917251775       53.15574699386540
H           63.58114912835701       63.09872023232467       54.57834276218438
H           62.03105637536039       61.83065969151949       53.15345119576983
H           62.33281793747455       64.76392432021321       52.37840973181542
H           60.84768728015462       63.81678513066382       52.27092917906247
H           61.56463201366632       64.16152549628598       53.84364826384930
H           63.75563348998483       61.58795759999557       51.21427840656491
H           63.29825716805615       63.22564804242028       50.77534775396619
H           60.86341706222225       62.32167909781657       50.67996915573494
H           61.19898835042721       61.62783854842100       48.35123914336857
H           62.29655668723992       62.94406210767119       48.72679290370020
H           62.90418588890552       61.29026562274323       48.66435640475932
H           61.28282652065597       60.22042073059021       51.88340301806546
H           62.48256072902962       59.74869283871673       50.68090300883352
H           60.72369875872972       59.53660987762289       48.98109110357378
H           61.48790063916841       57.66833508471637       50.50447416925517
H           60.08069771410052       57.98577481889924       51.51227228901511
H           59.87415180211313       57.42750112669636       49.84863864281773
H           59.10417506224330       61.17299981292862       49.86647343372333
H           58.85963092664018       60.18067541790909       51.30140012018752
H           57.88920018496719       58.38417503231634       49.84518645714664
H           55.74936092191785       59.66201909186365       49.44357419935982
H           56.43206641098157       59.91629531158446       51.04809378842710
H           56.61871653131362       61.14881066635774       49.80291553975702
H           59.08336234161940       59.45019561236013       47.71948118862500
H           57.66121676074708       60.47678349452521       47.68001282691481
H           56.27710462713812       58.30659938677648       47.61596384033790
H           56.62516442643182       58.13737946956641       45.16743244228102
H           56.74088842276871       59.81438539266218       45.67333299878895
H           58.21039712232195       58.90167352315602       45.33731155947518
H           57.94124701672558       56.72255890903660       48.39299669549953
H           59.07906531857462       57.23297171819822       47.14724403553490
H           57.65293273741369       56.21385126255200       45.40770393024792
H           58.40582859648657       54.34570573051501       47.69288029488512
H           58.26577106823026       53.90331110775274       45.99013191809025
H           59.52723231820524       55.01051365274279       46.50620882239673
H           55.47072068006120       56.40578972412197       46.68401509788792
H           56.05258633661271       55.14637899471048       47.76313858202716
H           56.18812797762759       53.61618499369719       45.71861846742701
H           53.45767670073362       54.70891588667352       46.51799685505552
H           53.79137417671924       53.09461812764675       45.88467491363176
H           54.40962036474154       53.56645943310292       47.46286403517104
H           56.12171993962085       55.44991512850584       44.01143684665772
H           54.48634986050695       55.84374237155589       44.53299056592494
H           53.72459941556769       53.59388369199439       43.77582669312962
H           53.67197994788668       55.70507937143637       42.37593005680497
H           55.15060847061338       55.15408839489473       41.59015438231413
H           53.66346524049202       54.21706293561115       41.43916785623380
H           55.74950998276919       52.29479778542967       43.94242497393998
H           56.62531735757802       53.41051766570394       42.89885442979609
H           55.26936867306552       52.66738106918322       40.96097218229307
H           56.68427106477826       50.44783679423549       42.49583793564638
H           56.45509890069152       50.51190673726616       40.74859400594953
H           57.47943882469133       51.70006960153959       41.54230412363786
H           53.27160969232504       51.88711399096499       42.35744917666688
H           54.24663479602129       50.50759544935134       42.83695659422084
H           54.45630512285159       50.02817835944496       40.27326832708250
H           52.34255178153116       48.75378425626987       40.33446626725797
H           53.15600246618393       48.66511453006036       41.88781292241396
H           51.76904316042770       49.73935593469572       41.67669974184099
H           53.57625617934339       52.25705457025018       39.59088580969765
H           52.02875464846235       51.85654641204087       40.31314498432871
H           52.77833867906764       49.73445482090560       38.47249232608834
H           50.55188382542945       51.80449314806268       38.33324209025248
H           50.60203968467901       50.26475223099084       37.47482835271302
H           50.47632059112114       50.28692297541887       39.23302365930892
H           52.82222872202588       52.54045150170054       37.32441085036074
H           52.56899351833535       51.08837206888690       36.36265164490643
H           55.06112678806437       51.60230838827454       38.03224020397091
H           54.37840954764955       49.46709453872406       35.96899571935176
H           55.99954193112738       49.75422149201830       36.59883533184635
H           54.72628724628076       49.20816364152029       37.67941506451866
H           54.54945192506501       53.15456885837011       36.00383213267998
H           54.78153403565516       51.72526213656121       35.01635793244228
H           57.06530957977095       51.73673653919258       36.64847162065985
H           56.73627316795338       52.92424254284812       33.86339720639950
H           58.25516086218224       52.39315589931322       34.58591274150387
H           56.99035486787434       51.21675546441538       34.23294363428856
H           56.41019406868269       54.56939001766290       35.77376418860165
H           57.99235466304793       54.03745673019094       36.32915571596729
H           55.53030706184254       53.78465762228630       38.08615437160412
H           57.53712345968606       52.43782222084396       38.71234754736094
H           58.51199980584632       53.90726592114680       38.71439778972962
H           57.21524052740279       53.70405918547185       39.89104656730890
H           57.40905406729859       56.11770315679545       37.67366306370577
H           56.56839716805282       55.88968611093877       39.20204858485751
H           55.02223610506961       55.99023257897895       36.59976896871717
H           54.27833257639389       56.62529029186017       39.48858701435026
H           53.18653095381982       56.68974458610358       38.10612287723649
H           53.85364580632096       55.14769640527303       38.62743957401916
H           56.54218526847486       57.99944517714207       36.90176216972604
H           55.69468997448008       58.34282065437557       38.39746120994909
H           53.67776640366826       58.02012458999867       36.37933826590535
H           54.77858208302799       60.54984872854990       37.66808114715532
H           53.20194473243344       60.38621192076027       36.90566048331598
H           53.56188524264017       59.48529008461794       38.37901155353446
H           55.99152481488174       59.77797791123603       35.51058338468622
H           54.37384445986886       59.90672501728885       34.83479577378854
H           55.78266252104499       57.23465591339539       34.80578245156207
H           54.33759982636338       56.84777429508057       32.86467065193621
H           53.35574717200015       57.39695264525398       34.21969905599630
H           53.76402357793005       58.51540091677496       32.91765958578176
H           56.22036320062752       59.56651135036844       32.92497447072145
H           56.45148175737238       57.90801240171439       32.39515695064636
H           57.87706450545343       58.90944624137067       34.86855014901180
H           57.75641985213981       56.45620401873642       34.42605231658144
H           58.51653005857631       56.71656649072516       32.85705580677603
H           59.40450922762727       57.06363396190884       34.34095795339573
H           58.55202205810803       59.40777642347162       31.97554134939005
H           59.85786302701460       58.95866321639598       33.05214890309148
H           59.81006301458278       61.30704293404555       32.79121013724220
H           57.40869608588869       61.59636586797524       32.20938886415187
H           56.98795186821353       61.42016105197733       33.91759536686317
H           57.98167121454784       62.77144851589453       33.38926527945853
H           58.76160488115041       60.63604570526053       35.56865445986553
H           59.53824479009587       62.14107828475932       35.11452297613041
H           60.90121511915063       59.42975510994959       34.92814774758963
H           62.97310244462067       60.86911670209992       34.82159794354687
H           61.91902725787747       61.08350005061326       33.43229503115253
H           61.93589338780130       62.28971499297194       34.72034604751585
H           60.18738937465037       60.24207160532546       37.27036962651307
H           61.28749853076563       61.58538652237532       37.02316219903631
H           62.94205042184300       59.44160853441604       36.45632198179007
H           62.42853198118313       60.69710365090556       39.18041802378858
H           63.89644195815171       59.84481814956521       38.70173225555543
H           63.46856177070032       61.36417120494389       37.91829486069416
H           61.09345322933273       58.60426006403107       38.71767681094526
H           62.63766155675189       57.84378368299223       38.33848692259339
H           60.26447287147462       57.91806446286531       36.43877275631385
H           62.87047580448919       56.32336011029895       36.39740727279699
H           61.53130799450058       56.09753954618849       35.27394727194024
H           62.43832544798257       57.60717849220470       35.26817799643920
H           70.13917402742521       57.58828061105726       65.16054943503879
H           70.10683478172865       56.97731452092525       63.50421549075149
C           59.61859375407720       62.79504783540945       56.12199592040810
C           58.75775487653227       64.05536797672234       56.17766933867290
C           57.82819853407277       64.09528345402549       54.96489773276758
C           59.60056642588190       65.33763530070732       56.20476372832378
C           60.63620006247628       65.43782043628634       57.33097439826352
C           59.95046918304809       65.44029758639276       58.69634970719201
C           61.47735166579480       66.71536390247503       57.18674518703781
C           62.46303841688350       66.73218436014263       56.01029441197357
C           63.68541571916132       65.86899476336858       56.31572586016588
C           62.90593535048572       68.17138790004151       55.70366755243535
C           61.83804350893615       68.99805403537405       54.97413777869585
C           61.82939560371653       68.67740116854335       53.48097392846378
C           62.03368962286126       70.50726996968679       55.18337873353561
C           60.71743137557348       71.28807161986948       55.06505362084784
C           60.98646995447860       72.75171534608063       54.72152546984472
C           59.89978613367918       71.18672953396647       56.36319892472430
C           58.38250085833032       71.19036689691222       56.12490244161911
C           57.64700024041669       71.70389448515562       57.36034385540860
C           57.91108418851219       69.78179369349064       55.73962369649168
C           56.51228009958071       69.72501621881683       55.09956277551174
C           55.48354675942100       69.16450976082101       56.08135959681790
C           56.49432146988778       68.86193121836179       53.82864964987994
C           57.37108856192730       69.35110134886222       52.67054888536145
C           57.04866422252558       70.79699970591400       52.29088683700217
C           57.17527421608706       68.47654630816888       51.42523535563553
C           57.47756769696856       66.97702255682387       51.54956035451342
C           58.88460693661993       66.72234086614075       52.08291084568266
C           57.31645514177892       66.34172603021628       50.15865964010437
C           57.10015078735498       64.81781066447573       50.14764713649377
C           57.98638391982297       64.16280014401323       49.08665149992967
C           55.63335077970456       64.46195118262314       49.86664729996163
C           54.65077353806812       64.84418202387445       50.97861840578864
C           54.85363196044770       63.94828388553859       52.19863224433056
C           53.19844335477764       64.72777372381813       50.49130396516789
C           52.21387870961549       65.61959932769602       51.26915114795041
C           50.81420197725600       65.01008190636469       51.23280129371498
C           52.22885165485063       67.03370891560591       50.67294010921611
C           51.33128436856514       68.07365754224870       51.35840412566482
C           51.24996997811228       69.31500223793101       50.46828425324006
C           51.82818477539966       68.44634485543870       52.76755690105365
C           50.73830457238973       68.42756900172417       53.84905878577260
C           49.62390226811377       69.42754882357238       53.55123256240181
C           51.36463168494620       68.72715741554951       55.21802221603733
C           50.44571593907892       68.42147349250706       56.41788730836349
C           50.14430779468333       69.69384998119530       57.20881023597378
C           51.07539007843472       67.38090073361312       57.35163362125896
C           51.21913510185881       65.98767173952947       56.72182438190312
C           49.95176571507869       65.16509014827695       56.94782600914854
C           52.43439029023929       65.23914507856719       57.28603147748000
C           53.78672666568507       65.79731115935067       56.82706077754102
C           54.02355895886677       65.51377436103395       55.34504776117047
C           54.95198718233815       65.18698863706996       57.61516506989337
C           55.00303325278118       65.49494282916754       59.11472558382392
C           55.11805745680999       66.99234202236443       59.38961880634354
C           56.19839062138443       64.75568822847998       59.73467109715916
C           56.07008580220867       64.48365901573763       61.24118764216175
C           57.42874327300165       64.68070556498651       61.91667009677026
C           55.56851602573471       63.06124412134773       61.53129850551583
C           54.19761173808095       62.68533724371746       60.95100877536671
C           53.08288362159823       63.44238566642825       61.67582147710252
C           53.94714930158890       61.17038851545830       61.07232189057816
C           54.26070269089796       60.31997384625100       59.82996923488509
C           53.89441766510050       58.87052633572656       60.14131147187580
C           55.72769790552317       60.44437022823190       59.40739864357071
C           56.21616404245214       59.54828388042807       58.25775900497879
C           57.70692186348082       59.82788182655582       58.06857374986577
C           55.44045424839635       59.80507540481753       56.96026039029211
C           55.82918750719850       58.88788343359293       55.78341799861112
C           56.07503599954025       59.71983656606275       54.52255574086075
C           54.76086663355786       57.83219914939199       55.47409148666896
C           54.52671271258106       56.75490041372566       56.54279283767161
C           55.77064190746739       55.89432351829254       56.74656003616700
C           53.33302816182088       55.89516095179658       56.10267518817995
C           52.72101612136350       54.93669713364370       57.13698512559449
C           51.70100028668483       54.06119561498495       56.40785214572612
C           52.06575580306703       55.72748427510577       58.27689871582414
C           51.39543343695394       54.92940584939758       59.40730155904372
C           50.17833470833021       55.71095921934248       59.90804603889568
C           52.32091616415492       54.67088779298693       60.60289027067853
C           53.57788971892364       53.84338268135025       60.32485825441407
C           53.22850526012531       52.43415745544986       59.85086196860338
C           54.44722251081605       53.74298963682245       61.58472724966729
C           55.17845686480747       55.02409610007300       62.00076172350634
C           56.23788412953415       55.41509302818912       60.97288257466062
C           55.81724251925268       54.80664381877551       63.38135394626337
C           54.87445457487600       55.11603839296427       64.55057196886997
C           54.92407106223100       56.60584919798750       64.87528051562478
C           55.24256394403780       54.29729271517132       65.79351745846510
C           54.71576490246796       52.86882711332721       65.71466947457321
C           55.12483895493935       52.03248629001444       66.91831298036662
H           58.99387765260644       61.92005283336465       55.95535831936032
H           60.33331371558117       62.85688087488752       55.30492700028788
H           60.16365356717402       62.64694584282399       57.05051602568639
H           56.20672822009272       51.94801129115690       66.98093527426595
H           54.76384851944627       52.47836441302024       67.84254976658526
H           54.71040149033604       51.02958013433353       66.83776397019828
H           56.32905648040978       54.28610545167256       65.90993350618231
H           54.82239230175267       54.77757795252378       66.67947106667619
H           56.16005567743717       53.77239580496417       63.44501872182543
H           56.69708809856706       55.44163261908956       63.48574555210944
H           54.45940464105951       55.84519595866258       62.07457466995642
H           56.76022551630703       56.31589593749307       61.28775430895039
H           56.96637417699620       54.61464280178763       60.85681088841656
H           55.79052078040016       55.61604868114696       60.00321006316251
H           53.81680623584252       53.41288248956135       62.41440063528919
H           55.20475554818633       52.97019994836557       61.42236131815856
H           52.62034034138470       55.64010808281641       61.00792052228078
H           51.74281789563833       54.15787951162827       61.37739960555404
H           53.84954787161406       54.85679452278104       64.26223699945636
H           54.72387659876229       57.20419194198952       63.98884749606688
H           54.18811044648674       56.85620157907839       65.63530192395838