3795
 energy: -5103.727740840048 gnorm: 0.000989044766 xtb: 6.6.1 (8d0f1dd)
C          101.31136736091544      109.97551156394650      109.49086666576328
C          101.60120431646737      110.64833956305188      110.81078971687808
C          100.40915145625705      110.82545282992689      108.59637882444176
C          101.08221880796296      112.13892298218920      108.20569440727918
H          100.17257483123279      110.25783095923319      107.69584672157107
H           99.47336810874577      111.02844717105668      109.12112620831410
C          100.17292699959137      112.98210764272874      107.30914232613139
H          101.32255617104616      112.70543744579400      109.10877887593784
H          102.01324934258000      111.92479011988357      107.67797907961780
C          100.77129353975191      114.35437340952635      107.06419732980450
H          100.02770758642846      112.47347401776027      106.35533397538067
H           99.20154749143933      113.11518655185868      107.78906108039766
N          101.85088878602262      114.36049857713085      106.27633750534734
O          102.85134422778903      110.54889903234614      111.18309612219269
O          100.75629445040893      111.21941567890188      111.47726816809639
H          103.04602921396716      111.03813513209576      112.04322898566014
H          100.80368954686386      109.03558641123054      109.71767178014049
H          102.25505487193212      109.75371999993472      108.99393987948201
C          102.55267237922493      115.57244476124467      105.91234012733936
H          102.21689345381691      113.48225371537933      105.92537475456918
C          102.07227493901652      116.17113278109073      104.58619498690145
H          102.37770213966272      116.29847191029087      106.71084906463236
H          103.61755544486275      115.34550674051880      105.85234768971337
C          102.30677509368122      115.24961182062648      103.39252768894256
H          101.00470983408090      116.38680547237742      104.66677314866391
H          102.60438104861912      117.11012642790476      104.43509919399824
C          101.73682076605660      115.81154082020559      102.08733185396969
H          103.37359335652555      115.05535172002870      103.27808631481952
H          101.81143628440435      114.29824831132048      103.59535570827909
C          102.49941600589752      117.01006149856003      101.51904669103139
H          101.73092188395297      115.02165135402944      101.33279743667323
H          100.69998681011586      116.10767026158571      102.26144202105831
C          103.82425726901843      116.61639025434943      100.86933355780184
H          101.87785235977171      117.49982075656867      100.76567150747491
H          102.69770295260649      117.74028766799192      102.30388893485423
N          104.52376765966335      117.79060949961460      100.39075556296710
H          104.45362812366379      116.07403182653698      101.58051136026680
H          103.65748639303683      115.96678534435340      100.00527694767514
C          105.06126076461413      117.88447751892512       99.16973669146687
H          104.54336008221570      118.58691344211098      101.01754189277702
O          100.30280383084100      115.36949943316598      107.57336608402613
C          105.61304491117090      119.25095832028462       98.80257517675921
C          106.64396666136632      119.81352156840565       99.77951136396747
H          106.04980471950900      119.16458146428533       97.80575565114971
H          104.76217552214513      119.93516905554210       98.74621738963704
C          107.92085430812428      118.97572249205676       99.84247284941890
H          106.90017487791721      120.82541853856017       99.45778059487488
H          106.20296202362518      119.89393460484867      100.77455696837849
C          108.92091605303344      119.61603926078338      100.80703043636657
H          107.68081831023237      117.95930669989389      100.16175217561539
H          108.36537985226829      118.91006094161183       98.84667025261335
C          110.16304788618640      118.78007980731032      101.04870193958092
H          109.21236214730941      120.59335410289593      100.42334065797260
H          108.43117598707620      119.75263554337246      101.77478453226300
N          111.29214039494707      119.31986173133932      100.59914067664428
C          112.60703282287440      118.77011269804953      100.83470806568845
H          111.26552168119790      120.13104684573776       99.98740809141808
O          105.07437830761573      116.94531025627238       98.37338406624745
C          113.60149052019720      119.87978948799557      101.16106500963498
H          112.52704317072210      118.06038370470127      101.66061634991308
H          112.94795832093435      118.21838576034089       99.95224793021237
C          115.01272063613783      119.30563222814480      101.24466425873304
H          113.54787729680064      120.63756520011226      100.37758289005060
H          113.32164915543629      120.35502672633217      102.10090581442215
C          116.04808763038581      120.28807262972784      101.78774424609620
H          114.98712230212202      118.43162842000552      101.89460785143838
H          115.31502045670481      118.97011897970638      100.24921389265714
C          115.87763240340243      120.53258246092581      103.28393257174430
H          117.04474514884583      119.87636197345921      101.61445487985928
H          115.98005468382996      121.23632844819304      101.25331588558629
C          117.11421389417519      121.20655509814267      103.87678721228296
N          116.97019516013600      121.39747810703544      105.30586111688004
H          117.99502659750772      120.57962520375594      103.72149450966207
H          117.28763362481190      122.17318984930638      103.39695097025560
C          117.55945248098725      120.61062179928742      106.21183939461504
H          116.27181655257019      122.06188352231992      105.60605460381424
O          110.13040348138540      117.70996861904874      101.65938033637127
C          117.21307118140905      120.88784990052515      107.65539837748463
C          118.37773746142035      121.60255370113586      108.35113124444393
H          116.31061953248026      121.49525907248245      107.72748695535306
H          117.03486599643129      119.93132207232942      108.14770353385941
C          118.53862824131112      123.03166487971963      107.84212228162055
H          118.19518792230195      121.62494508935524      109.42617898645045
H          119.29789321577945      121.04185902122929      108.17618145528438
C          119.57075441602423      123.81815682152484      108.65504659544554
H          118.84684946512532      123.01938617036718      106.79463676544991
H          117.58015355357632      123.55015065446864      107.91504003635400
C          120.96003824698018      123.25169339814123      108.43257400118387
H          119.55874480006321      124.85636301875216      108.32547356893757
H          119.30963017713070      123.76194410983388      109.71052511751535
N          121.32976370122775      122.35476301873629      109.35083442797588
C          122.55231636880514      121.58463419073340      109.30136363213039
H          120.73654176706449      122.22356364165269      110.16549903756410
H          114.99852050214774      121.15299623589739      103.46297728196572
H          115.73133572057624      119.57638288325050      103.78768242776526
O          118.36251541220855      119.73362473486411      105.88982070739830
O          121.65372892173706      123.56845420385045      107.46799092666758
C          122.35015745455883      120.21694774134633      109.94768945103422
H          122.84518129821150      121.48368092481020      108.25207939631463
H          123.36116285627290      122.11443602972487      109.82225936396365
C          123.60284158930662      119.35378499523067      109.81976701051096
H          122.11085995067637      120.36224793537609      111.00277214600248
H          121.50856443949293      119.71356742675960      109.46913092618762
C          123.50883929893944      118.04184634189095      110.60216965347493
H          123.77343536117417      119.13568693203960      108.76336627206334
H          124.46628513522413      119.91818975647594      110.17848139023326
C          124.67866777022529      117.12906357875676      110.24538419652264
H          123.52582988382059      118.25654127853012      111.67152130468735
H          122.56786509046965      117.53907255971147      110.37437717303288
C          124.80278022843331      115.88989134447985      111.13822143938133
H          124.58326511969429      116.79902799993252      109.21009790257388
H          125.60672562079735      117.69513481797388      110.32133466402095
N          125.73912732579865      114.92693864807842      110.58116335069185
H          125.16693721855489      116.19089377032095      112.12469145690957
H          123.84349700816996      115.38555720355434      111.25344052984957
C          127.03677093074029      115.20364018077967      110.41644675218831
H          125.35289082590171      114.12646514358237      110.09236183358529
C          127.84713829305505      114.13816724153639      109.69841711285655
C          129.21994318802470      113.96605456281344      110.34758080221040
H          127.29126559653960      113.20314361363648      109.67059690439190
H          127.97086873189836      114.49909219474422      108.67172937661636
C          130.29359914749227      113.40978529554837      109.41602517264239
H          129.54889162378856      114.94837178342534      110.69695650256973
H          129.13207427938596      113.31913443057256      111.22323193987437
C          129.95788484462770      112.02276035516866      108.85496578723360
H          130.45177035324755      114.10265052382829      108.58587309068366
H          131.22773569015303      113.33751465210396      109.97886204171070
C          131.18816603518695      111.45750041826359      108.17648247540232
H          129.65921470631727      111.36118220579090      109.66641282759763
H          129.15346725134120      112.11062622577137      108.12418477474456
N          131.90111296171563      110.61944879715141      108.93176353506402
C          133.13703057117004      110.01321049646133      108.48721920976728
H          131.54345514757202      110.35847652702435      109.84338183389183
O          127.55212966333546      116.25153918468557      110.80638686134266
C          133.15946237705663      108.49955385296002      108.69700028555536
H          133.23813760926402      110.25163887737683      107.42473553870472
H          133.97810682203939      110.46766878958481      109.02505917533894
C          133.29071911876431      108.12314481877931      110.17282928186113
H          132.25220361208801      108.07012151380773      108.27212079426168
H          134.01282932337909      108.09783218855827      108.14796893559129
C          133.56754005878946      106.63381941798620      110.38961881491565
H          134.12094747272766      108.69159608122384      110.59782740082258
H          132.38129778673766      108.40513220222904      110.70397217493600
C          132.33031751180769      105.75653858769944      110.21059735515722
H          134.34388796433964      106.30813197252154      109.69424720624352
H          133.95186650300954      106.48629408175107      111.40091384091434
C          132.69008078251477      104.27607051945827      110.28844647399005
H          131.60574969138756      105.99025463559924      110.99229548344097
H          131.86666050475304      105.95639092485726      109.24510898347961
N          131.50543948928544      103.44421055060296      110.32387162134916
H          133.31158113188869      104.00067839916326      109.42722746686076
H          133.26661777960339      104.06202988868144      111.19368202610909
O          131.52819008090987      111.78308044148072      107.03656137495982
C          131.46005202447392      102.29732196642578      111.00739212459047
H          130.68810008432422      103.77414410361577      109.79532722739567
C          130.13665530086024      101.55510379071316      110.91596273336238
C          129.90724730746552      101.00286511043994      109.50740195741366
H          130.16940587266299      100.73150167912790      111.63046998874252
H          129.33147603128978      102.23306029548702      111.19328023377044
C          128.70549518850407      100.06105625200399      109.42371578108003
H          129.77351698725397      101.82615173375493      108.80565004101906
H          130.79691060109349      100.44561309931859      109.20556141861294
C          127.35289974369869      100.74972091344998      109.64534372363831
H          128.69507526276882       99.59934280027849      108.43370209472819
H          128.81627736121933       99.26063672950909      110.15909736131998
C          126.27213700641155       99.69865039674487      109.48644243750542
H          127.29463943977973      101.16540979755464      110.65051079919428
H          127.20398429723571      101.54491403824855      108.91654105411953
N          125.69470872567585       99.68320130463525      108.28423161991199
O          132.40665558996650      101.86150576822151      111.66176003012451
C          124.70569462508463       98.71516899344492      107.87224876467626
H          125.82060393609885      100.47123156773058      107.65222979371832
C          125.06499950392576       98.10891824188931      106.51429518003056
H          124.65744939967594       97.94489009451610      108.64489893482104
H          123.73242244998318       99.21519581296172      107.80329375574497
C          123.91153657413774       97.31925278509534      105.89140719055082
H          125.33787223204629       98.92803150832648      105.84437426287398
H          125.94080746689347       97.46734719637016      106.62116844273385
C          123.63340651569501       95.96218289031775      106.56301359258951
H          123.00992673314592       97.93354622551112      105.92481924350858
H          124.14436381997299       97.15562817084158      104.83843540889407
C          122.17730900762400       95.79885595524946      107.00767325959470
H          123.87555312924948       95.15890710895351      105.86673224774752
H          124.27830120399491       95.83733866198477      107.43403002113330
C          121.90894065234170       96.57821974983121      108.29494851818775
H          121.50658104243988       96.15867017086182      106.22493864901715
H          121.95594693452566       94.74428397174590      107.18051366164616
N          120.50447684571297       96.69456647156241      108.61489013329687
H          122.39813000711648       96.08389037477933      109.13825241890146
H          122.30787964313994       97.58892847858522      108.19336862191912
C          119.91316327242693       96.02608028069452      109.61631782845066
H          119.96080554652778       97.29766966721365      108.00244690909201
O          126.02055335217075       98.87591100813256      110.36874443159762
C          118.45759447873972       96.42724911656200      109.81282591860392
C          117.71442816196794       95.63601471237325      110.89018554443309
H          118.44518177118842       97.49542194509908      110.04177167628008
H          117.94814706398931       96.29338056139139      108.85609324703715
C          118.32210990301147       95.72866079513639      112.29108107896657
H          116.67887692098367       95.98517577980535      110.92214267608965
H          117.70410978784730       94.58297944990011      110.60042440153816
C          118.36458792548966       97.14833543938066      112.85871751633566
H          117.72950755905278       95.10663817086015      112.96577466100102
H          119.33436910821322       95.32705869134354      112.25931254679999
C          116.97092965988431       97.67378209690797      113.13395403699404
H          118.89333580330216       97.11222010458424      113.81342802012620
H          118.90391627223640       97.81236787892725      112.18868277514591
N          116.64472595738891       98.81519408777754      112.52036477277055
C          115.36166162371616       99.45513570090378      112.75116795414030
H          117.32131935115136       99.28107594480846      111.92990732943717
O          120.51135730406261       95.21533375524602      110.31513824567917
C          115.08833711258914      100.63315298774648      111.82554872708924
H          114.58097406339441       98.69465076309972      112.64869780148430
H          115.33889529219516       99.80842511404877      113.78903185204800
C          114.66941624069165      100.25753545133959      110.40367446069058
H          114.27611937241575      101.20515712089929      112.27950089738378
H          115.96699053681488      101.27942100971002      111.79230307602855
C          115.78984740796825       99.64068428263310      109.56744659182870
H          113.82339842661601       99.56927241181417      110.44555171693426
H          114.32976804070526      101.16860358850212      109.90475323421892
C          115.40640507725679       99.58598755798975      108.08892384893549
H          116.69313297739605      100.24322128705398      109.66944506954509
H          116.01637137485044       98.63395677593239      109.92107784586105
C          116.55547536444629       99.12491688585359      107.19998628774751
H          114.56701244473513       98.90343799697496      107.95029464241507
H          115.09414873158784      100.58061993761829      107.76356658843143
N          117.65364253841315      100.07148053396702      107.23320677524292
H          116.93774522211692       98.15190818159012      107.52212561557455
H          116.20657555377153       99.02083050657170      106.16585218910839
C          118.93150997349160       99.72153125287176      107.09044517832641
H          117.43906286886285      101.01096797356611      107.53921648879863
O          116.19641849251610       97.09122107711494      113.89088901973021
C          119.92685176237694      100.86186809569976      107.23607578856861
C          121.11188481386785      100.71154226824416      106.28444305052710
H          119.42174546721155      101.81384099750500      107.07937035086556
H          120.28121566325434      100.83872414741623      108.26927839145380
C          122.24584892859680      101.68877766313547      106.59247666412126
H          121.48039127196728       99.68553161075116      106.35011384536470
H          120.76883493364224      100.87001332878516      105.25999609650006
C          123.35923617177946      101.58312109670025      105.54407309197882
H          121.85809676379148      102.71002326357777      106.59834551128434
H          122.66000885654472      101.48105910442577      107.58319943034901
C          124.55642091735439      102.43749892671670      105.91778537497628
H          123.68580607629661      100.54564498934305      105.47028256202533
H          122.97689743200546      101.90556063173781      104.57518541526298
N          124.48579219125922      103.70059119002543      105.49681013380523
O          119.28257201809964       98.56373327726742      106.85828330568458
C          125.52731732006174      104.67974340037671      105.70954095790269
H          123.70404744241739      104.00121141569052      104.92158421114661
C          124.99308833230340      105.92700363600825      106.41079826993577
H          126.30547144381484      104.20050730995465      106.30843372469793
H          125.95513000396623      104.96083773007294      104.74092187308631
C          126.07087443317418      107.00293592145948      106.51041738857487
H          124.14104447232788      106.30601707707069      105.84478212259087
H          124.64451688048908      105.65601137628136      107.40929717687960
C          125.59007478506472      108.24141739551683      107.26204920399208
H          126.93920984913419      106.58538198661152      107.02321842445370
H          126.38974109522515      107.29071616856857      105.50663682233660
C          126.73705930226774      109.21377331864939      107.52568516985720
H          124.81892180896700      108.74406007623116      106.67809785973468
H          125.15167022861357      107.93793492392074      108.21404642143840
C          126.27853851510669      110.49280422946586      108.21164192321473
H          127.48670306429609      108.73220809483026      108.15619065550759
H          127.21967667403085      109.47661009392850      106.58192708305310
N          125.58900149804671      111.36452226664414      107.28273791184779
H          125.59675158589934      110.27237079218921      109.03867406497908
H          127.14700126968822      111.02080328280007      108.62525269129915
C          124.96762677801007      112.47702534415346      107.69048319096576
H          125.83117644375365      111.26041285356341      106.30614324688656
O          125.50980076002531      101.99792447372134      106.56404750482892
C          124.43106628262730      113.35131152502964      106.57157019828273
C          124.31872687938578      114.79921107816541      107.04080012743346
H          125.09816912602192      113.27640727860663      105.71193154732980
H          123.45158495466077      112.97531546377920      106.26169252859629
C          123.82182426706943      115.74133348575275      105.94931836209437
H          123.64196749551948      114.83582813313998      107.89680391844307
H          125.30400167528046      115.13196347957692      107.37652489415686
C          123.58470595740297      117.14305681284804      106.52076828840707
H          124.57186808163691      115.79874109511948      105.15714603413132
H          122.90181665187164      115.34946209358864      105.51145930006140
C          123.20246242040005      118.12273723585599      105.42814093068888
H          122.79874719302953      117.10922940267713      107.27578733832974
H          124.51013551311088      117.48984215543237      106.98383467842139
N          121.92721750621742      118.03280923592553      105.03339044764422
C          121.34677164421373      118.83986688138081      103.98366789819447
H          121.28356951824362      117.48081054492349      105.57943565957632
O          124.82550952812672      112.74751777537672      108.87966884045373
C          120.55756713664954      117.99863084743399      102.98043875388360
H          120.68619381468973      119.59034718843967      104.43075676675360
H          122.17614893088718      119.34668158991347      103.48614278762747
C          119.26376832021415      117.44239252833576      103.57548902590067
H          120.32150232734729      118.63551818510109      102.12555363554425
H          121.18802997905746      117.18539489078148      102.61645414449116
C          118.31333211780796      116.91522398782418      102.50291708743781
H          119.49301490401052      116.63180115148617      104.27017442156465
H          118.76366204102875      118.23154741813308      104.13796641632534
C          116.98765974245967      116.47170588032550      103.11483558070853
H          118.12911213716495      117.69895989204895      101.76543407524206
H          118.77586638948273      116.07551952887061      101.98375816793180
C          116.04907343784352      115.88250316668112      102.06942409274845
H          117.17468678195171      115.71675480275401      103.87929635266730
H          116.51276082538037      117.33220615793812      103.58847575791891
N          114.71786521212853      115.72848770436057      102.62386682039336
H          115.98098440370147      116.53192454756068      101.19349345736101
H          116.42480611856405      114.90834611730540      101.73993606733141
C          113.62345204421993      115.48031601925997      101.89454021210881
H          114.66898867278158      115.66556781510671      103.62863135419198
O          124.00897123666057      118.90676950002046      104.93900390471107
C          112.35128802661313      115.30169793645626      102.69189943051062
C          111.91470418575672      113.83219462292504      102.62836246690765
H          112.51643674241761      115.59708894850448      103.72731532938151
H          111.56846704309461      115.93673638431024      102.27279778654317
C          110.96242171128534      113.47030067120264      103.76377939221982
H          111.43066252462336      113.64444772323995      101.67113056185096
H          112.79827995858084      113.19214698906579      102.68128134241985
C          110.45555729786680      112.03276016683610      103.63090827570161
H          111.48296162987462      113.57302969172532      104.71709234626630
H          110.11222401979055      114.15316736041581      103.75768712911326
C          111.60027773410424      111.04001447864772      103.61172867512813
H          109.83142395111619      111.79281709154094      104.49352288197879
H          109.85093590190959      111.91005404557821      102.73302805998860
N          111.49731881242819      110.07037368797830      102.69808050982363
O          113.65932133431009      115.38940164481690      100.66753750411559
C          112.50926913195828      109.04649528009685      102.52598856246722
H          110.69831142509540      110.05193653286312      102.07587325965154
C          111.88834444413213      107.73090243096497      102.07339027680095
H          113.25127977840658      109.38175069369838      101.79142280245019
H          113.01416228848512      108.92262392113457      103.48841926768519
C          112.89778811813864      106.58387051208769      102.10276054837487
H          111.05321555436829      107.48936340256006      102.73267254087958
H          111.49787981017549      107.85197592121322      101.06129777249315
C          112.30362045880318      105.31300170019341      101.49371816360321
H          113.79247080279018      106.86667861228089      101.54568510305108
H          113.19464960658165      106.40075087078149      103.13572758825551
C          113.11363225056361      104.05029405059742      101.80349960959529
H          111.28198635007118      105.19023909724329      101.85974275064325
H          112.23946823120770      105.43791051895792      100.41116762301539
C          112.88832022131623      103.52721387231345      103.22865713017859
H          112.84006331097805      103.26335734388599      101.09527784938746
H          114.17562623885503      104.25897744821167      101.66797610395307
N          111.55545222706026      102.97817248094361      103.47714923535554
H          113.61421882010069      102.74135485741903      103.44663450167246
H          113.04718780945159      104.33531232790483      103.94454544387420
H          110.85120399154184      103.60288975243309      103.09293065622121
H          111.45098261121805      102.09268710694245      102.99164569421997
O          112.54802575720736      111.11161428062934      104.39188713486718
C          109.99421205166438      121.97403071405130      130.01252649816504
C          110.32820349123698      123.21923094087343      129.23189263838898
C          110.01454300424479      120.74922996257968      129.08030359581116
C          109.07321546552090      120.91449807640085      127.88186837021804
H          111.03469191035781      120.59051902921877      128.72826064367769
H          109.72511502420497      119.87032773170675      129.66033676845313
C          109.79323536242367      121.48813295928625      126.65265901332619
H          108.64385352199530      119.94895249477149      127.61399800019160
H          108.25026772719373      121.57455086868062      128.16420776334482
C          108.81311817859320      122.12247408512457      125.68580134861207
H          110.51033225059088      122.25072465174121      126.95575818651085
H          110.32397136662101      120.68715517117307      126.14057861525113
N          108.50695619303659      123.39468012649456      125.98425732346364
O          111.62335965950622      123.38626407074202      129.05849045948779
O          109.49106893318766      123.96948198931261      128.76577056319783
H          111.82722613421835      124.12275884994422      128.40076961175055
H          109.00234834932493      122.08913920505501      130.44835095421121
H          110.73406634452149      121.84078734755863      130.80009625646065
C          107.55558958092151      124.16023833320764      125.21321132564510
H          108.83064997525129      123.79205232800636      126.85677306131497
C          106.22314841097946      124.35990246659102      125.94212283104397
H          108.00383158713727      125.12433301545055      124.95976878272093
H          107.38334903029065      123.59172249271225      124.29684678145330
C          105.06794164741331      124.53076534088062      124.95817207279443
H          106.03123029576565      123.47679448898509      126.55569791921114
H          106.28787180512484      125.22138213107216      126.60842232479085
C          105.20456504490031      125.75748953709503      124.05981345411834
H          105.01449465304339      123.63990755070279      124.32899710219770
H          104.13242140238533      124.60206239332298      125.51671032022574
C          104.07552534260833      125.79853091629120      123.03295124831654
H          105.18757880201410      126.66495313042185      124.66662627016983
H          106.15878980395310      125.73417999878720      123.53340112583483
C          104.22281590496164      126.95789509906045      122.05338297337501
H          104.07444929153309      124.85956480842177      122.47759107850932
H          103.11852041975266      125.89111290693457      123.54777304043954
N          105.26322039763507      126.68593166371163      121.08614419941067
H          103.27356730180767      127.12794839066211      121.53027806093175
H          104.47032020434312      127.86545969999685      122.61228073102887