3795
 energy: -5103.137483683647 gnorm: 0.000904370628 xtb: 6.6.1 (8d0f1dd)
C          101.32931246285598      110.00520135244699      109.66218324026165
C          101.66791863298806      110.71613763415650      110.95198652110047
C          100.43475988881927      110.85185607886064      108.75619434123452
C          101.12206532374724      112.14902303506916      108.33500973441114
H          100.18123877002296      110.26991119031071      107.86885596286160
H           99.50704925416116      111.07787690759143      109.28424908283920
C          100.20015493900310      113.01251922301651      107.47088486703346
H          101.40403416199385      112.71276998051631      109.22714129413264
H          102.02935579398866      111.91399648316879      107.77573535998012
C          100.81089437484158      114.37613309180098      107.20662252766557
H          100.01205531740780      112.50980683583366      106.52106273380424
H           99.24857737803056      113.16309607613117      107.98443285787449
N          101.86607821756176      114.36746515025422      106.38468069026601
O          102.90518392112661      110.54268999423614      111.33863215298138
O          100.86448869777709      111.37657925720754      111.58146509253409
H          103.12793698270593      111.06835017936238      112.17374349268457
H          100.79352000735916      109.09290625310410      109.93554012800834
H          102.25407779364407      109.73050929650270      109.15525694678993
C          102.56446805177649      115.57473695917744      106.00177290605605
H          102.23198931510697      113.48331581661718      106.04397572752531
C          102.08258057551637      116.15047752507593      104.66557822267355
H          102.38753512099217      116.31327420619698      106.78850734519401
H          103.63146436278672      115.35375801763382      105.94535302540021
C          102.32463007446368      115.20809439713214      103.49004184466239
H          101.01369703525519      116.36274153976350      104.74193953906884
H          102.60981437659289      117.09027238190441      104.50037945609677
C          101.76650340666549      115.74217577088989      102.16829459054051
H          103.39234939174953      115.01215560047372      103.38934026410406
H          101.82706809188690      114.26172947023940      103.71027130465929
C          102.52804288641364      116.93256071607590      101.58281223874691
H          101.77309313759322      114.93540702173534      101.43163015871785
H          100.72502407567551      116.03408449059199      102.32604480799939
C          103.87268094960901      116.54387999957032      100.97010774245369
H          101.91371477799387      117.39139614579929      100.80434210615618
H          102.69685131937558      117.68765799589998      102.35156590036146
N          104.54480197321216      117.71668345370900      100.45548847284131
H          104.49935755326939      116.04193502029865      101.71295820207135
H          103.73567954504759      115.85941864936456      100.12829929827220
C          105.14769412856108      117.74450896187795       99.25357043459327
H          104.52369699270365      118.54287658816689      101.03919449438327
O          100.37233713808800      115.39779139689122      107.72433862874803
C          105.65391585144346      119.11455377275469       98.82760428360751
C          106.66458861040834      119.73582694073471       99.78995000060897
H          106.10307007909930      118.99982966262355       97.83946450938350
H          104.78841875779517      119.77666530563565       98.74227373998670
C          107.94771748638891      118.91188609497429       99.88972799211001
H          106.91066722405067      120.73998450845393       99.43652617189655
H          106.21517708040058      119.84282642422497      100.77881555898064
C          108.91947598231459      119.55901545890327      100.87909774599935
H          107.70716007805451      117.89624096376816      100.20788248255596
H          108.41986675146116      118.84643388876593       98.90675435966229
C          110.16550853965489      118.73589268410471      101.12413014347071
H          109.20567182028223      120.54465733614506      100.51230037252823
H          108.41318324863038      119.67538943385311      101.84069789332557
N          111.28755985477662      119.26854645847797      100.64480721880454
C          112.60265417367688      118.72258055182178      100.87870150213638
H          111.26085169216938      120.08215976289878      100.03452163233430
O          105.24818672850185      116.75908346947898       98.54155134835716
C          113.60283195754191      119.83986884872400      101.15558708526483
H          112.53610562823499      118.04165130260795      101.73023050776052
H          112.93304609120277      118.13970468026345      100.01322894646201
C          115.01546298977252      119.26860179000560      101.23026723503904
H          113.53599160660404      120.57666845799559      100.35383217278230
H          113.33970365947314      120.33978648652025      102.08765152858270
C          116.04690119329692      120.25609782461883      101.77003949820843
H          114.99856514010342      118.39436494545605      101.88167705541861
H          115.31705778500738      118.93135593572278      100.23507108724509
C          115.86571952193370      120.50685307630108      103.26291090282336
H          117.04755852367515      119.84978730376361      101.60375785183423
H          115.97657530524279      121.20278480937665      101.23258152529290
C          117.07510730037785      121.22549083217065      103.85577707251822
N          116.90362770209990      121.44000275806349      105.27860568301979
H          117.97572151046830      120.62095930216931      103.72619379891057
H          117.22731574929014      122.18704351670003      103.36023088082057
C          117.45044082917825      120.63692196921882      106.19747120733768
H          116.19922589352093      122.10800126973562      105.55502140358426
O          110.14660540498477      117.67505047288789      101.74979390964660
C          117.08741952934407      120.92058430702133      107.63507904386448
C          118.25735601636154      121.61764730499600      108.33976887845157
H          116.19368178017474      121.54281541149409      107.69442144247844
H          116.88788391552362      119.96770975118547      108.12659815893197
C          118.43426378485451      123.04731832152635      107.83934887501540
H          118.07244379090804      121.63622545071590      109.41461445456771
H          119.17158685921098      121.04720170417336      108.16364006473492
C          119.48144779538896      123.80997274106275      108.65325390400739
H          118.73714459279081      123.03664213308724      106.79025684228198
H          117.48192537787803      123.57641080336992      107.91965188401169
C          120.86302319294714      123.23159572349587      108.40694219253048
H          119.47761488163111      124.85306159703833      108.33897350643907
H          119.22656016058895      123.74186084607264      109.70965504104801
N          121.24152821543213      122.33179736674396      109.32065726822633
C          122.46644635396000      121.56593874877137      109.25706582506119
H          120.65751753922480      122.20147431284481      110.14072405492253
H          114.96898858203697      121.10318336286574      103.43714513953931
H          115.74740596393974      119.55056769891263      103.77606427863876
O          118.23948432518584      119.74450099269778      105.88876280055131
O          121.54026784016371      123.54245264145516      107.43454493371952
C          122.27298397292961      120.19958815745751      109.90822978456289
H          122.74665196089565      121.46564509542117      108.20493024395957
H          123.27631711448674      122.09823149843696      109.77294568481297
C          123.53815761774773      119.35012537235602      109.81884451128677
H          122.00593618209804      120.34894833903488      110.95726535568996
H          121.44699742894629      119.68027763072971      109.41775927723393
C          123.42511758702192      118.03352427304408      110.59108401247681
H          123.74457928831413      119.13862303393292      108.76822855298762
H          124.38256116136874      119.91942548236747      110.21242382105206
C          124.61404289139332      117.12968270534309      110.28112400256050
H          123.38977343364020      118.24258149427457      111.66234086343370
H          122.49576206788909      117.52516730692857      110.32360768114003
C          124.67665049650952      115.85578421372998      111.13324773321376
H          124.58209912641189      116.83706470201400      109.23131744037320
H          125.53560722750689      117.68788657384982      110.44060374027697
N          125.62112235979542      114.90360521968130      110.57818590894317
H          125.00041188656692      116.11558249638372      112.14614287583812
H          123.70299167959847      115.36873072302264      111.19253776028005
C          126.92820765292022      115.19248087334387      110.47992182125766
H          125.25218921514256      114.11831805341285      110.05027530481152
C          127.76045242965178      114.17463946364188      109.72547621469678
C          129.14608807784842      114.02984400193918      110.35318882826552
H          127.23207534700440      113.22389547488625      109.68246252322204
H          127.85772059833657      114.56314211256164      108.70520942231421
C          130.20779818805087      113.47385688702228      109.40823599437110
H          129.46460989388808      115.02056013627757      110.68607929106281
H          129.08097951151723      113.39309890280737      111.23910390592694
C          129.86606924877185      112.08222885291981      108.86113143240750
H          130.35021047873755      114.16117360815657      108.57242107950762
H          131.14953815179038      113.40602660768937      109.95879281511742
C          131.09405153087320      111.50278475314377      108.19084606488732
H          129.56397924589524      111.42992210524041      109.67923883894623
H          129.06322745518571      112.16592118530635      108.12884490201398
N          131.84023079532525      110.72981340837281      108.99171584474227
C          133.07090907169763      110.11624209949140      108.55221545407839
H          131.48808259064245      110.49497594459106      109.91182128843552
O          127.41347657724262      116.21778320989236      110.94703491479407
C          133.07873426311590      108.59955881291407      108.74554008980827
H          133.17949014313908      110.36258396373623      107.49203563960566
H          133.91522494823943      110.55506390205213      109.09996917426639
C          133.17064681644760      108.20883038920209      110.22030386669773
H          132.17711285322818      108.18146401063858      108.29663802541813
H          133.94086270859788      108.19402067680049      108.21171351596830
C          133.42707042112173      106.71550224642358      110.43161191167768
H          133.99645205080679      108.76624618390825      110.67007519615548
H          132.25142600385288      108.49677820327564      110.73065435789700
C          132.18629077875599      105.84822208420269      110.23061534795754
H          134.21034391734571      106.38632474862085      109.74469562719959
H          133.79636704413196      106.55690948448100      111.44711022190434
C          132.54617000937111      104.36496156970342      110.27790410092646
H          131.45968930559894      106.06754295747831      111.01553093717598
H          131.72239022848072      106.07242094963443      109.26911535524066
N          131.37652156185760      103.51789318741683      110.29334563369547
H          133.17346767675144      104.11608156203047      109.41198358690134
H          133.11270656673102      104.13567285166647      111.18484870096147
O          131.41085128424180      111.76272224553938      107.03548171988747
C          131.26502194785868      102.48012220437423      111.14327510306107
H          130.61570987883005      103.75733795258773      109.66125033764253
C          129.98636425723473      101.67021081444045      110.99436183053916
C          129.78487347436726      101.12447552811466      109.58077614210768
H          130.04822395713228      100.84215753702104      111.70170936461375
H          129.14603028460328      102.30411366287620      111.27596015984589
C          128.61763838429036      100.14073210953563      109.48827412537889
H          129.61692358436514      101.94534973368573      108.88260262868332
H          130.69591845412708      100.60563554634682      109.27433098366086
C          127.24394115144619      100.77696627634639      109.73440662749447
H          128.61542485770445       99.69982837801152      108.48830619456739
H          128.76426635330333       99.32949406826067      110.20502276487014
C          126.19725980980313       99.69857546489297      109.53161634128868
H          127.16953074620645      101.14949547137843      110.75532647573110
H          127.07355107705804      101.59686086266470      109.03781769443160
N          125.62161008413445       99.71527435890725      108.32679206526994
O          132.11186210774645      102.20509927619504      111.97459908308961
C          124.66589438203891       98.72681706912776      107.89126215316473
H          125.74810151148007      100.51761915394137      107.71118928870273
C          125.08580772825249       98.09174028609715      106.56361006638014
H          124.59869426904525       97.97100238484667      108.67628393716414
H          123.68943167746151       99.20949598495126      107.77122829135470
C          123.96695148664016       97.27005522676963      105.91902873784275
H          125.37660596443763       98.89386925283054      105.88015622995199
H          125.96440332412281       97.46387523262985      106.72116104682924
C          123.66733766156111       95.93755205242795      106.62992544749201
H          123.06053078920013       97.87771646735658      105.88575935473779
H          124.24820481230697       97.06825579041616      104.88376006471194
C          122.19707940270818       95.78148763287754      107.02784396614300
H          123.93931795780620       95.11048725068511      105.97247231526651
H          124.28169872813005       95.84846982380257      107.52692093338884
C          121.87094730629367       96.62259720227499      108.26093366674228
H          121.55371478215082       96.08969682770626      106.20099410278112
H          121.98271855509554       94.73415457659392      107.24643377415495
N          120.45641342587274       96.69231792689243      108.54479522703045
H          122.35728428750490       96.19629407865079      109.14166076135136
H          122.23438550888592       97.64058795698806      108.10645314876508
C          119.91482981207874       96.17804321911996      109.66390707735948
H          119.89939475881279       97.23056072063403      107.88869889077121
O          125.96628120366962       98.83886443110900      110.37667229316671
C          118.44533646110635       96.54474366635382      109.83218432728417
C          117.68405470785484       95.71975026037653      110.87274229715169
H          118.41380427736321       97.60641905130572      110.09181876172492
H          117.95437549144626       96.43262673241024      108.86298401167730
C          118.27582833902834       95.74619310127603      112.28289239339489
H          116.65069836790701       96.07912186937364      110.90571846246419
H          117.66272582223102       94.67930596558821      110.54114495579512
C          118.36563981209635       97.14621436427889      112.89587032412139
H          117.65451680003716       95.12514703070404      112.93172459788204
H          119.27626250570434       95.31868694470400      112.24558782570556
C          116.99236181057806       97.71666043005925      113.16513871954101
H          118.87675375257608       97.05706802293265      113.85635008081499
H          118.94328803359717       97.80547500705472      112.25383786703004
N          116.67061924725159       98.82839854292483      112.48588121513303
C          115.39493901998215       99.47895937396561      112.71548987410679
H          117.34971092466991       99.27215943776562      111.88083396150402
O          120.56617787479310       95.53823616465685      110.47121221420193
C          115.13085430534967      100.66896167307024      111.80297903510841
H          114.60394584136127       98.72888571985354      112.60446036721606
H          115.36812317829472       99.82215603554134      113.75809876989925
C          114.70657185975826      100.31220662979504      110.37767042139352
H          114.32365189538227      101.24553009771184      112.26256335546657
H          116.01358585121758      101.30990112340747      111.77447419141221
C          115.80942619703325       99.65685308332571      109.54846028549029
H          113.83398336016757       99.65553562770862      110.41339106022900
H          114.40127396309717      101.23714121734572      109.88058328476163
C          115.43431442122960       99.60344367656997      108.06791303799444
H          116.72797394265056      100.23431338158854      109.65114339730951
H          116.00204859535462       98.64636291323433      109.90984040166911
C          116.59330904411298       99.14808209225068      107.18868017350809
H          114.59382598958207       98.92194425621585      107.92127778722114
H          115.12145790102224      100.59853162638517      107.74140460812876
N          117.68441178693617      100.09875218162037      107.23208103733086
H          116.97399443858853       98.17553082955922      107.51444673030372
H          116.25023985118203       99.03989222969459      106.15136001707808
C          118.96202313448151       99.74751417293959      107.04252255192317
H          117.47920133731579      101.02578703148895      107.57944173185197
O          116.21548550230487       97.20101383959924      113.96040129609740
C          119.95531981740625      100.88875828152869      107.19930834451601
C          121.16612252208735      100.71726458091997      106.28482240023041
H          119.45565294645866      101.83832875229366      107.00821130698351
H          120.27639680181575      100.88632549398845      108.24357693399097
C          122.29502863828976      101.69674603333050      106.60391370319395
H          121.52623679472154       99.69089118998282      106.37898103131208
H          120.84989382270457      100.85723010747620      105.24875477459774
C          123.43041271564626      101.57310957901292      105.58226121934386
H          121.90983503366515      102.71930868368602      106.58417901030317
H          122.68607105839864      101.50198817799195      107.60597300715636
C          124.61266581272335      102.45159485751614      105.95183784802249
H          123.76922885625241      100.53756287361684      105.54521266923462
H          123.06197928108135      101.86078972425619      104.59700338721241
N          124.54640691318430      103.69264154293415      105.46259281591453
O          119.30014244177906       98.60353596989101      106.76851105306488
C          125.57498070737255      104.68499501132784      105.66136525381678
H          123.74783648094348      103.98454149853346      104.90673487327639
C          125.02506752114468      105.93905581773859      106.33962225814558
H          126.35620176820005      104.22451709726975      106.27153818225261
H          126.00360136327552      104.95635005980535      104.68997668222788
C          126.08942615513084      107.02883490993982      106.43339976406783
H          124.17192107810695      106.30071418005218      105.76419443650748
H          124.67003501439532      105.67940736294327      107.33972271999289
C          125.60252709261371      108.25712889070860      107.19865636479399
H          126.96976180631026      106.62005985948386      106.93460044381126
H          126.39369950064872      107.32779865209395      105.42901740268341
C          126.74474683987938      109.22833776495462      107.48661610099887
H          124.83479385070059      108.76725467536883      106.61683906093043
H          125.15510490547584      107.94025797019944      108.14359293303832
C          126.27969469329823      110.48664765639812      108.20750134808735
H          127.49869085629282      108.73310709718095      108.10268008191512
H          127.22138770279403      109.51775825588273      106.54877621843821
N          125.59216677700270      111.37890299721121      107.30024980518829
H          125.59897038314097      110.23934575812942      109.02897057301941
H          127.14583571668254      111.00436202233784      108.63759150827300
C          124.91841238615628      112.45027802443205      107.72842014850536
H          125.84011846650525      111.29850768658288      106.31838550602983
O          125.54786051446843      102.05076723909757      106.63852055836696
C          124.37389249170333      113.33238222461264      106.61994198853021
C          124.31145908837634      114.78623172372853      107.08045829928732
H          125.01166822553732      113.23823723815704      105.74164790888130
H          123.37523804175095      112.98096870236108      106.34353435109712
C          123.80614671436398      115.72681549594505      105.99046672969438
H          123.65960515629057      114.84813461728238      107.95511069507407
H          125.31320937396502      115.09887085795957      107.38037539015055
C          123.59881729541823      117.13408070221787      106.55945474850382
H          124.54306432469099      115.77111432470677      105.18709112582322
H          122.87361169214464      115.34386787534032      105.57017700000375
C          123.19219501237198      118.12790925177839      105.49038867270301
H          122.83313640064004      117.11047663391577      107.33771760123122
H          124.53835599535175      117.47252965335659      106.99798392884406
N          121.93471364023121      117.96814126560997      105.04280686275175
C          121.34479511433180      118.80521631779256      104.02397890994422
H          121.30893628368268      117.36409667750951      105.54998828589163
O          124.74256889189746      112.68337524676208      108.92161973454594
C          120.54123311639290      117.99389501771482      103.00842055708667
H          120.69239716390901      119.55180712385258      104.49245971964201
H          122.17360894052864      119.31875739799506      103.53275761108368
C          119.24500277638811      117.44419757599712      103.60335955019525
H          120.30603326012735      118.64504502617027      102.16409342827265
H          121.15691394998461      117.17585336117125      102.63049564865615
C          118.29976906067148      116.89301569040141      102.53870574380761
H          119.47004599365862      116.64575396124557      104.31411705536098
H          118.73781829687356      118.23994757280126      104.15114694651220
C          116.97798185843827      116.45056479219687      103.15943869203238
H          118.10939935505870      117.66233673533193      101.78694029167465
H          118.76724310058628      116.04646210155768      102.03461575684361
C          116.03744772345179      115.83434244960249      102.13208864537407
H          117.17141136759568      115.71294253405959      103.93953163535825
H          116.49709436820494      117.31583605098625      103.62050319300785
N          114.70452883813790      115.70612876553007      102.68736159236634
H          115.96934994469005      116.45829985232822      101.23794236051369
H          116.40945392555474      114.84846462818986      101.83324930743296
C          113.61088102481757      115.47477226841561      101.94437831161699
H          114.65115697517516      115.62859718419325      103.68973387926357
O          123.94962882080853      118.98135984093382      105.05972492614123
C          112.32757776689492      115.31771411137235      102.72689627175987
C          111.86874759479471      113.85611818796909      102.65141684196854
H          112.48932516010376      115.60509185646920      103.76644954774422
H          111.55864327532733      115.96850980435993      102.30521149721649
C          110.89979154330926      113.50467310811661      103.77516776473666
H          111.39130418636664      113.68032306106085      101.68935648081180
H          112.74162135491534      113.20203391783824      102.71382443856020
C          110.39513661863212      112.06588799609978      103.64927240386936
H          111.40572793726624      113.61809268654252      104.73672034998724
H          110.05050623072522      114.18899717699115      103.75337114126810
C          111.54391801076362      111.07765705827363      103.64532242109722
H          109.76500326659482      111.83316009795675      104.50943904799649
H          109.79925840147631      111.93583401432609      102.74708102725688
N          111.47300584960317      110.13171741083268      102.70400853680685
O          113.66471621552796      115.38173339430816      100.72372821653609
C          112.48960913126881      109.11335399754446      102.53695644279661
H          110.67181986707162      110.10684189256247      102.08122350854379
C          111.87279277364806      107.78997969958253      102.10047520383112
H          113.22443130899553      109.44437847237383      101.79291232692246
H          113.00266680034669      109.00093740310852      103.49702326895193
C          112.88407468955863      106.64440332660786      102.12088752429203
H          111.04672543746010      107.54864354077267      102.77196011669163
H          111.46782215738391      107.90447297788008      101.09320625982828
C          112.28822195580440      105.37770112790275      101.50417518434408
H          113.77760095768448      106.93160405064525      101.56392211918664
H          113.18549522589750      106.45452179808753      103.15246448786455
C          113.09585137309212      104.10997442948575      101.79812123360487
H          111.26712563878786      105.25332559824366      101.87305438466773
H          112.21976848809717      105.51400743417629      100.42336256367777
C          112.86108534423471      103.55972143858727      103.21159938198970
H          112.82607498593576      103.33553874225683      101.07514415097657
H          114.15886488247268      104.32089294615470      101.67440018285490
N          111.52621427126222      103.01320056788323      103.44586934261156
H          113.58153674157667      102.76476406510881      103.41658197386033
H          113.02442212650853      104.35119168011425      103.94592500273650
H          110.82311543371816      103.66026750186154      103.09909239661431
H          111.40893561263685      102.15137210196569      102.92171875836024
O          112.47071391106778      111.13940401994040      104.45146844814761
C          109.97648205705023      121.90739292611484      129.93512949731937
C          110.31744189483393      123.13360108046400      129.12206426761500
C          109.97562986107870      120.66787392207770      129.02404916490372
C          109.04277135021445      120.83553390114538      127.81817861634944
H          110.99429524798346      120.48206837628499      128.67772443933819
H          109.67006520654175      119.80046725749936      129.61337337331310
C          109.78543426873711      121.35578332865664      126.57858838074338
H          108.58237963079863      119.87809803356878      127.57198073078294
H          108.24215792160935      121.52856117423607      128.08281768089981
C          108.83978269869114      122.02546918800969      125.59790870091376
H          110.54122048531553      122.08495575167697      126.87041291757713
H          110.27781514299433      120.52268014724908      126.07943104594310
N          108.56027320536090      123.29889339430882      125.90867562429301
O          111.61586529666059      123.30840204314396      128.97817328806175
O          109.48432333466107      123.84533428973056      128.60548183684369
H          111.81824023817941      124.03505232869735      128.31369501857341
H          108.98783588159812      122.04002255819816      130.37405907348128
H          110.71704028590018      121.77987557135195      130.72360741257785
C          107.63707439553936      124.09413245871309      125.13559752856312
H          108.87516711151918      123.67722828520898      126.79613919771425
C          106.29909312320261      124.30813549960200      125.85052068530226
H          108.10614265205967      125.05346035395584      124.90487854611791
H          107.46375547308490      123.54406453886739      124.20867757270480
C          105.16186761446606      124.52005947861224      124.85386918649635
H          106.07992005528224      123.41759873657109      126.44402729144332
H          106.37051422226247      125.15541084988880      126.53357855945985
C          105.32960236411233      125.76237494337153      123.98240837371623
H          105.10098306993780      123.64352225173823      124.20504617138573
H          104.21760058449249      124.59381367796976      125.39919765145797
C          104.22121807257822      125.83064519786203      122.93476656243058
H          105.30547025561064      126.65788429418787      124.60606762613050
H          106.29250565383914      125.74085913808214      123.47380501478754
C          104.39772143691663      127.00039574098307      121.97197255567680
H          104.22007676367502      124.89853093045878      122.36717166700413
H          103.25429424522217      125.92373369613709      123.43355627004566
N          105.40824500784842      126.70712243304862      120.98161675314131
H          103.44471114274823      127.21296491517673      121.46949145463745
H          104.68813864065460      127.88832447387233      122.54221175612540