3864
 energy: -5104.216110450761 gnorm: 0.000867358416 xtb: 6.6.1 (8d0f1dd)
C           52.34330869214717       34.10790539358618       54.40839456964306
C           51.87541344745114       32.98333825005031       55.07614369877168
C           51.38794573355474       33.13565441541321       56.36926795045731
C           51.37566935502736       34.37914482267579       56.97512356300197
C           51.84268285795333       35.49371762737650       56.29861083555598
C           52.32830016032468       35.35328121889152       55.01102932345038
C           51.93387338246516       31.62896186486321       54.41707901445078
C           52.73156762002321       30.65038311836619       55.28586977760634
C           50.54082454063727       31.05380137381860       54.12409988791782
C           49.80161244677155       31.74638603842468       52.95994149831289
C           48.98802273334243       30.71883129846700       52.21127300090205
C           48.05594097133552       29.92369408872548       52.87070754498794
C           47.35622406091396       28.94095463550261       52.19419945202484
C           47.57639279294876       28.73420090748258       50.84267952621779
C           48.49510935776723       29.52407068715509       50.17369592540449
C           49.19412117800481       30.50636076211635       50.85404260902970
C           48.93056325329245       32.91342366253117       53.44725463738913
C           48.24618846950234       33.67927515816868       52.30873906198821
C           49.23534609000358       34.18532061936472       51.28633207079488
C           49.08547882209280       33.86703476953580       49.94259400255628
C           49.93958140537264       34.39048964785112       48.98638108196404
C           50.95159051276856       35.25529306785110       49.36413820415661
C           51.11742969856942       35.57500376318422       50.70134330634269
C           50.27164381669418       35.03751522411121       51.65369805896044
C           47.46243294038753       34.90021895993264       52.82709499565000
C           46.13303697055117       34.63185948884713       53.55130562225578
C           45.54550007195743       35.96438851809852       53.95959778672798
C           45.11869468129720       36.87636281967655       52.99759745474920
C           44.58515307440179       38.09784662369778       53.36431548004337
C           44.46877619846487       38.43403707472358       54.70257838161152
C           44.87935552541774       37.53232810646723       55.66691523873197
C           45.40575970098089       36.30561742152244       55.29692779390579
C           45.09763984772628       33.88756819325912       52.68667533266824
C           44.92279031957379       32.37845645070587       52.94247545479630
C           44.40026231042744       31.79217872566118       51.64807259963388
C           43.05095717297527       31.80776690594705       51.31572184717982
C           42.61913914426516       31.34231569988661       50.08576386412685
C           43.52606299364708       30.85505560211203       49.16085827824351
C           44.87271750517824       30.83593853437160       49.47967792636446
C           45.30093178830938       31.30363309614115       50.70806406662846
C           43.97893783273292       32.06650852266311       54.11442721958736
C           44.51748309008389       32.35576015961581       55.52796256263537
C           43.39980313038176       32.16386751479937       56.52382754483184
C           42.86247275022784       30.91000663689783       56.79004171823888
C           41.83551885438879       30.75853946287941       57.70507930759397
C           41.31583241686035       31.86243413302402       58.36030771697826
C           41.83284174350846       33.11853224723225       58.09420499312423
C           42.87191487411518       33.26265806566943       57.19147173397393
C           45.73209202342045       31.48185241261674       55.85829771466429
C           46.26207220355217       31.65026872692753       57.29128877822765
C           46.65709843372643       33.07896194924091       57.57643916229720
C           45.91682824097342       33.83792244678852       58.47647552622993
C           46.26187381954808       35.14865666321997       58.75836561799107
C           47.35635687981009       35.72885381745157       58.14064774479097
C           48.09625206747907       34.98920966477738       57.23385413326156
C           47.75412752638903       33.67535595717088       56.96351630434233
C           47.43112549477376       30.67164055305098       57.49185978353394
C           48.14093071951221       30.81860552914389       58.84415666032710
C           49.48639695586513       30.13610818679182       58.81365123833270
C           50.63702588109584       30.83916026732776       59.14775969117072
C           51.87827861482310       30.22655551303405       59.12868012651829
C           51.98886514443605       28.89517952513050       58.76811933741518
C           50.84922753842779       28.18264036417487       58.43320029486131
C           49.61065482829459       28.79763056729323       58.45828232521214
C           47.29824644500440       30.27512217405320       60.00781669119196
C           47.77559091354675       30.84964929221460       61.35197329099575
C           47.41460882067618       29.93429327442552       62.49255091009195
C           46.08815814993113       29.66846315510914       62.81207572252912
C           45.76593556804612       28.82775594061213       63.86136999358114
C           46.76709244300014       28.23156948123915       64.60918684707404
C           48.09225072475618       28.48244875286696       64.29657665749704
C           48.41043680123417       29.32623323051120       63.24674851608739
C           47.19446770963377       32.25363651673866       61.56905155783592
C           47.87839269645204       32.98960707343097       62.72408674821224
C           49.36956935130554       33.08293683417575       62.50435876311032
C           49.89733394490914       33.67968429884830       61.36366743269373
C           51.26652380596139       33.77919456027028       61.18729330903040
C           52.13309663594616       33.28878132267543       62.14816185383130
C           51.62025598775642       32.69340593792207       63.28691137326877
C           50.25062094758188       32.59321116293074       63.46017390928280
C           47.32110085065963       34.40805854529095       62.92756078436015
C           45.84155800453280       34.46260429897645       63.36100234572137
C           45.65663565197644       35.49189525628505       64.44821816549725
C           46.07280886502591       36.80475169900121       64.25146330908514
C           45.88398638833878       37.76189626388688       65.23126499424340
C           45.27524126896747       37.42258855203041       66.42828373161761
C           44.87142458989226       36.11615746861190       66.64157804793794
C           45.06425261134427       35.15956136398798       65.65888813567004
C           44.92778004686028       34.81019693008759       62.17458746360965
C           43.43720989155504       34.70566117208057       62.51960947688861
C           43.05279476927596       33.28744136014888       62.86829948983793
C           42.52814258005622       32.98568190257823       64.11845283781288
C           42.14658887507964       31.69475767815450       64.44078277694577
C           42.26941282455327       30.68145929962792       63.50653688099747
C           42.78062114978418       30.96979594664525       62.25245996138664
C           43.17420278927960       32.25831126111428       61.94033740281455
C           42.53350432507997       35.16722357478984       61.36306057446910
C           42.72704840581615       36.61065879772497       60.87236347794841
C           41.82586532277637       36.81387775476853       59.67854206554398
C           40.44691754366099       36.92352306314422       59.81392951802214
C           39.63929938566891       37.07613115830912       58.70080539542553
C           40.19584596630605       37.12570967422342       57.43374126907891
C           41.56837083252584       37.02069941636432       57.28516502898143
C           42.37032169988925       36.85660701594581       58.40074507088283
C           42.48037337663263       37.64905442287555       61.97125994901848
C           42.61446732005890       39.08795630941920       61.44715338388519
C           43.96827088153916       39.28125094022460       60.81157755011124
C           45.12729995170159       39.19295607271410       61.57573338949528
C           46.37219597566847       39.33486083289542       60.99002584301522
C           46.47235472081824       39.58731525738423       59.63225835812896
C           45.32858366091227       39.69740236666896       58.86315511492499
C           44.08608289143925       39.53562409743694       59.45117575965990
C           42.36962329651291       40.11520607158945       62.57410790485854
C           41.03363449193099       40.85161866943720       62.41221629210128
C           39.86870758493534       39.89350009337389       62.40124408193946
C           39.63015654914881       39.03182896460790       63.46669638031416
C           38.55083820152997       38.16691703692342       63.45147783246222
C           37.68245790574737       38.15456479538530       62.37220316258306
C           37.90209437604336       39.01644980574172       61.31229086522873
C           38.98713235557105       39.87553990990196       61.32808248014695
C           40.81588591139154       41.89148788324183       63.52700203327900
C           41.71343101898711       43.13973824697336       63.41296815043733
C           42.33699164268276       43.48647991065859       64.74301265559090
C           43.71571527703028       43.59890183023101       64.86568569677867
C           44.30125861049202       43.93418208399130       66.07370631892657
C           43.50918804279569       44.16113337503651       67.18485323918873
C           42.13224437171672       44.05315034126009       67.07688371169495
C           41.55166632359063       43.71989781230866       65.86646548595607
C           40.95272976267520       44.36808108354644       62.88184742557618
C           40.58822837790584       44.28711669587662       61.38891477698348
C           39.59436645253289       45.37187501288106       61.05322687943379
C           38.26896435611660       45.03965324733176       60.79803761996515
C           37.33599280870856       46.01438233551444       60.49178992748826
C           37.71352974744536       47.34485497856803       60.43600518099070
C           39.02977811207986       47.68912368767936       60.69166052693755
C           39.95987362511850       46.71195937490774       60.99970185443194
C           41.84639443846400       44.37446815276648       60.51779755882728
C           41.55591272616842       44.42000714269492       59.01163414276765
C           40.75028368116180       43.22233050129822       58.57566067553095
C           41.27123065462776       41.93432454810652       58.63977376778134
C           40.52842026978583       40.84687175767734       58.21481344595680
C           39.24608144707158       41.02663426824877       57.72354411203531
C           38.71045606360516       42.30152843819690       57.66781291268112
C           39.45898248708104       43.38655834914670       58.08977133517541
C           42.88838520338032       44.50304577614934       58.25605005398477
C           42.71683410510118       44.59198145326602       56.73288307037676
H           52.46226267846063       31.73566934035819       53.46197104846212
H           50.66972085090394       29.99849420107585       53.86889182353751
H           49.93721694589036       31.09547326012817       55.03278273092053
H           50.54806247299143       32.15151391299619       52.26756090748420
H           48.15802959693885       32.52212636914148       54.11000622231103
H           49.55516041595071       33.59720526673301       54.02475539512137
H           47.55486402382883       33.00145458967256       51.79929366732406
H           48.10484402494386       35.45562460292666       53.51425180401721
H           47.25891504869812       35.55277755084992       51.97500662838214
H           46.35521666899240       34.05948298785085       54.45235327772187
H           45.37202240198206       34.02252480815287       51.63705932273280
H           45.89918506911025       31.92557563747999       53.13201244254951
H           43.06109681361856       32.64732787740054       53.99571884894836
H           43.70763675745872       31.00860375194187       54.05635931495175
H           44.80970389537806       33.40642903287895       55.57878197775077
H           45.47473702180651       30.43146670777249       55.70453948007000
H           46.53597361101846       31.72522355877099       55.16323932476537
H           45.45469730566206       31.38020570611079       57.98013850688948
H           47.05337816972118       29.65333854087700       57.38208960579782
H           48.16974186171546       30.83251040746798       56.70221981054744
H           48.31420161095316       31.88607242695544       59.01017979756872
H           48.86827710379768       30.92154809055139       61.31530697435664
H           47.30196764322907       32.83638196180885       60.65319140623895
H           46.13025539745451       32.16352419570284       61.78722881179890
H           47.70391335766691       32.41699878092916       63.64326253631526
H           47.92719261147688       34.88486335195510       63.70293210062988
H           47.45469536380701       34.98061558318251       62.00797410604755
H           45.54929038797450       33.48437829350009       63.75809940709606
H           45.15044120253010       35.83348407649203       61.87021750996485
H           45.15272587231124       34.15013653148473       61.33883589486273
H           43.24115300029773       35.33499191435719       63.39370769075087
H           42.69611325272453       34.50526935969952       60.50960788457967
H           41.49359807125354       35.04170362105629       61.67803037285812
H           43.75817753618080       36.72736437181937       60.52522381508971
H           41.48271729119493       37.51632463590352       62.39287132329765
H           43.20618771841652       37.49361222802408       62.77213104524434
H           41.85191725902136       39.23300457904442       60.67471916220127
H           42.39888582289536       39.61677755532931       63.54439316317026
H           43.17434829552837       40.85280718010966       62.57208667641902
H           41.04992527459346       41.36789726264764       61.44681730268785
H           39.76647172077598       42.19613083137955       63.51332808570483
H           40.99680751676053       41.40527181098773       64.48824949713841
H           42.53081437295527       42.92286069161998       62.72192232207477
H           40.03696755573947       44.49881859589393       63.46423796767976
H           41.56768098007168       45.25802997531487       63.04347303127258
H           40.09831287599515       43.32623542718060       61.20328724602738
H           42.41404087308506       45.26647522802129       60.79116978514195
H           42.47864728944376       43.50826542562582       60.71918930167372
H           52.72148385770231       34.00905513230627       53.40101054825111
H           52.70187589415481       36.21332353219268       54.47532373228474
H           51.82640510384336       36.46833636168311       56.76359744677337
H           50.99484366631991       34.47466726966510       57.98219462413206
H           51.02178308415797       32.27712701170059       56.91356092664233
H           47.88550151507213       30.05946025681812       53.92838630350784
H           46.63810009650978       28.33051039429888       52.72228973999964
H           47.03323735633628       27.96307794981126       50.31587967142427
H           48.67541801427700       29.37448138296174       49.11882705937425
H           49.91363391172188       31.11414527546852       50.32303646048808
H           48.29112627890244       33.19768195197366       49.63662894389258
H           49.80474282249536       34.12305752054453       47.94765221178959
H           51.61119144057222       35.68067619875171       48.62160056281813
H           51.90760406973098       36.24861889451523       51.00145948881706
H           50.41974915670179       35.28753572030760       52.69364972523709
H           45.19946255200862       36.63296648622674       51.94844731281840
H           44.25934284685761       38.79535958288671       52.60600650535713
H           44.06125450911141       39.39318944671405       54.98441045054017
H           44.79786189208615       37.78401089644792       56.71399495991616
H           45.72438952773923       35.61286925180200       56.06103721346339
H           44.11875831688703       34.35372304668078       52.82708218606709
H           42.32286337417959       32.19196461071309       52.01297829387006
H           41.56454564392085       31.36275487431140       49.84905604109493
H           43.18703018272270       30.49301842245362       48.20042667104128
H           45.59628053081103       30.45523578027830       48.77295103855793
H           46.35590096149653       31.28305077556481       50.93823564466888
H           43.24818473325892       30.03788588716682       56.28231039740358
H           41.43495400639961       29.77459657211903       57.90571298458686
H           40.51309870482086       31.74450249900162       59.07409562990647
H           41.42332476325952       33.98953871088215       58.58694110997357
H           43.28125466104065       34.24562513245587       57.00373984888570
H           45.05348165145235       33.39565153934649       58.95455118834807
H           45.67283169809308       35.72348786422293       59.45754163383162
H           47.62165678259602       36.75282968864410       58.35767663268739
H           48.93807391166511       35.43845659278026       56.72726282758646
H           48.36179074465093       33.11374013112533       56.27170890426758
H           50.56243449149886       31.87780886535579       59.43573186516947
H           52.75974099142867       30.79268454353883       59.39335939160501
H           52.95603522654640       28.41425271857512       58.74729682953061
H           50.92733790921653       27.14206399988274       58.15196959153957
H           48.73233665052248       28.22512758915443       58.19814739577741
H           46.24866613217711       30.53185356059233       59.86039849616402
H           47.37422673059420       29.18560717016279       60.03004386815817
H           45.29299526586529       30.12336118275870       62.24116751760531
H           44.72820528012238       28.63941908362713       64.09687617853841
H           46.51673203551366       27.57480563949570       65.42973580388559
H           48.88042601710415       28.01970371558066       64.87353567957277
H           49.44779773314607       29.51921757280553       63.00859337008214
H           49.23343341052321       34.07318407903556       60.60623835634352
H           51.66805103908594       34.24203792459091       60.29698881227824
H           53.20117084859832       33.37163217573453       62.01160408954645
H           52.28774161961957       32.30585600439965       64.04353671129277
H           49.85691128703171       32.12474392644893       64.35211711377812
H           46.55821715453346       37.07810392470948       63.32616883824525
H           46.21426048143182       38.77758632256538       65.06443548675604
H           45.12279676090483       38.17091516720347       67.19276790469530
H           44.40567731323104       35.84024367432061       67.57724612418311
H           44.75183801257386       34.13938172402535       65.83477363282877
H           42.41259966480482       33.77444123981618       64.84911011613343
H           41.74473351039995       31.48091256034244       65.42109804782794
H           41.96182201642801       29.67508183038123       63.75144471873362
H           42.86337949410987       30.18728085806756       61.51094157496593
H           43.56510318308280       32.46040875486580       60.95345928738356
H           39.99222824422049       36.89410912602622       60.79338319676040
H           38.56885819718818       37.15782477084782       58.82659138637971
H           39.56317649236710       37.24224736626699       56.56548109929164
H           42.01465787297340       37.07308213962757       56.30190679677401
H           43.43989400046958       36.76121726890880       58.27893541168829
H           45.05087258107382       39.00565208591298       62.63688645569918
H           47.26768647796016       39.24848520685249       61.59189031368557
H           47.44177123019843       39.70168163050307       59.17353325955839
H           45.40451720681269       39.90526156802782       57.80451151267002
H           43.19675202805738       39.59487172653152       58.84094594648927
H           40.29243453892600       39.03296124451197       64.32035450634754
H           38.38487018398626       37.49861369427671       64.28483615884782
H           36.83982551092981       37.47805813769255       62.36071244236102
H           37.22694214153160       39.02075133230034       60.46833935841188
H           39.15063781054112       40.53894271870055       60.49009706981695
H           44.34393644261804       43.43157650613637       64.00293548072769
H           45.37569526390323       44.02655916291840       66.14076084635265
H           43.96034229972227       44.42438066194364       68.13081302950313
H           41.50736404679852       44.23227367685535       67.94064508339770
H           40.47658415818858       43.63938617035807       65.79491991236253
H           37.96487527807130       44.00184685597979       60.83356170098349
H           36.31066324192734       45.73608108289559       60.29203121685973
H           36.97779385882654       48.10022026819134       60.19796484092489
H           39.33756188544845       48.72487951630578       60.65347290435784
H           40.98137823479030       47.00192374070863       61.19680412828072
H           39.03185822628650       44.37860698446261       58.04676785102580
H           37.70629538951731       42.45200787009798       57.29541285899643
H           38.66866377506154       40.17473813467009       57.39345199130492
H           40.93977707317516       39.84776029182948       58.26752243515060
H           42.26899735535951       41.77433357263821       59.02153387351295
H           53.70013975147519       31.07529108139839       55.54170642262798
H           52.20274112253328       30.42257790254025       56.20852730896715
H           52.89599899473043       29.71784247350325       54.74995583784899
H           40.97412040964202       45.32280412344143       58.79369123627373
H           43.42909247767793       45.38722493974760       58.60084144525739
H           43.49055237287590       43.62885765133306       58.50256661364990
C           43.99445037820505       44.15520123147414       56.00215637119247
C           42.29158600139785       45.99113481871507       56.36175308298903
C           40.96117882350323       46.26234686998342       56.06181271277192
C           40.54213931503872       47.54859112647947       55.77111379899856
C           41.45388858322308       48.58989574304757       55.78031808255677
C           42.78378693739032       48.33451333533638       56.06819184569770
C           43.19731692437126       47.04612481703677       56.35570623704708
H           40.24100761029901       45.45556210064395       56.05373545484269
H           39.50194001695431       47.73466100734400       55.54144440984761
H           41.12386077247980       49.59654936677816       55.56937187988896
H           43.50415611653754       49.14015334490782       56.07857729920629
H           44.23810788075978       46.86517184313254       56.58104496549625
C           44.24678737755999       42.64799629414581       56.12396376624346
H           43.89458509945280       44.40396072704578       54.94468496539209
H           44.86419514081292       44.68847347324269       56.38807949167141
C           45.22882607567562       42.16764123735562       55.09381880936052
C           46.54319135475703       41.88229013316167       55.43418694131994
C           47.42632687070945       41.39913236663770       54.48570775726014
C           47.00748344892865       41.19986386219718       53.18360870339291
C           45.70787379667835       41.51005471512056       52.82485588432888
C           44.82808028014569       41.99220613914421       53.77491266811785
H           46.87292224111255       42.03747487581199       56.45258514274940
H           48.44317725318667       41.16280841524244       54.76153169980635
H           47.69677330216102       40.80571627890178       52.45189118181072
H           45.37644126170862       41.36616508463036       51.80574773323689
H           43.80866813293994       42.22294912703710       53.49589145824307
H           41.91537106577918       43.90295461372344       56.43893532132112
H           44.62513355884113       42.41039359621528       57.12000773281244
H           43.29694595939689       42.12048968890214       55.99050545824125
C           44.09743206057785       41.54969889006560       31.49857999009642
C           44.43453948661136       40.42931027295506       30.74907199589460
C           45.61692280208710       40.45565020536150       30.01821156396241
C           46.43061859183342       41.57383095682814       30.02796504962376
C           46.08705769306408       42.68060800841248       30.78512152236738
C           44.91906042057633       42.66280388099675       31.52704553487473
C           43.53007063907410       39.22202596057592       30.72458821704516
C           43.05113984156479       38.93413837429323       29.29950050424920
C           44.23106802651883       37.99241474565005       31.31838731586366
C           44.52147594883584       38.15637692264202       32.81627140327893
C           43.22880716418441       38.26054973346918       33.58942174883620
C           42.35748378835212       37.18033442873138       33.67606346913058
C           41.17025087814574       37.27923271403552       34.37816412046683
C           40.83024543851906       38.46461130623575       35.00778390442496
C           41.68818736371828       39.54708502282686       34.92743553604342
C           42.87704758480885       39.44396198237997       34.22662742129175
C           45.36385330140140       36.98553431946232       33.35024789286170
C           46.87429275001264       37.09104562965913       33.07163186938193
C           47.50141804197140       35.74069087857638       33.31655812377772
C           48.08527502955468       35.03227133978958       32.27504582620136
C           48.65820683705728       33.79050000538945       32.49219502144601
C           48.64862588225877       33.23296075815664       33.75852165753560
C           48.05612800577202       33.92412217936709       34.80111700504056
C           47.48893877125720       35.16548885473934       34.58246863858576
C           47.52566977069420       38.17441929320151       33.94043523335340
C           49.05927985927882       38.20775515290495       33.84291811470175
C           49.53172342002343       38.46007482381402       32.43467772590416
C           50.30991978623743       37.51118204164968       31.78339052502947
C           50.79476078248996       37.74099412663190       30.50824263410719
C           50.51914949201561       38.93586368330552       29.86633232420143
C           49.74548207150269       39.88863399294896       30.50559911393782
C           49.24830367526672       39.64969101209931       31.77317228955403
C           49.59903640377551       39.28460433789595       34.79551562728291
C           51.11391798754035       39.50987611548537       34.68895864045138
C           51.89631859001678       38.27892457507018       35.06033064483302
C           52.79594956938855       37.72760231329040       34.15680869978295
C           53.52971448647695       36.60044052383822       34.48245835965935
C           53.37209393903499       36.00388041676666       35.72164302708253
C           52.47770052185211       36.54427017195139       36.62991113133003
C           51.74912431422749       37.67311970167005       36.30299334440954
C           51.50415070228461       40.70795873159879       35.56591516677273
C           52.88700995069265       41.30606449521683       35.27270488032313
C           53.09669257658775       41.52255866100150       33.79677636057547
C           52.18601863818206       42.24585474841680       33.03415668719225
C           52.37431810812700       42.40930084792371       31.67506760178904
C           53.48407323403382       41.86564799491107       31.05257310362653
C           54.40380840160042       41.15333108944944       31.80201211321550
C           54.20617649517175       40.98100631248706       33.16058334948623
C           53.00119090858355       42.63332530143106       36.03907123932380
C           54.39914551747048       43.25432250547883       35.97784012278514
C           55.42362550916508       42.39332676759043       36.67449212417849
C           56.55334156519076       41.95162539082746       35.99829035866318
C           57.52266031769103       41.20304393175764       36.64447911403743
C           57.37953288956479       40.88819792046978       37.98472895282367
C           56.25856298949625       41.32368201658964       38.67099034464584
C           55.29227576370681       42.06749940853959       38.02008917451796
C           54.42243416237674       44.64726285635164       36.63153510306832
C           53.64323212273987       45.72739693150243       35.86947760459968
C           54.04837134250437       45.75402724839518       34.41693469238802
C           55.37436943722371       45.95160580173195       34.04531657692511
C           55.74430191884759       45.95937526310139       32.71332685726627