      -----------------------------------------------------------      
     |                   =====================                   |     
     |                           x T B                           |     
     |                   =====================                   |     
     |                         S. Grimme                         |     
     |          Mulliken Center for Theoretical Chemistry        |     
     |                    University of Bonn                     |     
      -----------------------------------------------------------      

   * xtb version 6.6.1 (8d0f1dd) compiled by 'stahn@M-Bot' on 2023-08-01

   xtb is free software: you can redistribute it and/or modify it under
   the terms of the GNU Lesser General Public License as published by
   the Free Software Foundation, either version 3 of the License, or
   (at your option) any later version.
   
   xtb is distributed in the hope that it will be useful,
   but WITHOUT ANY WARRANTY; without even the implied warranty of
   MERCHANTABILITY or FITNESS FOR A PARTICULAR PURPOSE.  See the
   GNU Lesser General Public License for more details.
   
   Cite this work as:
   * C. Bannwarth, E. Caldeweyher, S. Ehlert, A. Hansen, P. Pracht,
     J. Seibert, S. Spicher, S. Grimme, WIREs Comput. Mol. Sci., 2020, 11,
     e01493. DOI: 10.1002/wcms.1493
   
   for GFN2-xTB:
   * C. Bannwarth, S. Ehlert and S. Grimme., J. Chem. Theory Comput., 2019,
     15, 1652-1671. DOI: 10.1021/acs.jctc.8b01176
   for GFN1-xTB:
   * S. Grimme, C. Bannwarth, P. Shushkov, J. Chem. Theory Comput., 2017,
     13, 1989-2009. DOI: 10.1021/acs.jctc.7b00118
   for GFN0-xTB:
   * P. Pracht, E. Caldeweyher, S. Ehlert, S. Grimme, ChemRxiv, 2019, preprint.
     DOI: 10.26434/chemrxiv.8326202.v1
   for GFN-FF:
   * S. Spicher and S. Grimme, Angew. Chem. Int. Ed., 2020, 59, 15665-15673.
     DOI: 10.1002/anie.202004239
   
   for ALPB and GBSA implicit solvation:
   * S. Ehlert, M. Stahn, S. Spicher, S. Grimme, J. Chem. Theory Comput.,
     2021, 17, 4250-4261. DOI: 10.1021/acs.jctc.1c00471
   
   for DFT-D4:
   * E. Caldeweyher, C. Bannwarth and S. Grimme, J. Chem. Phys., 2017,
     147, 034112. DOI: 10.1063/1.4993215
   * E. Caldeweyher, S. Ehlert, A. Hansen, H. Neugebauer, S. Spicher,
     C. Bannwarth and S. Grimme, J. Chem. Phys., 2019, 150, 154122.
     DOI: 10.1063/1.5090222
   * E. Caldeweyher, J.-M. Mewes, S. Ehlert and S. Grimme, Phys. Chem. Chem. Phys.
     2020, 22, 8499-8512. DOI: 10.1039/D0CP00502A
   
   for sTDA-xTB:
   * S. Grimme and C. Bannwarth, J. Chem. Phys., 2016, 145, 054103.
     DOI: 10.1063/1.4959605
   
   in the mass-spec context:
   * V. Asgeirsson, C. Bauer and S. Grimme, Chem. Sci., 2017, 8, 4879.
     DOI: 10.1039/c7sc00601b
   * J. Koopman and S. Grimme, ACS Omega 2019, 4, 12, 15120-15133.
     DOI: 10.1021/acsomega.9b02011
   
   for metadynamics refer to:
   * S. Grimme, J. Chem. Theory Comput., 2019, 155, 2847-2862
     DOI: 10.1021/acs.jctc.9b00143
   
   for SPH calculations refer to:
   * S. Spicher and S. Grimme, J. Chem. Theory Comput., 2021, 17, 1701-1714
     DOI: 10.1021/acs.jctc.0c01306
   
   with help from (in alphabetical order)
   P. Atkinson, C. Bannwarth, F. Bohle, G. Brandenburg, E. Caldeweyher
   M. Checinski, S. Dohm, S. Ehlert, S. Ehrlich, I. Gerasimov, C. Hölzer
   A. Katbashev, J. Koopman, C. Lavigne, S. Lehtola, F. März, M. Müller,
   F. Musil, H. Neugebauer, J. Pisarek, C. Plett, P. Pracht, F. Pultar,
   J. Seibert, P. Shushkov, S. Spicher, M. Stahn, M. Steiner, T. Strunk,
   J. Stückrath, T. Rose, and J. Unsleber
   
 * started run on 2024/07/06 at 23:21:38.433     

           -------------------------------------------------
          |                Calculation Setup                |
           -------------------------------------------------

          program call               : /home/abt-grimme/AK-bin/xtb input.xyz --input input.inp --opt --gbsa water
          hostname                   : boar091.thch.uni-bonn.de
          coordinate file            : input.xyz
          omp threads                :                     8

   ID    Z sym.   atoms
    1    6 C      1-146, 294-300, 306, 309-314, 323-468, 616-622, 628,
                  631-636, 645-790, 938-944, 950, 953-958, 967-1112,
                  1260-1266, 1272, 1275-1280, 1289-1434, 1582-1588, 1594,
                  1597-1602, 1611-1756, 1904-1910, 1916, 1919-1924,
                  1933-2078, 2226-2232, 2238, 2241-2246, 2255-2400,
                  2548-2554, 2560, 2563-2568, 2577-2722, 2870-2876, 2882,
                  2885-2890, 2899-3044, 3192-3198, 3204, 3207-3212,
                  3221-3366, 3514-3520, 3526, 3529-3534, 3543-3688,
                  3836-3842, 3848, 3851-3856
    2    1 H      147-293, 301-305, 307, 308, 315-322, 469-615, 623-627, 629,
                  630, 637-644, 791-937, 945-949, 951, 952, 959-966,
                  1113-1259, 1267-1271, 1273, 1274, 1281-1288, 1435-1581,
                  1589-1593, 1595, 1596, 1603-1610, 1757-1903, 1911-1915,
                  1917, 1918, 1925-1932, 2079-2225, 2233-2237, 2239, 2240,
                  2247-2254, 2401-2547, 2555-2559, 2561, 2562, 2569-2576,
                  2723-2869, 2877-2881, 2883, 2884, 2891-2898, 3045-3191,
                  3199-3203, 3205, 3206, 3213-3220, 3367-3513, 3521-3525,
                  3527, 3528, 3535-3542, 3689-3835, 3843-3847, 3849, 3850,
                  3857-3864

molecular fragmentation (1/2 indicates fragments):
111111111111111111111111111111111111111111111111111111111111111111111111
111111111111111111111111111111111111111111111111111111111111111111111111
111111111111111111111111111111111111111111111111111111111111111111111111
111111111111111111111111111111111111111111111111111111111111111111111111
111111111111111111111111111111111122222222222222222222222222222222222222
222222222222222222222222222222222222222222222222222222222222222222222222
222222222222222222222222222222222222222222222222222222222222222222222222
222222222222222222222222222222222222222222222222222222222222222222222222
222222222222222222222222222222222222222222222222222222222222222222222222
222222222222222222222222222222222222222222222222222222222222222222222222
222222222222222222222222222222222222222222222222222222222222222222222222
222222222222222222222222222222222222222222222222222222222222222222222222
222222222222222222222222222222222222222222222222222222222222222222222222
222222222222222222222222222222222222222222222222222222222222222222222222
222222222222222222222222222222222222222222222222222222222222222222222222
222222222222222222222222222222222222222222222222222222222222222222222222
222222222222222222222222222222222222222222222222222222222222222222222222
222222222222222222222222222222222222222222222222222222222222222222222222
222222222222222222222222222222222222222222222222222222222222222222222222
222222222222222222222222222222222222222222222222222222222222222222222222
222222222222222222222222222222222222222222222222222222222222222222222222
222222222222222222222222222222222222222222222222222222222222222222222222
222222222222222222222222222222222222222222222222222222222222222222222222
222222222222222222222222222222222222222222222222222222222222222222222222
222222222222222222222222222222222222222222222222222222222222222222222222
222222222222222222222222222222222222222222222222222222222222222222222222
222222222222222222222222222222222222222222222222222222222222222222222222
222222222222222222222222222222222222222222222222222222222222222222222222
222222222222222222222222222222222222222222222222222222222222222222222222
222222222222222222222222222222222222222222222222222222222222222222222222
222222222222222222222222222222222222222222222222222222222222222222222222
222222222222222222222222222222222222222222222222222222222222222222222222
222222222222222222222222222222222222222222222222222222222222222222222222
222222222222222222222222222222222222222222222222222222222222222222222222
222222222222222222222222222222222222222222222222222222222222222222222222
222222222222222222222222222222222222222222222222222222222222222222222222
222222222222222222222222222222222222222222222222222222222222222222222222
222222222222222222222222222222222222222222222222222222222222222222222222
222222222222222222222222222222222222222222222222222222222222222222222222
222222222222222222222222222222222222222222222222222222222222222222222222
222222222222222222222222222222222222222222222222222222222222222222222222
222222222222222222222222222222222222222222222222222222222222222222222222
222222222222222222222222222222222222222222222222222222222222222222222222
222222222222222222222222222222222222222222222222222222222222222222222222
222222222222222222222222222222222222222222222222222222222222222222222222
222222222222222222222222222222222222222222222222222222222222222222222222
222222222222222222222222222222222222222222222222222222222222222222222222
222222222222222222222222222222222222222222222222222222222222222222222222
222222222222222222222222222222222222222222222222222222222222222222222222
222222222222222222222222222222222222222222222222222222222222222222222222
222222222222222222222222222222222222222222222222222222222222222222222222
222222222222222222222222222222222222222222222222222222222222222222222222
222222222222222222222222222222222222222222222222222222222222222222222222
222222222222222222222222222222222222222222222222
# atoms in fragment 1/2:   322  3542
 fragment masses (1/2) :     2085.00    22935.05
CMA distance (Bohr)    :  34.547
constraining FC (au)   :  0.0500

           -------------------------------------------------
          |                 G F N 2 - x T B                 |
           -------------------------------------------------

        Reference                      10.1021/acs.jctc.8b01176
      * Hamiltonian:
        H0-scaling (s, p, d)           1.850000    2.230000    2.230000
        zeta-weighting                 0.500000
      * Dispersion:
        s8                             2.700000
        a1                             0.520000
        a2                             5.000000
        s9                             5.000000
      * Repulsion:
        kExp                           1.500000    1.000000
        rExp                           1.000000
      * Coulomb:
        alpha                          2.000000
        third order                    shell-resolved
        anisotropic                    true
        a3                             3.000000
        a5                             4.000000
        cn-shift                       1.200000
        cn-exp                         4.000000
        max-rad                        5.000000

      * Solvation model:               GBSA
        Solvent                        water
        Parameter file                 internal GFN2-xTB/GBSA
        Dielectric constant                8.0200E+01
        Reference state                gsolv [1 M gas/solution]
        Free energy shift                  1.8574E-03 Eh       1.1656E+00 kcal/mol
        Temperature                        2.9815E+02 K
        Density                            1.0000E+00 kg/L
        Solvent mass                       1.8000E+01 g/mol
        Interaction kernel             Still
        Born radius scaling (c1)           1.5524E+00
        Born radii integrator          GBOBC
        Born offset                        2.4628E-02 a0       4.6540E-02 AA
        H-bond correction              true
        Ion screening                  false
        Surface tension                    1.0000E-05 Eh       1.5569E+01 dyn/cm
        Grid points                               230 per atom
q/qsh data taken from xtbrestart
CAMM data taken from xtbrestart

          ...................................................
          :                      SETUP                      :
          :.................................................:
          :  # basis functions                9624          :
          :  # atomic orbitals                9624          :
          :  # shells                         5784          :
          :  # electrons                      9624          :
          :  max. iterations                   250          :
          :  Hamiltonian                  GFN2-xTB          :
          :  restarted?                       true          :
          :  GBSA solvation                   true          :
          :  PC potential                    false          :
          :  electronic temp.          300.0000000     K    :
          :  accuracy                    1.0000000          :
          :  -> integral cutoff          0.2500000E+02      :
          :  -> integral neglect         0.1000000E-07      :
          :  -> SCF convergence          0.1000000E-05 Eh   :
          :  -> wf. convergence          0.1000000E-03 e    :
          :  Broyden damping             0.4000000          :
          ...................................................

 iter      E             dE          RMSdq      gap      omega  full diag
   1  -5190.4784693 -0.519048E+04  0.940E-05    3.78       0.0  T
   2  -5190.4784693 -0.113887E-07  0.787E-05    3.78      20.5  T
   3  -5190.4784693 -0.127839E-07  0.628E-05    3.78      25.6  T

   *** convergence criteria satisfied after 3 iterations ***

         #    Occupation            Energy/Eh            Energy/eV
      -------------------------------------------------------------
         1        2.0000           -0.6332955             -17.2328
       ...           ...                  ...                  ...
      4806        2.0000           -0.3650108              -9.9324
      4807        2.0000           -0.3648827              -9.9290
      4808        2.0000           -0.3647444              -9.9252
      4809        2.0000           -0.3638341              -9.9004
      4810        2.0000           -0.3633667              -9.8877
      4811        2.0000           -0.3621536              -9.8547
      4812        2.0000           -0.3593916              -9.7795 (HOMO)
      4813                         -0.2205297              -6.0009 (LUMO)
      4814                         -0.2198502              -5.9824
      4815                         -0.2197722              -5.9803
      4816                         -0.2195223              -5.9735
      4817                         -0.2194262              -5.9709
       ...                                ...                  ...
      9624                          0.6664521              18.1351
      -------------------------------------------------------------
                  HL-Gap            0.1388620 Eh            3.7786 eV
             Fermi-level           -0.2899606 Eh           -7.8902 eV

 SCC (total)                   0 d,  0 h, 15 min, 37.253 sec
 SCC setup                      ...        0 min,  2.401 sec (  0.256%)
 Dispersion                     ...        0 min,  6.910 sec (  0.737%)
 classical contributions        ...        0 min,  0.149 sec (  0.016%)
 integral evaluation            ...        0 min, 11.830 sec (  1.262%)
 iterations                     ...        9 min, 56.830 sec ( 63.679%)
 molecular gradient             ...        4 min, 54.375 sec ( 31.408%)
 printout                       ...        0 min, 24.757 sec (  2.641%)

         :::::::::::::::::::::::::::::::::::::::::::::::::::::
         ::                     SUMMARY                     ::
         :::::::::::::::::::::::::::::::::::::::::::::::::::::
         :: total energy           -5103.327073629650 Eh    ::
         :: total w/o Gsasa/hb     -5103.137455250036 Eh    ::
         :: gradient norm              0.741797460981 Eh/a0 ::
         :: HOMO-LUMO gap              3.778626047846 eV    ::
         ::.................................................::
         :: SCC energy             -5190.478469297878 Eh    ::
         :: -> isotropic ES            0.276299820093 Eh    ::
         :: -> anisotropic ES          0.820893247877 Eh    ::
         :: -> anisotropic XC          3.457369093775 Eh    ::
         :: -> dispersion             -6.914738275581 Eh    ::
         :: -> Gsolv                  -0.194618785806 Eh    ::
         ::    -> Gelec               -0.005000406192 Eh    ::
         ::    -> Gsasa               -0.184285254956 Eh    ::
         ::    -> Ghb                 -0.007190567786 Eh    ::
         ::    -> Gshift               0.001857443127 Eh    ::
         :: repulsion energy          86.013177128305 Eh    ::
         :: add. restraining           0.000000000000 Eh    ::
         :: total charge              -0.000000000034 e     ::
         :::::::::::::::::::::::::::::::::::::::::::::::::::::

      ----------------------------------------------------------- 
     |              Fast Inertial Relaxation Engine              |
      ----------------------------------------------------------- 

          ...................................................
          :                      SETUP                      :
          :.................................................:
          :   energy convergence        0.5000000E-05 Eh    :
          :   grad. convergence         0.1000000E-02 Eh/a0 :
          :   optimization log               true           :
          :   writing optlog all                1     steps :
          :   Hessian reset                    20     steps :
          :   time step scaling                 5     steps :
          :   maximium step len.        1.0000000     a0    :
          :   initial time step         0.2500000     fs    :
          :   maximum time step         1.2500000     fs    :
          :   power reset thr           0.0000000     au    :
          :   alpha parameter           0.1000000           :
          :   BFGS update                   false           :
          :   preconditioning               false           :
          ...................................................

........................................................................
.............................. CYCLE    1 ..............................
........................................................................

 iter      E             dE          RMSdq      gap      omega  full diag
   1  -5190.6892767 -0.519069E+04  0.912E-03    3.79       0.0  T
   2  -5190.6893128 -0.361440E-04  0.559E-03    3.79       1.0  T
   3  -5190.6893028  0.100337E-04  0.299E-03    3.79       1.0  T
   4  -5190.6893220 -0.192103E-04  0.779E-04    3.79       2.1  T
   5  -5190.6893237 -0.166998E-05  0.279E-04    3.79       5.8  T
   6  -5190.6893238 -0.121953E-06  0.183E-04    3.79       8.8  T
   7  -5190.6893238 -0.491755E-07  0.129E-04    3.79      12.4  T
     SCC iter.                  ...       23 min,  5.523 sec
     gradient                   ...        4 min, 54.788 sec
 * total energy  : -5103.3887025 Eh     change    :  -0.6162885E-01 Eh
   gradient norm :     0.6808169 Eh/a0  converged?    E=F G=F D=F
   time step     :     0.2500000 fs     power     :   0.3131186E-05
   step length   :     0.0869371 a0     speed     :   0.8411630E-02

........................................................................
.............................. CYCLE    2 ..............................
........................................................................

 iter      E             dE          RMSdq      gap      omega  full diag
   1  -5190.9995876 -0.519100E+04  0.133E-02    3.80       0.0  T
   2  -5190.9996645 -0.768795E-04  0.814E-03    3.80       1.0  T
   3  -5190.9996436  0.209036E-04  0.432E-03    3.80       1.0  T
   4  -5190.9996835 -0.399551E-04  0.114E-03    3.80       1.4  T
   5  -5190.9996871 -0.357336E-05  0.415E-04    3.80       3.9  T
   6  -5190.9996874 -0.261668E-06  0.280E-04    3.80       5.7  T
   7  -5190.9996875 -0.116951E-06  0.198E-04    3.80       8.1  T
     SCC iter.                  ...       23 min,  5.575 sec
     gradient                   ...        4 min, 55.781 sec
 * total energy  : -5103.4693808 Eh     change    :  -0.8067834E-01 Eh
   gradient norm :     0.5968702 Eh/a0  converged?    E=F G=F D=F
   time step     :     0.2500000 fs     power     :   0.3988788E-05
   step length   :     0.1267329 a0     speed     :   0.1226209E-01

........................................................................
.............................. CYCLE    3 ..............................
........................................................................

 iter      E             dE          RMSdq      gap      omega  full diag
   1  -5191.4020478 -0.519140E+04  0.168E-02    3.82       0.0  T
   2  -5191.4021711 -0.123270E-03  0.103E-02    3.82       1.0  T
   3  -5191.4021375  0.335104E-04  0.542E-03    3.82       1.0  T
   4  -5191.4022004 -0.628722E-04  0.144E-03    3.82       1.1  T
   5  -5191.4022062 -0.579320E-05  0.528E-04    3.82       3.0  T
   6  -5191.4022066 -0.409475E-06  0.361E-04    3.82       4.5  T
   7  -5191.4022068 -0.197664E-06  0.256E-04    3.82       6.3  T
     SCC iter.                  ...       23 min,  4.055 sec
     gradient                   ...        4 min, 56.809 sec
 * total energy  : -5103.5567900 Eh     change    :  -0.8740916E-01 Eh
   gradient norm :     0.4978204 Eh/a0  converged?    E=F G=F D=F
   time step     :     0.2500000 fs     power     :   0.4176078E-05
   step length   :     0.1614894 a0     speed     :   0.1562496E-01

........................................................................
.............................. CYCLE    4 ..............................
........................................................................

 iter      E             dE          RMSdq      gap      omega  full diag
   1  -5191.8886978 -0.519189E+04  0.197E-02    3.84       0.0  T
   2  -5191.8888631 -0.165317E-03  0.120E-02    3.83       1.0  T
   3  -5191.8888172  0.458790E-04  0.621E-03    3.84       1.0  T
   4  -5191.8889004 -0.831837E-04  0.167E-03    3.83       1.0  T
   5  -5191.8889083 -0.790824E-05  0.614E-04    3.83       2.6  T
   6  -5191.8889088 -0.526747E-06  0.425E-04    3.83       3.8  T
   7  -5191.8889091 -0.279459E-06  0.300E-04    3.83       5.4  T
     SCC iter.                  ...       23 min,  4.318 sec
     gradient                   ...        4 min, 57.042 sec
 * total energy  : -5103.6387451 Eh     change    :  -0.8195511E-01 Eh
   gradient norm :     0.3983332 Eh/a0  converged?    E=F G=F D=F
   time step     :     0.2500000 fs     power     :   0.3738588E-05
   step length   :     0.1899228 a0     speed     :   0.1837605E-01

........................................................................
.............................. CYCLE    5 ..............................
........................................................................

 iter      E             dE          RMSdq      gap      omega  full diag
   1  -5192.4512439 -0.519245E+04  0.215E-02    3.85       0.0  T
   2  -5192.4514352 -0.191296E-03  0.131E-02    3.85       1.0  T
   3  -5192.4513793  0.558777E-04  0.661E-03    3.85       1.0  T
   4  -5192.4514753 -0.959683E-04  0.181E-03    3.85       1.0  T
   5  -5192.4514847 -0.941594E-05  0.665E-04    3.85       2.4  T
   6  -5192.4514853 -0.575441E-06  0.468E-04    3.85       3.4  T
   7  -5192.4514856 -0.346035E-06  0.328E-04    3.85       4.9  T
     SCC iter.                  ...       23 min,  7.159 sec
     gradient                   ...        5 min,  1.493 sec
 * total energy  : -5103.7060141 Eh     change    :  -0.6726902E-01 Eh
   gradient norm :     0.3217313 Eh/a0  converged?    E=F G=F D=F
   time step     :     0.2500000 fs     power     :   0.2873700E-05
   step length   :     0.2109119 a0     speed     :   0.2040686E-01

........................................................................
.............................. CYCLE    6 ..............................
........................................................................

 iter      E             dE          RMSdq      gap      omega  full diag
   1  -5193.1463215 -0.519315E+04  0.245E-02    3.87       0.0  T
   2  -5193.1465520 -0.230563E-03  0.149E-02    3.87       1.0  T
   3  -5193.1464781  0.739143E-04  0.717E-03    3.87       1.0  T
   4  -5193.1465951 -0.116978E-03  0.200E-03    3.87       1.0  T
   5  -5193.1466070 -0.118892E-04  0.740E-04    3.86       2.2  T
   6  -5193.1466076 -0.632984E-06  0.525E-04    3.86       3.1  T
   7  -5193.1466081 -0.447287E-06  0.363E-04    3.86       4.4  T
     SCC iter.                  ...       23 min,  4.498 sec
     gradient                   ...        4 min, 59.658 sec
 * total energy  : -5103.7589379 Eh     change    :  -0.5292375E-01 Eh
   gradient norm :     0.2940269 Eh/a0  converged?    E=F G=F D=F
   time step     :     0.2750000 fs     power     :   0.1796878E-05
   step length   :     0.2470768 a0     speed     :   0.2173273E-01

........................................................................
.............................. CYCLE    7 ..............................
........................................................................

 iter      E             dE          RMSdq      gap      omega  full diag
   1  -5193.9649814 -0.519396E+04  0.260E-02    3.88       0.0  T
   2  -5193.9652038 -0.222351E-03  0.156E-02    3.88       1.0  T
   3  -5193.9651236  0.801690E-04  0.688E-03    3.88       1.0  T
   4  -5193.9652382 -0.114566E-03  0.200E-03    3.88       1.0  T
   5  -5193.9652505 -0.123563E-04  0.759E-04    3.88       2.1  T
   6  -5193.9652511 -0.574362E-06  0.537E-04    3.88       3.0  T
   7  -5193.9652516 -0.497543E-06  0.362E-04    3.88       4.4  T
     SCC iter.                  ...       23 min,  7.763 sec
     gradient                   ...        5 min,  0.530 sec
 * total energy  : -5103.7960410 Eh     change    :  -0.3710318E-01 Eh
   gradient norm :     0.3244550 Eh/a0  converged?    E=F G=F D=F
   time step     :     0.3025000 fs     power     :   0.9526292E-06
   step length   :     0.2752648 a0     speed     :   0.2201103E-01

........................................................................
.............................. CYCLE    8 ..............................
........................................................................

 iter      E             dE          RMSdq      gap      omega  full diag
   1  -5194.8715387 -0.519487E+04  0.258E-02    3.90       0.0  T
   2  -5194.8717035 -0.164790E-03  0.154E-02    3.90       1.0  T
   3  -5194.8716443  0.591652E-04  0.554E-03    3.90       1.0  T
   4  -5194.8717219 -0.775616E-04  0.176E-03    3.90       1.0  T
   5  -5194.8717318 -0.993074E-05  0.713E-04    3.89       2.3  T
   6  -5194.8717322 -0.460480E-06  0.475E-04    3.89       3.4  T
   7  -5194.8717327 -0.441398E-06  0.310E-04    3.89       5.2  T
     SCC iter.                  ...       23 min,  4.572 sec
     gradient                   ...        4 min, 59.380 sec
 * total energy  : -5103.8258328 Eh     change    :  -0.2979178E-01 Eh
   gradient norm :     0.3681551 Eh/a0  converged?    E=F G=F D=F
   time step     :     0.3327500 fs     power     :   0.6873231E-06
   step length   :     0.2949938 a0     speed     :   0.2144420E-01

........................................................................
.............................. CYCLE    9 ..............................
........................................................................

 iter      E             dE          RMSdq      gap      omega  full diag
   1  -5195.8227690 -0.519582E+04  0.252E-02    3.91       0.0  T
   2  -5195.8228677 -0.986789E-04  0.148E-02    3.91       1.0  T
   3  -5195.8228501  0.175682E-04  0.357E-03    3.91       1.0  T
   4  -5195.8228767 -0.266301E-04  0.124E-03    3.91       1.3  T
   5  -5195.8228810 -0.420285E-05  0.619E-04    3.91       2.6  T
   6  -5195.8228813 -0.353690E-06  0.353E-04    3.91       4.6  T
   7  -5195.8228816 -0.293445E-06  0.231E-04    3.90       7.0  T
     SCC iter.                  ...       23 min,  6.752 sec
     gradient                   ...        4 min, 56.723 sec
 * total energy  : -5103.8616387 Eh     change    :  -0.3580590E-01 Eh
   gradient norm :     0.3795118 Eh/a0  converged?    E=F G=F D=F
   time step     :     0.3660250 fs     power     :   0.9314076E-06
   step length   :     0.3148404 a0     speed     :   0.2080630E-01

........................................................................
.............................. CYCLE   10 ..............................
........................................................................

 iter      E             dE          RMSdq      gap      omega  full diag
   1  -5196.7737518 -0.519677E+04  0.258E-02    3.92       0.0  T
   2  -5196.7738291 -0.773412E-04  0.151E-02    3.91       1.0  T
   3  -5196.7737952  0.339261E-04  0.417E-03    3.91       1.0  T
   4  -5196.7738426 -0.473883E-04  0.107E-03    3.91       1.5  T
   5  -5196.7738452 -0.263400E-05  0.520E-04    3.91       3.1  T
   6  -5196.7738455 -0.240807E-06  0.316E-04    3.91       5.1  T
   7  -5196.7738456 -0.164943E-06  0.183E-04    3.91       8.8  T
     SCC iter.                  ...       23 min,  4.094 sec
     gradient                   ...        4 min, 55.453 sec
 * total energy  : -5103.9102492 Eh     change    :  -0.4861044E-01 Eh
   gradient norm :     0.3342670 Eh/a0  converged?    E=F G=F D=F
   time step     :     0.4026275 fs     power     :   0.1219900E-05
   step length   :     0.3442683 a0     speed     :   0.2068277E-01

........................................................................
.............................. CYCLE   11 ..............................
........................................................................

 iter      E             dE          RMSdq      gap      omega  full diag
   1  -5197.6747689 -0.519767E+04  0.286E-02    3.92       0.0  T
   2  -5197.6749059 -0.136960E-03  0.169E-02    3.92       1.0  T
   3  -5197.6747944  0.111501E-03  0.703E-03    3.91       1.0  T
   4  -5197.6749459 -0.151528E-03  0.138E-03    3.92       1.2  T
   5  -5197.6749503 -0.438253E-05  0.585E-04    3.91       2.8  T
   6  -5197.6749510 -0.740002E-06  0.285E-04    3.91       5.6  T
   7  -5197.6749511 -0.480368E-07  0.140E-04    3.91      11.5  T
     SCC iter.                  ...       23 min,  4.226 sec
     gradient                   ...        4 min, 55.060 sec
 * total energy  : -5103.9607366 Eh     change    :  -0.5048740E-01 Eh
   gradient norm :     0.2355812 Eh/a0  converged?    E=F G=F D=F
   time step     :     0.4428903 fs     power     :   0.9399501E-06
   step length   :     0.3852603 a0     speed     :   0.2104134E-01

........................................................................
.............................. CYCLE   12 ..............................
........................................................................

 iter      E             dE          RMSdq      gap      omega  full diag
   1  -5198.4687006 -0.519847E+04  0.322E-02    3.91       0.0  T
   2  -5198.4689526 -0.251922E-03  0.195E-02    3.91       1.0  T
   3  -5198.4687866  0.165913E-03  0.937E-03    3.91       1.0  T
   4  -5198.4690327 -0.246038E-03  0.180E-03    3.91       1.0  T
   5  -5198.4690408 -0.811183E-05  0.685E-04    3.91       2.3  T
   6  -5198.4690418 -0.992962E-06  0.350E-04    3.91       4.6  T
   7  -5198.4690419 -0.872597E-07  0.207E-04    3.91       7.8  T
     SCC iter.                  ...       23 min,  5.856 sec
     gradient                   ...        4 min, 53.173 sec
 * total energy  : -5103.9845437 Eh     change    :  -0.2380714E-01 Eh
   gradient norm :     0.1704993 Eh/a0  converged?    E=F G=F D=F
   time step     :     0.4871793 fs     power     :  -0.1535343E-06
   step length   :     0.4247290 a0     speed     :   0.2108813E-01

........................................................................
.............................. CYCLE   13 ..............................
........................................................................
 * reset velocities

 iter      E             dE          RMSdq      gap      omega  full diag
   1  -5198.4554383 -0.519846E+04  0.920E-04    3.91       0.0  T
   2  -5198.4554387 -0.424814E-06  0.555E-04    3.91       2.9  T
   3  -5198.4554387  0.114742E-07  0.262E-04    3.91       6.1  T
     SCC iter.                  ...        9 min, 54.475 sec
     gradient                   ...        4 min, 58.295 sec
 * total energy  : -5103.9861367 Eh     change    :  -0.1593004E-02 Eh
   gradient norm :     0.1654048 Eh/a0  converged?    E=F G=F D=F
   time step     :     0.2435896 fs     power     :   0.8544841E-07
   step length   :     0.0094853 a0     speed     :   0.9419032E-03

........................................................................
.............................. CYCLE   14 ..............................
........................................................................

 iter      E             dE          RMSdq      gap      omega  full diag
   1  -5198.4285044 -0.519843E+04  0.181E-03    3.91       0.0  T
   2  -5198.4285059 -0.150613E-05  0.109E-03    3.91       1.5  T
   3  -5198.4285058  0.893860E-07  0.463E-04    3.91       3.5  T
   4  -5198.4285061 -0.231993E-06  0.138E-04    3.91      11.6  T
     SCC iter.                  ...       13 min, 12.625 sec
     gradient                   ...        4 min, 56.006 sec
 * total energy  : -5103.9891341 Eh     change    :  -0.2997375E-02 Eh
   gradient norm :     0.1556141 Eh/a0  converged?    E=F G=F D=F
   time step     :     0.2435896 fs     power     :   0.1581842E-06
   step length   :     0.0186862 a0     speed     :   0.1855566E-02

........................................................................
.............................. CYCLE   15 ..............................
........................................................................

 iter      E             dE          RMSdq      gap      omega  full diag
   1  -5198.3887744 -0.519839E+04  0.260E-03    3.91       0.0  T
   2  -5198.3887776 -0.318798E-05  0.157E-03    3.91       1.0  T
   3  -5198.3887773  0.266434E-06  0.719E-04    3.91       2.2  T
   4  -5198.3887780 -0.644562E-06  0.210E-04    3.91       7.7  T
     SCC iter.                  ...       13 min, 10.696 sec
     gradient                   ...        4 min, 58.199 sec
 * total energy  : -5103.9931917 Eh     change    :  -0.4057608E-02 Eh
   gradient norm :     0.1420938 Eh/a0  converged?    E=F G=F D=F
   time step     :     0.2435896 fs     power     :   0.2104493E-06
   step length   :     0.0273344 a0     speed     :   0.2714347E-02

........................................................................
.............................. CYCLE   16 ..............................
........................................................................

 iter      E             dE          RMSdq      gap      omega  full diag
   1  -5198.3370332 -0.519834E+04  0.332E-03    3.91       0.0  T
   2  -5198.3370382 -0.507938E-05  0.200E-03    3.91       1.0  T
   3  -5198.3370378  0.487379E-06  0.909E-04    3.91       1.8  T
   4  -5198.3370388 -0.107490E-05  0.271E-04    3.91       5.9  T
   5  -5198.3370390 -0.191058E-06  0.886E-05    3.91      18.2  T
     SCC iter.                  ...       16 min, 28.553 sec
     gradient                   ...        4 min, 58.290 sec
 * total energy  : -5103.9978733 Eh     change    :  -0.4681587E-02 Eh
   gradient norm :     0.1262736 Eh/a0  converged?    E=F G=F D=F
   time step     :     0.2435896 fs     power     :   0.2382393E-06
   step length   :     0.0351996 a0     speed     :   0.3495374E-02

........................................................................
.............................. CYCLE   17 ..............................
........................................................................

 iter      E             dE          RMSdq      gap      omega  full diag
   1  -5198.2743330 -0.519827E+04  0.393E-03    3.91       0.0  T
   2  -5198.2743400 -0.698125E-05  0.236E-03    3.91       1.0  T
   3  -5198.2743393  0.649159E-06  0.104E-03    3.91       1.5  T
   4  -5198.2743407 -0.140090E-05  0.315E-04    3.91       5.1  T
   5  -5198.2743410 -0.259335E-06  0.103E-04    3.91      15.6  T
   6  -5198.2743410 -0.110895E-07  0.671E-05    3.91      24.0  T
     SCC iter.                  ...       19 min, 46.898 sec
     gradient                   ...        4 min, 55.064 sec
 * total energy  : -5104.0027299 Eh     change    :  -0.4856585E-02 Eh
   gradient norm :     0.1101170 Eh/a0  converged?    E=F G=F D=F
   time step     :     0.2435896 fs     power     :   0.2420977E-06
   step length   :     0.0420972 a0     speed     :   0.4180319E-02

........................................................................
.............................. CYCLE   18 ..............................
........................................................................

 iter      E             dE          RMSdq      gap      omega  full diag
   1  -5198.2020836 -0.519820E+04  0.440E-03    3.91       0.0  T
   2  -5198.2020919 -0.832894E-05  0.265E-03    3.91       1.0  T
   3  -5198.2020909  0.102661E-05  0.115E-03    3.91       1.4  T
   4  -5198.2020928 -0.188695E-05  0.360E-04    3.91       4.5  T
   5  -5198.2020931 -0.356882E-06  0.112E-04    3.91      14.4  T
   6  -5198.2020931 -0.114715E-07  0.709E-05    3.91      22.7  T
     SCC iter.                  ...       19 min, 44.844 sec
     gradient                   ...        4 min, 55.866 sec
 * total energy  : -5104.0073841 Eh     change    :  -0.4654224E-02 Eh
   gradient norm :     0.0960075 Eh/a0  converged?    E=F G=F D=F
   time step     :     0.2435896 fs     power     :   0.2271294E-06
   step length   :     0.0478868 a0     speed     :   0.4755235E-02

........................................................................
.............................. CYCLE   19 ..............................
........................................................................

 iter      E             dE          RMSdq      gap      omega  full diag
   1  -5198.1133969 -0.519811E+04  0.525E-03    3.91       0.0  T
   2  -5198.1134078 -0.108705E-04  0.316E-03    3.91       1.0  T
   3  -5198.1134060  0.180580E-05  0.132E-03    3.91       1.2  T
   4  -5198.1134089 -0.290657E-05  0.426E-04    3.91       3.8  T
   5  -5198.1134094 -0.524255E-06  0.128E-04    3.91      12.5  T
   6  -5198.1134094 -0.125729E-07  0.791E-05    3.91      20.3  T
     SCC iter.                  ...       19 min, 43.711 sec
     gradient                   ...        4 min, 56.690 sec
 * total energy  : -5104.0120151 Eh     change    :  -0.4631022E-02 Eh
   gradient norm :     0.0853832 Eh/a0  converged?    E=F G=F D=F
   time step     :     0.2679486 fs     power     :   0.1984269E-06
   step length   :     0.0582561 a0     speed     :   0.5259023E-02

........................................................................
.............................. CYCLE   20 ..............................
........................................................................

 iter      E             dE          RMSdq      gap      omega  full diag
   1  -5198.0088670 -0.519801E+04  0.608E-03    3.91       0.0  T
   2  -5198.0088795 -0.125380E-04  0.366E-03    3.91       1.0  T
   3  -5198.0088764  0.313153E-05  0.146E-03    3.91       1.1  T
   4  -5198.0088808 -0.446662E-05  0.476E-04    3.91       3.4  T
   5  -5198.0088815 -0.686136E-06  0.141E-04    3.91      11.4  T
   6  -5198.0088815 -0.103655E-07  0.829E-05    3.91      19.4  T
     SCC iter.                  ...       19 min, 47.496 sec
     gradient                   ...        4 min, 55.140 sec
 * total energy  : -5104.0164075 Eh     change    :  -0.4392408E-02 Eh
   gradient norm :     0.0807000 Eh/a0  converged?    E=F G=F D=F
   time step     :     0.2947435 fs     power     :   0.1655294E-06
   step length   :     0.0689022 a0     speed     :   0.5654630E-02
 * RMSD in coord.:     0.0408702 a0     energy gain  -0.6893339E+00 Eh

........................................................................
.............................. CYCLE   21 ..............................
........................................................................

 iter      E             dE          RMSdq      gap      omega  full diag
   1  -5197.9201006 -0.519792E+04  0.521E-03    3.91       0.0  T
   2  -5197.9201079 -0.737047E-05  0.313E-03    3.91       1.0  T
   3  -5197.9201050  0.296656E-05  0.120E-03    3.91       1.3  T
   4  -5197.9201089 -0.391571E-05  0.373E-04    3.91       4.3  T
   5  -5197.9201093 -0.433001E-06  0.113E-04    3.91      14.2  T
   6  -5197.9201093 -0.419095E-08  0.632E-05    3.91      25.5  T
     SCC iter.                  ...       19 min, 47.934 sec
     gradient                   ...        4 min, 58.782 sec
 * total energy  : -5104.0196389 Eh     change    :  -0.3231346E-02 Eh
   gradient norm :     0.0804471 Eh/a0  converged?    E=F G=F D=F
   time step     :     0.2500000 fs     power     :   0.1487118E-06
   step length   :     0.0601152 a0     speed     :   0.5816473E-02

........................................................................
.............................. CYCLE   22 ..............................
........................................................................

 iter      E             dE          RMSdq      gap      omega  full diag
   1  -5197.8352200 -0.519784E+04  0.522E-03    3.91       0.0  T
   2  -5197.8352255 -0.547320E-05  0.314E-03    3.91       1.0  T
   3  -5197.8352218  0.370272E-05  0.116E-03    3.91       1.4  T
   4  -5197.8352264 -0.469445E-05  0.315E-04    3.91       5.1  T
   5  -5197.8352268 -0.305378E-06  0.103E-04    3.91      15.7  T
   6  -5197.8352268 -0.135151E-08  0.543E-05    3.91      29.6  T
     SCC iter.                  ...       19 min, 49.751 sec
     gradient                   ...        4 min, 57.939 sec
 * total energy  : -5104.0226786 Eh     change    :  -0.3039766E-02 Eh
   gradient norm :     0.0804339 Eh/a0  converged?    E=F G=F D=F
   time step     :     0.2500000 fs     power     :   0.1430189E-06
   step length   :     0.0609478 a0     speed     :   0.5897026E-02

........................................................................
.............................. CYCLE   23 ..............................
........................................................................

 iter      E             dE          RMSdq      gap      omega  full diag
   1  -5197.7575108 -0.519776E+04  0.524E-03    3.91       0.0  T
   2  -5197.7575147 -0.385179E-05  0.315E-03    3.91       1.0  T
   3  -5197.7575104  0.428176E-05  0.114E-03    3.91       1.4  T
   4  -5197.7575157 -0.532617E-05  0.252E-04    3.91       6.4  T
   5  -5197.7575159 -0.182860E-06  0.949E-05    3.91      16.9  T
   6  -5197.7575159 -0.125419E-08  0.509E-05    3.91      31.6  T
     SCC iter.                  ...       19 min, 45.504 sec
     gradient                   ...        4 min, 55.329 sec
 * total energy  : -5104.0256878 Eh     change    :  -0.3009124E-02 Eh
   gradient norm :     0.0790191 Eh/a0  converged?    E=F G=F D=F
   time step     :     0.2500000 fs     power     :   0.1445637E-06
   step length   :     0.0614605 a0     speed     :   0.5946631E-02

........................................................................
.............................. CYCLE   24 ..............................
........................................................................

 iter      E             dE          RMSdq      gap      omega  full diag
   1  -5197.6894039 -0.519769E+04  0.529E-03    3.91       0.0  T
   2  -5197.6894066 -0.271489E-05  0.317E-03    3.91       1.0  T
   3  -5197.6894021  0.450436E-05  0.112E-03    3.91       1.4  T
   4  -5197.6894077 -0.554615E-05  0.207E-04    3.91       7.8  T
   5  -5197.6894078 -0.110528E-06  0.927E-05    3.91      17.3  T
   6  -5197.6894078 -0.393084E-08  0.521E-05    3.91      30.9  T
     SCC iter.                  ...       19 min, 46.390 sec
     gradient                   ...        4 min, 58.429 sec
 * total energy  : -5104.0287360 Eh     change    :  -0.3048271E-02 Eh
   gradient norm :     0.0759775 Eh/a0  converged?    E=F G=F D=F
   time step     :     0.2500000 fs     power     :   0.1482980E-06
   step length   :     0.0620033 a0     speed     :   0.5999154E-02

........................................................................
.............................. CYCLE   25 ..............................
........................................................................

 iter      E             dE          RMSdq      gap      omega  full diag
   1  -5197.6325506 -0.519763E+04  0.533E-03    3.91       0.0  T
   2  -5197.6325526 -0.202462E-05  0.319E-03    3.91       1.0  T
   3  -5197.6325483  0.425716E-05  0.107E-03    3.91       1.5  T
   4  -5197.6325536 -0.521531E-05  0.184E-04    3.91       8.7  T
   5  -5197.6325536 -0.798955E-07  0.973E-05    3.91      16.5  T
   6  -5197.6325537 -0.957425E-08  0.582E-05    3.91      27.7  T
     SCC iter.                  ...       19 min, 48.371 sec
     gradient                   ...        5 min,  0.306 sec
 * total energy  : -5104.0318164 Eh     change    :  -0.3080410E-02 Eh
   gradient norm :     0.0719412 Eh/a0  converged?    E=F G=F D=F
   time step     :     0.2500000 fs     power     :   0.1506250E-06
   step length   :     0.0627102 a0     speed     :   0.6067546E-02

........................................................................
.............................. CYCLE   26 ..............................
........................................................................

 iter      E             dE          RMSdq      gap      omega  full diag
   1  -5197.5837365 -0.519758E+04  0.592E-03    3.90       0.0  T
   2  -5197.5837385 -0.197878E-05  0.353E-03    3.90       1.0  T
   3  -5197.5837342  0.428649E-05  0.107E-03    3.90       1.5  T
   4  -5197.5837394 -0.525474E-05  0.196E-04    3.90       8.2  T
   5  -5197.5837395 -0.842383E-07  0.117E-04    3.90      13.8  T
   6  -5197.5837395 -0.204918E-07  0.758E-05    3.90      21.2  T
     SCC iter.                  ...       19 min, 45.418 sec
     gradient                   ...        4 min, 58.269 sec
 * total energy  : -5104.0351968 Eh     change    :  -0.3380369E-02 Eh
   gradient norm :     0.0673709 Eh/a0  converged?    E=F G=F D=F
   time step     :     0.2750000 fs     power     :   0.1490519E-06
   step length   :     0.0702528 a0     speed     :   0.6179395E-02

........................................................................
.............................. CYCLE   27 ..............................
........................................................................

 iter      E             dE          RMSdq      gap      omega  full diag
   1  -5197.5460184 -0.519755E+04  0.650E-03    3.90       0.0  T
   2  -5197.5460204 -0.202146E-05  0.386E-03    3.90       1.0  T
   3  -5197.5460169  0.350840E-05  0.988E-04    3.90       1.6  T
   4  -5197.5460212 -0.437653E-05  0.218E-04    3.90       7.4  T
   5  -5197.5460213 -0.101393E-06  0.141E-04    3.90      11.4  T
   6  -5197.5460214 -0.336340E-07  0.982E-05    3.90      16.4  T
     SCC iter.                  ...       19 min, 40.908 sec
     gradient                   ...        4 min, 57.044 sec
 * total energy  : -5104.0388154 Eh     change    :  -0.3618590E-02 Eh
   gradient norm :     0.0631724 Eh/a0  converged?    E=F G=F D=F
   time step     :     0.3025000 fs     power     :   0.1435122E-06
   step length   :     0.0790507 a0     speed     :   0.6321139E-02

........................................................................
.............................. CYCLE   28 ..............................
........................................................................

 iter      E             dE          RMSdq      gap      omega  full diag
   1  -5197.5222937 -0.519752E+04  0.703E-03    3.90       0.0  T
   2  -5197.5222957 -0.205409E-05  0.416E-03    3.90       1.0  T
   3  -5197.5222936  0.212191E-05  0.831E-04    3.90       1.9  T
   4  -5197.5222964 -0.285012E-05  0.244E-04    3.90       6.6  T
   5  -5197.5222966 -0.123009E-06  0.163E-04    3.90       9.9  T
   6  -5197.5222966 -0.486389E-07  0.115E-04    3.90      14.0  T
     SCC iter.                  ...       19 min, 40.544 sec
     gradient                   ...        4 min, 57.625 sec
 * total energy  : -5104.0426128 Eh     change    :  -0.3797455E-02 Eh
   gradient norm :     0.0596523 Eh/a0  converged?    E=F G=F D=F
   time step     :     0.3327500 fs     power     :   0.1354515E-06
   step length   :     0.0890448 a0     speed     :   0.6473003E-02

........................................................................
.............................. CYCLE   29 ..............................
........................................................................

 iter      E             dE          RMSdq      gap      omega  full diag
   1  -5197.5148580 -0.519751E+04  0.745E-03    3.89       0.0  T
   2  -5197.5148601 -0.211532E-05  0.439E-03    3.89       1.0  T
   3  -5197.5148586  0.149440E-05  0.792E-04    3.89       2.0  T
   4  -5197.5148609 -0.225316E-05  0.256E-04    3.89       6.3  T
   5  -5197.5148610 -0.110105E-06  0.179E-04    3.89       9.0  T
   6  -5197.5148611 -0.655273E-07  0.121E-04    3.89      13.3  T
     SCC iter.                  ...       19 min, 45.352 sec
     gradient                   ...        5 min,  2.646 sec
 * total energy  : -5104.0465482 Eh     change    :  -0.3935344E-02 Eh
   gradient norm :     0.0566442 Eh/a0  converged?    E=F G=F D=F
   time step     :     0.3660250 fs     power     :   0.1262366E-06
   step length   :     0.1001702 a0     speed     :   0.6619773E-02

........................................................................
.............................. CYCLE   30 ..............................
........................................................................

 iter      E             dE          RMSdq      gap      omega  full diag
   1  -5197.5250950 -0.519753E+04  0.771E-03    3.89       0.0  T
   2  -5197.5250974 -0.234886E-05  0.455E-03    3.89       1.0  T
   3  -5197.5250946  0.278210E-05  0.101E-03    3.89       1.6  T
   4  -5197.5250984 -0.382783E-05  0.252E-04    3.89       6.4  T
   5  -5197.5250985 -0.882801E-07  0.184E-04    3.89       8.8  T
   6  -5197.5250986 -0.699683E-07  0.120E-04    3.89      13.4  T
     SCC iter.                  ...       19 min, 48.218 sec
     gradient                   ...        5 min,  2.214 sec
 * total energy  : -5104.0505986 Eh     change    :  -0.4050438E-02 Eh
   gradient norm :     0.0547532 Eh/a0  converged?    E=F G=F D=F
   time step     :     0.4026275 fs     power     :   0.1169689E-06
   step length   :     0.1124080 a0     speed     :   0.6753190E-02

........................................................................
.............................. CYCLE   31 ..............................
........................................................................

 iter      E             dE          RMSdq      gap      omega  full diag
   1  -5197.5533705 -0.519755E+04  0.778E-03    3.88       0.0  T
   2  -5197.5533732 -0.267664E-05  0.462E-03    3.88       1.0  T
   3  -5197.5533687  0.448806E-05  0.121E-03    3.88       1.3  T
   4  -5197.5533745 -0.580829E-05  0.240E-04    3.88       6.7  T
   5  -5197.5533746 -0.783584E-07  0.170E-04    3.88       9.5  T
   6  -5197.5533746 -0.539785E-07  0.109E-04    3.88      14.7  T
     SCC iter.                  ...       19 min, 45.898 sec
     gradient                   ...        5 min,  0.469 sec
 * total energy  : -5104.0548118 Eh     change    :  -0.4213219E-02 Eh
   gradient norm :     0.0551155 Eh/a0  converged?    E=F G=F D=F
   time step     :     0.4428903 fs     power     :   0.1107210E-06
   step length   :     0.1257483 a0     speed     :   0.6867856E-02

........................................................................
.............................. CYCLE   32 ..............................
........................................................................

 iter      E             dE          RMSdq      gap      omega  full diag
   1  -5197.5994194 -0.519760E+04  0.777E-03    3.88       0.0  T
   2  -5197.5994221 -0.267183E-05  0.463E-03    3.88       1.0  T
   3  -5197.5994181  0.396687E-05  0.110E-03    3.88       1.5  T
   4  -5197.5994231 -0.504322E-05  0.219E-04    3.88       7.3  T
   5  -5197.5994232 -0.713944E-07  0.138E-04    3.88      11.7  T
   6  -5197.5994232 -0.271693E-07  0.878E-05    3.88      18.3  T
     SCC iter.                  ...       19 min, 46.202 sec
     gradient                   ...        4 min, 57.242 sec
 * total energy  : -5104.0594003 Eh     change    :  -0.4588473E-02 Eh
   gradient norm :     0.0558225 Eh/a0  converged?    E=F G=F D=F
   time step     :     0.4871793 fs     power     :   0.1116089E-06
   step length   :     0.1404230 a0     speed     :   0.6972115E-02

........................................................................
.............................. CYCLE   33 ..............................
........................................................................

 iter      E             dE          RMSdq      gap      omega  full diag
   1  -5197.6637828 -0.519766E+04  0.800E-03    3.88       0.0  T
   2  -5197.6637856 -0.275982E-05  0.477E-03    3.88       1.0  T
   3  -5197.6637836  0.196126E-05  0.800E-04    3.88       2.0  T
   4  -5197.6637862 -0.256911E-05  0.224E-04    3.88       7.2  T
   5  -5197.6637863 -0.108146E-06  0.107E-04    3.88      15.0  T
   6  -5197.6637863 -0.826731E-08  0.543E-05    3.88      29.6  T
     SCC iter.                  ...       19 min, 45.681 sec
     gradient                   ...        5 min,  4.549 sec
 * total energy  : -5104.0646084 Eh     change    :  -0.5208031E-02 Eh
   gradient norm :     0.0519698 Eh/a0  converged?    E=F G=F D=F
   time step     :     0.5358972 fs     power     :   0.1159576E-06
   step length   :     0.1574626 a0     speed     :   0.7107404E-02

........................................................................
.............................. CYCLE   34 ..............................
........................................................................

 iter      E             dE          RMSdq      gap      omega  full diag
   1  -5197.7496430 -0.519775E+04  0.873E-03    3.88       0.0  T
   2  -5197.7496473 -0.426204E-05  0.521E-03    3.88       1.0  T
   3  -5197.7496403  0.698709E-05  0.136E-03    3.88       1.2  T
   4  -5197.7496486 -0.837669E-05  0.261E-04    3.88       6.2  T
   5  -5197.7496488 -0.189163E-06  0.118E-04    3.88      13.7  T
   6  -5197.7496488 -0.742784E-08  0.559E-05    3.88      28.8  T
     SCC iter.                  ...       19 min, 42.574 sec
     gradient                   ...        5 min,  0.899 sec
 * total energy  : -5104.0702383 Eh     change    :  -0.5629915E-02 Eh
   gradient norm :     0.0434931 Eh/a0  converged?    E=F G=F D=F
   time step     :     0.5894869 fs     power     :   0.1096486E-06
   step length   :     0.1781192 a0     speed     :   0.7308893E-02

........................................................................
.............................. CYCLE   35 ..............................
........................................................................

 iter      E             dE          RMSdq      gap      omega  full diag
   1  -5197.8633384 -0.519786E+04  0.953E-03    3.89       0.0  T
   2  -5197.8633450 -0.651430E-05  0.576E-03    3.89       1.0  T
   3  -5197.8633267  0.182604E-04  0.214E-03    3.89       1.0  T
   4  -5197.8633489 -0.221878E-04  0.301E-04    3.89       5.3  T
   5  -5197.8633491 -0.223294E-06  0.142E-04    3.89      11.3  T
   6  -5197.8633491 -0.105365E-07  0.707E-05    3.89      22.8  T
     SCC iter.                  ...       19 min, 45.574 sec
     gradient                   ...        4 min, 59.074 sec
 * total energy  : -5104.0756115 Eh     change    :  -0.5373249E-02 Eh
   gradient norm :     0.0410487 Eh/a0  converged?    E=F G=F D=F
   time step     :     0.6484356 fs     power     :   0.8906972E-07
   step length   :     0.2019148 a0     speed     :   0.7532105E-02

........................................................................
.............................. CYCLE   36 ..............................
........................................................................

 iter      E             dE          RMSdq      gap      omega  full diag
   1  -5198.0070263 -0.519801E+04  0.978E-03    3.89       0.0  T
   2  -5198.0070332 -0.686788E-05  0.597E-03    3.89       1.0  T
   3  -5198.0070091  0.241217E-04  0.241E-03    3.89       1.0  T
   4  -5198.0070384 -0.292779E-04  0.287E-04    3.89       5.6  T
   5  -5198.0070385 -0.164622E-06  0.141E-04    3.89      11.4  T
   6  -5198.0070385 -0.937598E-08  0.674E-05    3.89      23.9  T
     SCC iter.                  ...       19 min, 49.757 sec
     gradient                   ...        5 min,  1.161 sec
 * total energy  : -5104.0806300 Eh     change    :  -0.5018455E-02 Eh
   gradient norm :     0.0429515 Eh/a0  converged?    E=F G=F D=F
   time step     :     0.7132792 fs     power     :   0.7540445E-07
   step length   :     0.2253927 a0     speed     :   0.7643555E-02

........................................................................
.............................. CYCLE   37 ..............................
........................................................................

 iter      E             dE          RMSdq      gap      omega  full diag
   1  -5198.1680053 -0.519817E+04  0.101E-02    3.89       0.0  T
   2  -5198.1680137 -0.832761E-05  0.604E-03    3.89       1.0  T
   3  -5198.1679965  0.171348E-04  0.227E-03    3.89       1.0  T
   4  -5198.1680175 -0.209122E-04  0.335E-04    3.89       4.8  T
   5  -5198.1680177 -0.286236E-06  0.142E-04    3.89      11.3  T
   6  -5198.1680177 -0.733689E-08  0.751E-05    3.89      21.4  T
     SCC iter.                  ...       19 min, 43.910 sec
     gradient                   ...        5 min,  3.088 sec
 * total energy  : -5104.0856730 Eh     change    :  -0.5042981E-02 Eh
   gradient norm :     0.0398980 Eh/a0  converged?    E=F G=F D=F
   time step     :     0.7846071 fs     power     :   0.6774566E-07
   step length   :     0.2490896 a0     speed     :   0.7679243E-02

........................................................................
.............................. CYCLE   38 ..............................
........................................................................

 iter      E             dE          RMSdq      gap      omega  full diag
   1  -5198.3122800 -0.519831E+04  0.103E-02    3.89       0.0  T
   2  -5198.3122887 -0.877005E-05  0.608E-03    3.88       1.0  T
   3  -5198.3122803  0.842955E-05  0.185E-03    3.88       1.0  T
   4  -5198.3122908 -0.105113E-04  0.340E-04    3.88       4.7  T
   5  -5198.3122911 -0.267908E-06  0.148E-04    3.88      10.9  T
   6  -5198.3122911 -0.105319E-07  0.827E-05    3.88      19.4  T
     SCC iter.                  ...       19 min, 47.200 sec
     gradient                   ...        4 min, 57.388 sec
 * total energy  : -5104.0906453 Eh     change    :  -0.4972368E-02 Eh
   gradient norm :     0.0425315 Eh/a0  converged?    E=F G=F D=F
   time step     :     0.8630678 fs     power     :   0.5909726E-07
   step length   :     0.2749067 a0     speed     :   0.7704696E-02

........................................................................
.............................. CYCLE   39 ..............................
........................................................................

 iter      E             dE          RMSdq      gap      omega  full diag
   1  -5198.3911068 -0.519839E+04  0.104E-02    3.89       0.0  T
   2  -5198.3911114 -0.458585E-05  0.614E-03    3.89       1.0  T
   3  -5198.3911051  0.628902E-05  0.140E-03    3.89       1.1  T
   4  -5198.3911129 -0.774284E-05  0.262E-04    3.89       6.1  T
   5  -5198.3911130 -0.128145E-06  0.133E-04    3.89      12.1  T
   6  -5198.3911130 -0.781074E-08  0.571E-05    3.89      28.2  T
     SCC iter.                  ...       19 min, 49.017 sec
     gradient                   ...        4 min, 57.405 sec
 * total energy  : -5104.0961859 Eh     change    :  -0.5540579E-02 Eh
   gradient norm :     0.0421031 Eh/a0  converged?    E=F G=F D=F
   time step     :     0.9493746 fs     power     :   0.6380198E-07
   step length   :     0.3022166 a0     speed     :   0.7700091E-02

........................................................................
.............................. CYCLE   40 ..............................
........................................................................

 iter      E             dE          RMSdq      gap      omega  full diag
   1  -5198.3697319 -0.519837E+04  0.109E-02    3.89       0.0  T
   2  -5198.3697404 -0.845083E-05  0.658E-03    3.89       1.0  T
   3  -5198.3697244  0.159409E-04  0.208E-03    3.89       1.0  T
   4  -5198.3697440 -0.195168E-04  0.348E-04    3.89       4.6  T
   5  -5198.3697442 -0.241995E-06  0.210E-04    3.89       7.6  T
   6  -5198.3697442 -0.386508E-07  0.132E-04    3.89      12.2  T
     SCC iter.                  ...       19 min, 46.816 sec
     gradient                   ...        4 min, 57.273 sec
 * total energy  : -5104.1025485 Eh     change    :  -0.6362608E-02 Eh
   gradient norm :     0.0393003 Eh/a0  converged?    E=F G=F D=F
   time step     :     1.0443120 fs     power     :   0.6490910E-07
   step length   :     0.3361371 a0     speed     :   0.7785764E-02

........................................................................
.............................. CYCLE   41 ..............................
........................................................................

 iter      E             dE          RMSdq      gap      omega  full diag
   1  -5198.2653245 -0.519827E+04  0.121E-02    3.88       0.0  T
   2  -5198.2653415 -0.170237E-04  0.728E-03    3.88       1.0  T
   3  -5198.2653257  0.157991E-04  0.226E-03    3.88       1.0  T
   4  -5198.2653453 -0.196360E-04  0.534E-04    3.88       3.0  T
   5  -5198.2653462 -0.846797E-06  0.255E-04    3.88       6.3  T
   6  -5198.2653462 -0.494192E-07  0.163E-04    3.88       9.9  T
     SCC iter.                  ...       19 min, 47.763 sec
     gradient                   ...        4 min, 57.187 sec
 * total energy  : -5104.1092310 Eh     change    :  -0.6682510E-02 Eh
   gradient norm :     0.0359019 Eh/a0  converged?    E=F G=F D=F
   time step     :     1.1487432 fs     power     :   0.5846564E-07
   step length   :     0.3764290 a0     speed     :   0.7926386E-02

........................................................................
.............................. CYCLE   42 ..............................
........................................................................

 iter      E             dE          RMSdq      gap      omega  full diag
   1  -5198.1545854 -0.519815E+04  0.134E-02    3.88       0.0  T
   2  -5198.1545951 -0.978140E-05  0.798E-03    3.88       1.0  T
   3  -5198.1545775  0.176429E-04  0.252E-03    3.88       1.0  T
   4  -5198.1545992 -0.216897E-04  0.382E-04    3.88       4.2  T
   5  -5198.1545994 -0.223182E-06  0.200E-04    3.88       8.0  T
   6  -5198.1545994 -0.177370E-07  0.971E-05    3.88      16.6  T
     SCC iter.                  ...       19 min, 45.703 sec
     gradient                   ...        4 min, 55.869 sec
 * total energy  : -5104.1157255 Eh     change    :  -0.6494470E-02 Eh
   gradient norm :     0.0371330 Eh/a0  converged?    E=F G=F D=F
   time step     :     1.2500000 fs     power     :   0.5100223E-07
   step length   :     0.4154856 a0     speed     :   0.8040093E-02
 * RMSD in coord.:     0.0536370 a0     energy gain  -0.9931797E-01 Eh

........................................................................
.............................. CYCLE   43 ..............................
........................................................................

 iter      E             dE          RMSdq      gap      omega  full diag
   1  -5198.1408710 -0.519814E+04  0.230E-03    3.88       0.0  T
   2  -5198.1408713 -0.309332E-06  0.139E-03    3.88       1.2  T
   3  -5198.1408702  0.107587E-05  0.529E-04    3.88       3.0  T
   4  -5198.1408715 -0.129687E-05  0.702E-05    3.88      22.9  T
   5  -5198.1408715 -0.987893E-08  0.403E-05    3.88      39.9  T
   6  -5198.1408715 -0.194814E-08  0.229E-05    3.88      70.3  T
     SCC iter.                  ...       19 min, 49.174 sec
     gradient                   ...        4 min, 57.175 sec
 * total energy  : -5104.1169360 Eh     change    :  -0.1210544E-02 Eh
   gradient norm :     0.0363664 Eh/a0  converged?    E=F G=F D=F
   time step     :     0.2500000 fs     power     :   0.6191435E-07
   step length   :     0.0786862 a0     speed     :   0.7613310E-02

........................................................................
.............................. CYCLE   44 ..............................
........................................................................

 iter      E             dE          RMSdq      gap      omega  full diag
   1  -5198.1356800 -0.519814E+04  0.229E-03    3.88       0.0  T
   2  -5198.1356805 -0.557378E-06  0.142E-03    3.88       1.1  T
   3  -5198.1356792  0.135196E-05  0.617E-04    3.88       2.6  T
   4  -5198.1356809 -0.174759E-05  0.805E-05    3.88      20.0  T
   5  -5198.1356809 -0.190912E-07  0.349E-05    3.88      46.1  T
   6  -5198.1356809 -0.801265E-09  0.191E-05    3.88      84.2  T
     SCC iter.                  ...       19 min, 44.226 sec
     gradient                   ...        4 min, 57.780 sec
 * total energy  : -5104.1182906 Eh     change    :  -0.1354594E-02 Eh
   gradient norm :     0.0327050 Eh/a0  converged?    E=F G=F D=F
   time step     :     0.2500000 fs     power     :   0.6878502E-07
   step length   :     0.0754484 a0     speed     :   0.7300038E-02

........................................................................
.............................. CYCLE   45 ..............................
........................................................................

 iter      E             dE          RMSdq      gap      omega  full diag
   1  -5198.1390235 -0.519814E+04  0.247E-03    3.88       0.0  T
   2  -5198.1390244 -0.867615E-06  0.155E-03    3.88       1.0  T
   3  -5198.1390228  0.155617E-05  0.704E-04    3.88       2.3  T
   4  -5198.1390250 -0.215016E-05  0.963E-05    3.88      16.7  T
   5  -5198.1390250 -0.280279E-07  0.401E-05    3.88      40.1  T
   6  -5198.1390250 -0.118689E-08  0.222E-05    3.88      72.6  T
     SCC iter.                  ...       19 min, 47.733 sec
     gradient                   ...        4 min, 57.883 sec
 * total energy  : -5104.1196801 Eh     change    :  -0.1389435E-02 Eh
   gradient norm :     0.0284497 Eh/a0  converged?    E=F G=F D=F
   time step     :     0.2500000 fs     power     :   0.6914720E-07
   step length   :     0.0733160 a0     speed     :   0.7093714E-02

........................................................................
.............................. CYCLE   46 ..............................
........................................................................

 iter      E             dE          RMSdq      gap      omega  full diag
   1  -5198.1508955 -0.519815E+04  0.266E-03    3.88       0.0  T
   2  -5198.1508965 -0.942089E-06  0.166E-03    3.88       1.0  T
   3  -5198.1508946  0.186419E-05  0.746E-04    3.88       2.2  T
   4  -5198.1508971 -0.250561E-05  0.998E-05    3.88      16.1  T
   5  -5198.1508971 -0.276104E-07  0.448E-05    3.88      35.9  T
   6  -5198.1508971 -0.149885E-08  0.243E-05    3.88      66.1  T
     SCC iter.                  ...       19 min, 45.688 sec
     gradient                   ...        4 min, 58.922 sec
 * total energy  : -5104.1210083 Eh     change    :  -0.1328267E-02 Eh
   gradient norm :     0.0261493 Eh/a0  converged?    E=F G=F D=F
   time step     :     0.2500000 fs     power     :   0.6517219E-07
   step length   :     0.0719488 a0     speed     :   0.6961430E-02

........................................................................
.............................. CYCLE   47 ..............................
........................................................................

 iter      E             dE          RMSdq      gap      omega  full diag
   1  -5198.1706084 -0.519817E+04  0.272E-03    3.88       0.0  T
   2  -5198.1706091 -0.714578E-06  0.167E-03    3.88       1.0  T
   3  -5198.1706072  0.188785E-05  0.695E-04    3.88       2.3  T
   4  -5198.1706096 -0.236251E-05  0.907E-05    3.88      17.7  T
   5  -5198.1706096 -0.194159E-07  0.447E-05    3.88      36.0  T
   6  -5198.1706096 -0.133514E-08  0.235E-05    3.88      68.6  T
     SCC iter.                  ...       19 min, 46.126 sec
     gradient                   ...        4 min, 57.672 sec
 * total energy  : -5104.1222524 Eh     change    :  -0.1244107E-02 Eh
   gradient norm :     0.0261481 Eh/a0  converged?    E=F G=F D=F
   time step     :     0.2500000 fs     power     :   0.6128335E-07
   step length   :     0.0707591 a0     speed     :   0.6846325E-02

........................................................................
.............................. CYCLE   48 ..............................
........................................................................

 iter      E             dE          RMSdq      gap      omega  full diag
   1  -5198.1992523 -0.519820E+04  0.293E-03    3.88       0.0  T
   2  -5198.1992528 -0.506280E-06  0.176E-03    3.88       1.0  T
   3  -5198.1992514  0.144437E-05  0.594E-04    3.88       2.7  T
   4  -5198.1992531 -0.173059E-05  0.860E-05    3.88      18.7  T
   5  -5198.1992531 -0.154996E-07  0.444E-05    3.88      36.2  T
   6  -5198.1992531 -0.912223E-09  0.210E-05    3.88      76.6  T
     SCC iter.                  ...       19 min, 43.914 sec
     gradient                   ...        4 min, 58.227 sec
 * total energy  : -5104.1235646 Eh     change    :  -0.1312171E-02 Eh
   gradient norm :     0.0267111 Eh/a0  converged?    E=F G=F D=F
   time step     :     0.2750000 fs     power     :   0.5931692E-07
   step length   :     0.0764375 a0     speed     :   0.6723399E-02

........................................................................
.............................. CYCLE   49 ..............................
........................................................................

 iter      E             dE          RMSdq      gap      omega  full diag
   1  -5198.2359180 -0.519824E+04  0.309E-03    3.88       0.0  T
   2  -5198.2359183 -0.376048E-06  0.183E-03    3.88       1.0  T
   3  -5198.2359177  0.617616E-06  0.453E-04    3.88       3.6  T
   4  -5198.2359185 -0.768260E-06  0.785E-05    3.88      20.5  T
     SCC iter.                  ...       13 min, 13.685 sec
     gradient                   ...        4 min, 57.796 sec
 * total energy  : -5104.1249874 Eh     change    :  -0.1422801E-02 Eh
   gradient norm :     0.0264491 Eh/a0  converged?    E=F G=F D=F
   time step     :     0.3025000 fs     power     :   0.5893806E-07
   step length   :     0.0825849 a0     speed     :   0.6603744E-02

........................................................................
.............................. CYCLE   50 ..............................
........................................................................

 iter      E             dE          RMSdq      gap      omega  full diag
   1  -5198.2789464 -0.519828E+04  0.325E-03    3.88       0.0  T
   2  -5198.2789468 -0.402382E-06  0.193E-03    3.88       1.0  T
   3  -5198.2789461  0.732705E-06  0.492E-04    3.88       3.3  T
   4  -5198.2789470 -0.915170E-06  0.735E-05    3.88      21.9  T
     SCC iter.                  ...       13 min, 12.341 sec
     gradient                   ...        4 min, 56.997 sec
 * total energy  : -5104.1265407 Eh     change    :  -0.1553311E-02 Eh
   gradient norm :     0.0251434 Eh/a0  converged?    E=F G=F D=F
   time step     :     0.3327500 fs     power     :   0.5843101E-07
   step length   :     0.0895775 a0     speed     :   0.6511727E-02

........................................................................
.............................. CYCLE   51 ..............................
........................................................................

 iter      E             dE          RMSdq      gap      omega  full diag
   1  -5198.3255220 -0.519833E+04  0.342E-03    3.88       0.0  T
   2  -5198.3255225 -0.538491E-06  0.206E-03    3.88       1.0  T
   3  -5198.3255210  0.153735E-05  0.617E-04    3.88       2.6  T
   4  -5198.3255228 -0.184806E-05  0.844E-05    3.88      19.1  T
   5  -5198.3255228 -0.102928E-07  0.473E-05    3.88      34.0  T
   6  -5198.3255228 -0.129967E-08  0.209E-05    3.88      77.0  T
     SCC iter.                  ...       19 min, 47.549 sec
     gradient                   ...        5 min,  0.831 sec
 * total energy  : -5104.1282074 Eh     change    :  -0.1666719E-02 Eh
   gradient norm :     0.0232209 Eh/a0  converged?    E=F G=F D=F
   time step     :     0.3660250 fs     power     :   0.5646585E-07
   step length   :     0.0977275 a0     speed     :   0.6458345E-02

........................................................................
.............................. CYCLE   52 ..............................
........................................................................

 iter      E             dE          RMSdq      gap      omega  full diag
   1  -5198.3711210 -0.519837E+04  0.362E-03    3.88       0.0  T
   2  -5198.3711217 -0.655470E-06  0.218E-03    3.88       1.0  T
   3  -5198.3711202  0.147502E-05  0.608E-04    3.88       2.6  T
   4  -5198.3711220 -0.178610E-05  0.998E-05    3.88      16.1  T
   5  -5198.3711220 -0.183800E-07  0.525E-05    3.88      30.6  T
   6  -5198.3711220 -0.112414E-08  0.219E-05    3.88      73.6  T
     SCC iter.                  ...       19 min, 50.342 sec
     gradient                   ...        4 min, 58.078 sec
 * total energy  : -5104.1299417 Eh     change    :  -0.1734288E-02 Eh
   gradient norm :     0.0214663 Eh/a0  converged?    E=F G=F D=F
   time step     :     0.4026275 fs     power     :   0.5264974E-07
   step length   :     0.1071586 a0     speed     :   0.6437819E-02

........................................................................
.............................. CYCLE   53 ..............................
........................................................................

 iter      E             dE          RMSdq      gap      omega  full diag
   1  -5198.4094011 -0.519841E+04  0.382E-03    3.88       0.0  T
   2  -5198.4094019 -0.782052E-06  0.228E-03    3.88       1.0  T
   3  -5198.4094009  0.104555E-05  0.593E-04    3.88       2.7  T
   4  -5198.4094022 -0.133216E-05  0.104E-04    3.88      15.4  T
   5  -5198.4094022 -0.173268E-07  0.586E-05    3.88      27.4  T
   6  -5198.4094022 -0.206364E-08  0.249E-05    3.88      64.7  T
     SCC iter.                  ...       19 min, 45.965 sec
     gradient                   ...        4 min, 57.842 sec
 * total energy  : -5104.1317055 Eh     change    :  -0.1763820E-02 Eh
   gradient norm :     0.0216171 Eh/a0  converged?    E=F G=F D=F
   time step     :     0.4428903 fs     power     :   0.4828163E-07
   step length   :     0.1176977 a0     speed     :   0.6428167E-02

........................................................................
.............................. CYCLE   54 ..............................
........................................................................

 iter      E             dE          RMSdq      gap      omega  full diag
   1  -5198.4342059 -0.519843E+04  0.397E-03    3.89       0.0  T
   2  -5198.4342068 -0.897762E-06  0.237E-03    3.89       1.0  T
   3  -5198.4342043  0.244722E-05  0.808E-04    3.89       2.0  T
   4  -5198.4342073 -0.296803E-05  0.113E-04    3.89      14.2  T
   5  -5198.4342073 -0.258970E-07  0.661E-05    3.89      24.3  T
   6  -5198.4342073 -0.347427E-08  0.336E-05    3.89      47.8  T
     SCC iter.                  ...       19 min, 43.216 sec
     gradient                   ...        5 min,  2.123 sec
 * total energy  : -5104.1335485 Eh     change    :  -0.1842941E-02 Eh
   gradient norm :     0.0231162 Eh/a0  converged?    E=F G=F D=F
   time step     :     0.4871793 fs     power     :   0.4663645E-07
   step length   :     0.1287194 a0     speed     :   0.6391022E-02

........................................................................
.............................. CYCLE   55 ..............................
........................................................................

 iter      E             dE          RMSdq      gap      omega  full diag
   1  -5198.4423171 -0.519844E+04  0.420E-03    3.89       0.0  T
   2  -5198.4423181 -0.103620E-05  0.251E-03    3.89       1.0  T
   3  -5198.4423140  0.415795E-05  0.101E-03    3.89       1.6  T
   4  -5198.4423190 -0.499602E-05  0.108E-04    3.89      14.9  T
   5  -5198.4423190 -0.163809E-07  0.652E-05    3.89      24.7  T
   6  -5198.4423190 -0.291038E-08  0.339E-05    3.89      47.4  T
     SCC iter.                  ...       19 min, 44.308 sec
     gradient                   ...        5 min,  3.841 sec
 * total energy  : -5104.1355870 Eh     change    :  -0.2038484E-02 Eh
   gradient norm :     0.0221747 Eh/a0  converged?    E=F G=F D=F
   time step     :     0.5358972 fs     power     :   0.4752930E-07
   step length   :     0.1404709 a0     speed     :   0.6340449E-02

........................................................................
.............................. CYCLE   56 ..............................
........................................................................

 iter      E             dE          RMSdq      gap      omega  full diag
   1  -5198.4330147 -0.519843E+04  0.456E-03    3.88       0.0  T
   2  -5198.4330159 -0.121477E-05  0.272E-03    3.88       1.0  T
   3  -5198.4330123  0.363143E-05  0.101E-03    3.88       1.6  T
   4  -5198.4330167 -0.436573E-05  0.123E-04    3.88      13.1  T
   5  -5198.4330167 -0.298014E-07  0.643E-05    3.88      25.0  T
   6  -5198.4330167 -0.175805E-08  0.284E-05    3.88      56.7  T
     SCC iter.                  ...       19 min, 49.887 sec
     gradient                   ...        4 min, 56.869 sec
 * total energy  : -5104.1378058 Eh     change    :  -0.2218858E-02 Eh
   gradient norm :     0.0192843 Eh/a0  converged?    E=F G=F D=F
   time step     :     0.5894869 fs     power     :   0.4601764E-07
   step length   :     0.1544279 a0     speed     :   0.6336751E-02

........................................................................
.............................. CYCLE   57 ..............................
........................................................................

 iter      E             dE          RMSdq      gap      omega  full diag
   1  -5198.4086100 -0.519841E+04  0.488E-03    3.88       0.0  T
   2  -5198.4086111 -0.106388E-05  0.290E-03    3.88       1.0  T
   3  -5198.4086092  0.189731E-05  0.811E-04    3.88       2.0  T
   4  -5198.4086116 -0.233896E-05  0.121E-04    3.88      13.3  T
   5  -5198.4086116 -0.184864E-07  0.693E-05    3.88      23.2  T
   6  -5198.4086116 -0.304863E-08  0.330E-05    3.88      48.7  T
     SCC iter.                  ...       19 min, 50.260 sec
     gradient                   ...        4 min, 59.645 sec
 * total energy  : -5104.1400743 Eh     change    :  -0.2268491E-02 Eh
   gradient norm :     0.0190753 Eh/a0  converged?    E=F G=F D=F
   time step     :     0.6484356 fs     power     :   0.4189174E-07
[...]
  3618   6 C     3619   6 C                                       1.3835518
  3619   6 C     3620   6 C                                       1.3842837
  3620   6 C     3621   6 C                                       1.3838823
  3617   6 C     3622   6 C                                       1.3892548
  3621   6 C     3622   6 C                                       1.3846217
  3616   6 C     3623   6 C                                       1.5385477
  3623   6 C     3624   6 C                                       1.5366965
  3625   6 C     3626   6 C                                       1.3890020
  3626   6 C     3627   6 C                                       1.3834384
  3627   6 C     3628   6 C                                       1.3839001
  3628   6 C     3629   6 C                                       1.3847139
  3625   6 C     3630   6 C                                       1.3899447
  3629   6 C     3630   6 C                                       1.3825204
  3624   6 C     3631   6 C                                       1.5335593
  3631   6 C     3632   6 C                                       1.5371751
  3633   6 C     3634   6 C                                       1.3892172
  3634   6 C     3635   6 C                                       1.3844375
  3635   6 C     3636   6 C                                       1.3846302
  3636   6 C     3637   6 C                                       1.3856605
  3633   6 C     3638   6 C                                       1.3906344
  3637   6 C     3638   6 C                                       1.3824282
  3632   6 C     3639   6 C                                       1.5368927
  3639   6 C     3640   6 C                                       1.5330332
  3641   6 C     3642   6 C                                       1.3898316
  3642   6 C     3643   6 C                                       1.3832321
  3643   6 C     3644   6 C                                       1.3841310
  3644   6 C     3645   6 C                                       1.3843339
  3641   6 C     3646   6 C                                       1.3898240
  3645   6 C     3646   6 C                                       1.3828777
  3640   6 C     3647   6 C                                       1.5367026
  3647   6 C     3648   6 C                                       1.5393090
  3649   6 C     3650   6 C                                       1.3902660
  3650   6 C     3651   6 C                                       1.3836696
  3651   6 C     3652   6 C                                       1.3834814
  3652   6 C     3653   6 C                                       1.3834694
  3649   6 C     3654   6 C                                       1.3902006
  3653   6 C     3654   6 C                                       1.3830739
  3648   6 C     3655   6 C                                       1.5373305
  3655   6 C     3656   6 C                                       1.5389803
  3657   6 C     3658   6 C                                       1.3894810
  3658   6 C     3659   6 C                                       1.3847066
  3659   6 C     3660   6 C                                       1.3841833
  3660   6 C     3661   6 C                                       1.3842838
  3657   6 C     3662   6 C                                       1.3904224
  3661   6 C     3662   6 C                                       1.3828297
  3656   6 C     3663   6 C                                       1.5342710
  3663   6 C     3664   6 C                                       1.5338655
  3665   6 C     3666   6 C                                       1.3889472
  3666   6 C     3667   6 C                                       1.3834193
  3667   6 C     3668   6 C                                       1.3839879
  3668   6 C     3669   6 C                                       1.3848767
  3665   6 C     3670   6 C                                       1.3896593
  3669   6 C     3670   6 C                                       1.3827035
  3664   6 C     3671   6 C                                       1.5384453
  3671   6 C     3672   6 C                                       1.5381819
  3673   6 C     3674   6 C                                       1.3902552
  3674   6 C     3675   6 C                                       1.3841756
  3675   6 C     3676   6 C                                       1.3845658
  3676   6 C     3677   6 C                                       1.3847893
  3673   6 C     3678   6 C                                       1.3904171
  3677   6 C     3678   6 C                                       1.3836600
  3672   6 C     3679   6 C                                       1.5323603
  3679   6 C     3680   6 C                                       1.5335160
  3681   6 C     3682   6 C                                       1.3880152
  3682   6 C     3683   6 C                                       1.3856362
  3683   6 C     3684   6 C                                       1.3835997
  3684   6 C     3685   6 C                                       1.3847894
  3681   6 C     3686   6 C                                       1.3907324
  3685   6 C     3686   6 C                                       1.3830653
  3680   6 C     3687   6 C                                       1.5407034
  3687   6 C     3688   6 C                                       1.5358789
  3549   6 C     3689   1 H                                       1.0963884
  3551   6 C     3690   1 H                                       1.0920295
  3551   6 C     3691   1 H                                       1.0912862
  3552   6 C     3692   1 H                                       1.0947952
  3559   6 C     3693   1 H                                       1.0911574
  3559   6 C     3694   1 H                                       1.0930499
  3560   6 C     3695   1 H                                       1.0948163
  3567   6 C     3696   1 H                                       1.0905673
  3567   6 C     3697   1 H                                       1.0912586
  3568   6 C     3698   1 H                                       1.0962094
  3575   6 C     3699   1 H                                       1.0909488
  3576   6 C     3700   1 H                                       1.0945637
  3583   6 C     3701   1 H                                       1.0933447
  3583   6 C     3702   1 H                                       1.0924557
  3584   6 C     3703   1 H                                       1.0942479
  3591   6 C     3704   1 H                                       1.0884235
  3591   6 C     3705   1 H                                       1.0907440
  3592   6 C     3706   1 H                                       1.0947152
  3599   6 C     3707   1 H                                       1.0916306
  3599   6 C     3708   1 H                                       1.0929111
  3600   6 C     3709   1 H                                       1.0935615
  3608   6 C     3710   1 H                                       1.0960960
  3615   6 C     3711   1 H                                       1.0906895
  3615   6 C     3712   1 H                                       1.0912206
  3616   6 C     3713   1 H                                       1.0959343
  3623   6 C     3714   1 H                                       1.0912949
  3623   6 C     3715   1 H                                       1.0903918
  3624   6 C     3716   1 H                                       1.0948893
  3631   6 C     3717   1 H                                       1.0912459
  3631   6 C     3718   1 H                                       1.0926346
  3632   6 C     3719   1 H                                       1.0961875
  3639   6 C     3720   1 H                                       1.0920712
  3639   6 C     3721   1 H                                       1.0918702
  3640   6 C     3722   1 H                                       1.0956069
  3647   6 C     3723   1 H                                       1.0899430
  3647   6 C     3724   1 H                                       1.0903075
  3648   6 C     3725   1 H                                       1.0938164
  3655   6 C     3726   1 H                                       1.0928831
  3655   6 C     3727   1 H                                       1.0926414
  3656   6 C     3728   1 H                                       1.0956147
  3663   6 C     3729   1 H                                       1.0906271
  3663   6 C     3730   1 H                                       1.0910814
  3664   6 C     3731   1 H                                       1.0941099
  3671   6 C     3732   1 H                                       1.0927889
  3671   6 C     3733   1 H                                       1.0939745
  3672   6 C     3734   1 H                                       1.0945538
  3679   6 C     3735   1 H                                       1.0922790
  3679   6 C     3736   1 H                                       1.0902806
  3543   6 C     3737   1 H                                       1.0804514
  3548   6 C     3738   1 H                                       1.0808180
  3547   6 C     3739   1 H                                       1.0807938
  3546   6 C     3740   1 H                                       1.0802999
  3545   6 C     3741   1 H                                       1.0819636
  3554   6 C     3742   1 H                                       1.0804305
  3555   6 C     3743   1 H                                       1.0812442
  3556   6 C     3744   1 H                                       1.0803576
  3557   6 C     3745   1 H                                       1.0811331
  3558   6 C     3746   1 H                                       1.0805611
  3562   6 C     3747   1 H                                       1.0801897
  3563   6 C     3748   1 H                                       1.0809954
  3564   6 C     3749   1 H                                       1.0805219
  3565   6 C     3750   1 H                                       1.0812797
  3566   6 C     3751   1 H                                       1.0816576
  3570   6 C     3752   1 H                                       1.0804819
  3571   6 C     3753   1 H                                       1.0808461
  3572   6 C     3754   1 H                                       1.0807659
  3573   6 C     3755   1 H                                       1.0811689
  3574   6 C     3756   1 H                                       1.0813519
  3575   6 C     3757   1 H                                       1.0912415
  3578   6 C     3758   1 H                                       1.0819855
  3579   6 C     3759   1 H                                       1.0816105
  3580   6 C     3760   1 H                                       1.0803208
  3581   6 C     3761   1 H                                       1.0794033
  3582   6 C     3762   1 H                                       1.0792114
  3586   6 C     3763   1 H                                       1.0810515
  3587   6 C     3764   1 H                                       1.0807246
  3588   6 C     3765   1 H                                       1.0805275
  3589   6 C     3766   1 H                                       1.0800812
  3590   6 C     3767   1 H                                       1.0800981
  3594   6 C     3768   1 H                                       1.0810567
  3595   6 C     3769   1 H                                       1.0811582
  3596   6 C     3770   1 H                                       1.0810312
  3597   6 C     3771   1 H                                       1.0806364
  3598   6 C     3772   1 H                                       1.0799615
  3602   6 C     3773   1 H                                       1.0805753
  3603   6 C     3774   1 H                                       1.0800575
  3604   6 C     3775   1 H                                       1.0806970
  3605   6 C     3776   1 H                                       1.0812081
  3606   6 C     3777   1 H                                       1.0805842
  3607   6 C     3778   1 H                                       1.0886521
  3607   6 C     3779   1 H                                       1.0932066
  3610   6 C     3780   1 H                                       1.0816573
  3611   6 C     3781   1 H                                       1.0809300
  3612   6 C     3782   1 H                                       1.0805154
  3613   6 C     3783   1 H                                       1.0811115
  3614   6 C     3784   1 H                                       1.0803615
  3618   6 C     3785   1 H                                       1.0791662
  3619   6 C     3786   1 H                                       1.0807878
  3620   6 C     3787   1 H                                       1.0807692
  3621   6 C     3788   1 H                                       1.0812501
  3622   6 C     3789   1 H                                       1.0819232
  3626   6 C     3790   1 H                                       1.0805045
  3627   6 C     3791   1 H                                       1.0809259
  3628   6 C     3792   1 H                                       1.0807037
  3629   6 C     3793   1 H                                       1.0809674
  3630   6 C     3794   1 H                                       1.0797410
  3634   6 C     3795   1 H                                       1.0820760
  3635   6 C     3796   1 H                                       1.0818838
  3636   6 C     3797   1 H                                       1.0803806
  3637   6 C     3798   1 H                                       1.0807230
  3638   6 C     3799   1 H                                       1.0792634
  3642   6 C     3800   1 H                                       1.0814285
  3643   6 C     3801   1 H                                       1.0812524
  3644   6 C     3802   1 H                                       1.0813115
  3645   6 C     3803   1 H                                       1.0800341
  3646   6 C     3804   1 H                                       1.0803270
  3650   6 C     3805   1 H                                       1.0812233
  3651   6 C     3806   1 H                                       1.0806820
  3652   6 C     3807   1 H                                       1.0810858
  3653   6 C     3808   1 H                                       1.0795939
  3654   6 C     3809   1 H                                       1.0821948
  3658   6 C     3810   1 H                                       1.0820939
  3659   6 C     3811   1 H                                       1.0810198
  3660   6 C     3812   1 H                                       1.0810209
  3661   6 C     3813   1 H                                       1.0809263
  3662   6 C     3814   1 H                                       1.0791433
  3666   6 C     3815   1 H                                       1.0803734
  3667   6 C     3816   1 H                                       1.0815977
  3668   6 C     3817   1 H                                       1.0813419
  3669   6 C     3818   1 H                                       1.0817362
  3670   6 C     3819   1 H                                       1.0797289
  3674   6 C     3820   1 H                                       1.0797096
  3675   6 C     3821   1 H                                       1.0804509
  3676   6 C     3822   1 H                                       1.0814658
  3677   6 C     3823   1 H                                       1.0801225
  3678   6 C     3824   1 H                                       1.0817263
  3686   6 C     3825   1 H                                       1.0795928
  3685   6 C     3826   1 H                                       1.0808943
  3684   6 C     3827   1 H                                       1.0808111
  3683   6 C     3828   1 H                                       1.0811323
  3682   6 C     3829   1 H                                       1.0805529
  3550   6 C     3830   1 H                                       1.0881267
  3550   6 C     3831   1 H                                       1.0873351
  3550   6 C     3832   1 H                                       1.0878272
  3680   6 C     3833   1 H                                       1.0938698
  3687   6 C     3834   1 H                                       1.0920756
  3687   6 C     3835   1 H                                       1.0892285
  3688   6 C     3836   6 C                                       1.5349586
  3837   6 C     3838   6 C                                       1.3915200
  3838   6 C     3839   6 C                                       1.3832452
  3839   6 C     3840   6 C                                       1.3853835
  3840   6 C     3841   6 C                                       1.3828998
  3837   6 C     3842   6 C                                       1.3890040
  3841   6 C     3842   6 C                                       1.3838640
  3838   6 C     3843   1 H                                       1.0808240
  3839   6 C     3844   1 H                                       1.0817747
  3840   6 C     3845   1 H                                       1.0810274
  3841   6 C     3846   1 H                                       1.0800645
  3842   6 C     3847   1 H                                       1.0813705
  3836   6 C     3848   6 C                                       1.5356581
  3836   6 C     3849   1 H                                       1.0931697
  3836   6 C     3850   1 H                                       1.0916998
  3851   6 C     3852   6 C                                       1.3892537
  3852   6 C     3853   6 C                                       1.3836121
  3853   6 C     3854   6 C                                       1.3847740
  3854   6 C     3855   6 C                                       1.3835984
  3851   6 C     3856   6 C                                       1.3896883
  3855   6 C     3856   6 C                                       1.3833849
  3852   6 C     3857   1 H                                       1.0818851
  3853   6 C     3858   1 H                                       1.0811923
  3854   6 C     3859   1 H                                       1.0799937
  3855   6 C     3860   1 H                                       1.0805366
  3856   6 C     3861   1 H                                       1.0806552
  3688   6 C     3862   1 H                                       1.0950257
  3848   6 C     3863   1 H                                       1.0922342
  3848   6 C     3864   1 H                                       1.0900436

 * 2 distinct bonds (by element types)

   Z      Z             #   av. dist./Å        max./Å        min./Å
   1 H    6 C        1944     1.0852652     1.0979756     1.0771806
   6 C    6 C        1854     1.4192620     1.5408922     1.3810532


optimized geometry written to: xtbopt.xyz


           -------------------------------------------------
          | TOTAL ENERGY            -5104.216110450761 Eh   |
          | GRADIENT NORM               0.000867358416 Eh/α |
          | HOMO-LUMO GAP               3.832677565778 eV   |
           -------------------------------------------------

------------------------------------------------------------------------
 * finished run on 2024/07/13 at 07:10:10.435     
------------------------------------------------------------------------
 total:
 * wall-time:     6 d,  7 h, 48 min, 32.001 sec
 *  cpu-time:    41 d,  7 h, 10 min, 23.352 sec
 * ratio c/w:     6.529 speedup
 SCF:
 * wall-time:     0 d,  0 h, 15 min, 37.462 sec
 *  cpu-time:     0 d,  1 h, 39 min, 46.920 sec
 * ratio c/w:     6.386 speedup
 ANC optimizer:
 * wall-time:     6 d,  7 h, 31 min, 44.003 sec
 *  cpu-time:    41 d,  5 h, 29 min,  4.960 sec
 * ratio c/w:     6.530 speedup

