      -----------------------------------------------------------      
     |                   =====================                   |     
     |                           x T B                           |     
     |                   =====================                   |     
     |                         S. Grimme                         |     
     |          Mulliken Center for Theoretical Chemistry        |     
     |                    University of Bonn                     |     
      -----------------------------------------------------------      

   * xtb version 6.6.1 (8d0f1dd) compiled by 'stahn@M-Bot' on 2023-08-01

   xtb is free software: you can redistribute it and/or modify it under
   the terms of the GNU Lesser General Public License as published by
   the Free Software Foundation, either version 3 of the License, or
   (at your option) any later version.
   
   xtb is distributed in the hope that it will be useful,
   but WITHOUT ANY WARRANTY; without even the implied warranty of
   MERCHANTABILITY or FITNESS FOR A PARTICULAR PURPOSE.  See the
   GNU Lesser General Public License for more details.
   
   Cite this work as:
   * C. Bannwarth, E. Caldeweyher, S. Ehlert, A. Hansen, P. Pracht,
     J. Seibert, S. Spicher, S. Grimme, WIREs Comput. Mol. Sci., 2020, 11,
     e01493. DOI: 10.1002/wcms.1493
   
   for GFN2-xTB:
   * C. Bannwarth, S. Ehlert and S. Grimme., J. Chem. Theory Comput., 2019,
     15, 1652-1671. DOI: 10.1021/acs.jctc.8b01176
   for GFN1-xTB:
   * S. Grimme, C. Bannwarth, P. Shushkov, J. Chem. Theory Comput., 2017,
     13, 1989-2009. DOI: 10.1021/acs.jctc.7b00118
   for GFN0-xTB:
   * P. Pracht, E. Caldeweyher, S. Ehlert, S. Grimme, ChemRxiv, 2019, preprint.
     DOI: 10.26434/chemrxiv.8326202.v1
   for GFN-FF:
   * S. Spicher and S. Grimme, Angew. Chem. Int. Ed., 2020, 59, 15665-15673.
     DOI: 10.1002/anie.202004239
   
   for ALPB and GBSA implicit solvation:
   * S. Ehlert, M. Stahn, S. Spicher, S. Grimme, J. Chem. Theory Comput.,
     2021, 17, 4250-4261. DOI: 10.1021/acs.jctc.1c00471
   
   for DFT-D4:
   * E. Caldeweyher, C. Bannwarth and S. Grimme, J. Chem. Phys., 2017,
     147, 034112. DOI: 10.1063/1.4993215
   * E. Caldeweyher, S. Ehlert, A. Hansen, H. Neugebauer, S. Spicher,
     C. Bannwarth and S. Grimme, J. Chem. Phys., 2019, 150, 154122.
     DOI: 10.1063/1.5090222
   * E. Caldeweyher, J.-M. Mewes, S. Ehlert and S. Grimme, Phys. Chem. Chem. Phys.
     2020, 22, 8499-8512. DOI: 10.1039/D0CP00502A
   
   for sTDA-xTB:
   * S. Grimme and C. Bannwarth, J. Chem. Phys., 2016, 145, 054103.
     DOI: 10.1063/1.4959605
   
   in the mass-spec context:
   * V. Asgeirsson, C. Bauer and S. Grimme, Chem. Sci., 2017, 8, 4879.
     DOI: 10.1039/c7sc00601b
   * J. Koopman and S. Grimme, ACS Omega 2019, 4, 12, 15120-15133.
     DOI: 10.1021/acsomega.9b02011
   
   for metadynamics refer to:
   * S. Grimme, J. Chem. Theory Comput., 2019, 155, 2847-2862
     DOI: 10.1021/acs.jctc.9b00143
   
   for SPH calculations refer to:
   * S. Spicher and S. Grimme, J. Chem. Theory Comput., 2021, 17, 1701-1714
     DOI: 10.1021/acs.jctc.0c01306
   
   with help from (in alphabetical order)
   P. Atkinson, C. Bannwarth, F. Bohle, G. Brandenburg, E. Caldeweyher
   M. Checinski, S. Dohm, S. Ehlert, S. Ehrlich, I. Gerasimov, C. Hölzer
   A. Katbashev, J. Koopman, C. Lavigne, S. Lehtola, F. März, M. Müller,
   F. Musil, H. Neugebauer, J. Pisarek, C. Plett, P. Pracht, F. Pultar,
   J. Seibert, P. Shushkov, S. Spicher, M. Stahn, M. Steiner, T. Strunk,
   J. Stückrath, T. Rose, and J. Unsleber
   
 * started run on 2024/06/20 at 20:32:55.442     

           -------------------------------------------------
          |                Calculation Setup                |
           -------------------------------------------------

          program call               : /home/abt-grimme/AK-bin/xtb input.xyz --input input.inp --opt --gbsa water
          hostname                   : boar103.thch.uni-bonn.de
          coordinate file            : input.xyz
          omp threads                :                     8

   ID    Z sym.   atoms
    1    6 C      1-90, 273-362, 545-634, 817-906, 1089-1178, 1361-1450,
                  1633-1722, 1905-1994, 2177-2266, 2449-2538, 2721-2810,
                  2993-3082, 3265-3354
    2    1 H      91-272, 363-544, 635-816, 907-1088, 1179-1360, 1451-1632,
                  1723-1904, 1995-2176, 2267-2448, 2539-2720, 2811-2992,
                  3083-3264, 3355-3536

molecular fragmentation (1/2 indicates fragments):
111111111111111111111111111111111111111111111111111111111111111111111111
111111111111111111111111111111111111111111111111111111111111111111111111
111111111111111111111111111111111111111111111111111111111111111111111111
111111111111111111111111111111111111111111111111111111112222222222222222
222222222222222222222222222222222222222222222222222222222222222222222222
222222222222222222222222222222222222222222222222222222222222222222222222
222222222222222222222222222222222222222222222222222222222222222222222222
222222222222222222222222222222222222222222222222222222222222222222222222
222222222222222222222222222222222222222222222222222222222222222222222222
222222222222222222222222222222222222222222222222222222222222222222222222
222222222222222222222222222222222222222222222222222222222222222222222222
222222222222222222222222222222222222222222222222222222222222222222222222
222222222222222222222222222222222222222222222222222222222222222222222222
222222222222222222222222222222222222222222222222222222222222222222222222
222222222222222222222222222222222222222222222222222222222222222222222222
222222222222222222222222222222222222222222222222222222222222222222222222
222222222222222222222222222222222222222222222222222222222222222222222222
222222222222222222222222222222222222222222222222222222222222222222222222
222222222222222222222222222222222222222222222222222222222222222222222222
222222222222222222222222222222222222222222222222222222222222222222222222
222222222222222222222222222222222222222222222222222222222222222222222222
222222222222222222222222222222222222222222222222222222222222222222222222
222222222222222222222222222222222222222222222222222222222222222222222222
222222222222222222222222222222222222222222222222222222222222222222222222
222222222222222222222222222222222222222222222222222222222222222222222222
222222222222222222222222222222222222222222222222222222222222222222222222
222222222222222222222222222222222222222222222222222222222222222222222222
222222222222222222222222222222222222222222222222222222222222222222222222
222222222222222222222222222222222222222222222222222222222222222222222222
222222222222222222222222222222222222222222222222222222222222222222222222
222222222222222222222222222222222222222222222222222222222222222222222222
222222222222222222222222222222222222222222222222222222222222222222222222
222222222222222222222222222222222222222222222222222222222222222222222222
222222222222222222222222222222222222222222222222222222222222222222222222
222222222222222222222222222222222222222222222222222222222222222222222222
222222222222222222222222222222222222222222222222222222222222222222222222
222222222222222222222222222222222222222222222222222222222222222222222222
222222222222222222222222222222222222222222222222222222222222222222222222
222222222222222222222222222222222222222222222222222222222222222222222222
222222222222222222222222222222222222222222222222222222222222222222222222
222222222222222222222222222222222222222222222222222222222222222222222222
222222222222222222222222222222222222222222222222222222222222222222222222
222222222222222222222222222222222222222222222222222222222222222222222222
222222222222222222222222222222222222222222222222222222222222222222222222
222222222222222222222222222222222222222222222222222222222222222222222222
222222222222222222222222222222222222222222222222222222222222222222222222
222222222222222222222222222222222222222222222222222222222222222222222222
222222222222222222222222222222222222222222222222222222222222222222222222
222222222222222222222222222222222222222222222222222222222222222222222222
22222222
# atoms in fragment 1/2:   272  3264
 fragment masses (1/2) :     1264.41    15172.94
CMA distance (Bohr)    :  26.765
constraining FC (au)   :  0.0500

           -------------------------------------------------
          |                 G F N 2 - x T B                 |
           -------------------------------------------------

        Reference                      10.1021/acs.jctc.8b01176
      * Hamiltonian:
        H0-scaling (s, p, d)           1.850000    2.230000    2.230000
        zeta-weighting                 0.500000
      * Dispersion:
        s8                             2.700000
        a1                             0.520000
        a2                             5.000000
        s9                             5.000000
      * Repulsion:
        kExp                           1.500000    1.000000
        rExp                           1.000000
      * Coulomb:
        alpha                          2.000000
        third order                    shell-resolved
        anisotropic                    true
        a3                             3.000000
        a5                             4.000000
        cn-shift                       1.200000
        cn-exp                         4.000000
        max-rad                        5.000000

      * Solvation model:               GBSA
        Solvent                        water
        Parameter file                 internal GFN2-xTB/GBSA
        Dielectric constant                8.0200E+01
        Reference state                gsolv [1 M gas/solution]
        Free energy shift                  1.8574E-03 Eh       1.1656E+00 kcal/mol
        Temperature                        2.9815E+02 K
        Density                            1.0000E+00 kg/L
        Solvent mass                       1.8000E+01 g/mol
        Interaction kernel             Still
        Born radius scaling (c1)           1.5524E+00
        Born radii integrator          GBOBC
        Born offset                        2.4628E-02 a0       4.6540E-02 AA
        H-bond correction              true
        Ion screening                  false
        Surface tension                    1.0000E-05 Eh       1.5569E+01 dyn/cm
        Grid points                               230 per atom
q/qsh data taken from xtbrestart
CAMM data taken from xtbrestart

          ...................................................
          :                      SETUP                      :
          :.................................................:
          :  # basis functions                7046          :
          :  # atomic orbitals                7046          :
          :  # shells                         4706          :
          :  # electrons                      7046          :
          :  max. iterations                   250          :
          :  Hamiltonian                  GFN2-xTB          :
          :  restarted?                       true          :
          :  GBSA solvation                   true          :
          :  PC potential                    false          :
          :  electronic temp.          300.0000000     K    :
          :  accuracy                    1.0000000          :
          :  -> integral cutoff          0.2500000E+02      :
          :  -> integral neglect         0.1000000E-07      :
          :  -> SCF convergence          0.1000000E-05 Eh   :
          :  -> wf. convergence          0.1000000E-03 e    :
          :  Broyden damping             0.4000000          :
          ...................................................

 iter      E             dE          RMSdq      gap      omega  full diag
   1  -3764.2486581 -0.376425E+04  0.592E-05   10.56       0.0  T
   2  -3764.2486581 -0.305999E-08  0.467E-05   10.56      36.0  T
   3  -3764.2486581 -0.326145E-08  0.302E-05   10.56      55.7  T

   *** convergence criteria satisfied after 3 iterations ***

         #    Occupation            Energy/Eh            Energy/eV
      -------------------------------------------------------------
         1        2.0000           -0.6180192             -16.8172
       ...           ...                  ...                  ...
      3517        2.0000           -0.3772066             -10.2643
      3518        2.0000           -0.3770449             -10.2599
      3519        2.0000           -0.3765779             -10.2472
      3520        2.0000           -0.3758217             -10.2266
      3521        2.0000           -0.3757900             -10.2258
      3522        2.0000           -0.3755242             -10.2185
      3523        2.0000           -0.3752280             -10.2105 (HOMO)
      3524                          0.0126827               0.3451 (LUMO)
      3525                          0.0163386               0.4446
      3526                          0.0174275               0.4742
      3527                          0.0174786               0.4756
      3528                          0.0184231               0.5013
       ...                                ...                  ...
      7046                          0.3707895              10.0897
      -------------------------------------------------------------
                  HL-Gap            0.3879107 Eh           10.5556 eV
             Fermi-level           -0.1812726 Eh           -4.9327 eV

 SCC (total)                   0 d,  0 h,  8 min, 30.542 sec
 SCC setup                      ...        0 min,  1.980 sec (  0.388%)
 Dispersion                     ...        0 min,  4.144 sec (  0.812%)
 classical contributions        ...        0 min,  0.143 sec (  0.028%)
 integral evaluation            ...        0 min,  7.118 sec (  1.394%)
 iterations                     ...        3 min, 45.260 sec ( 44.122%)
 molecular gradient             ...        4 min, 21.294 sec ( 51.180%)
 printout                       ...        0 min, 10.602 sec (  2.077%)

         :::::::::::::::::::::::::::::::::::::::::::::::::::::
         ::                     SUMMARY                     ::
         :::::::::::::::::::::::::::::::::::::::::::::::::::::
         :: total energy           -3715.372629647249 Eh    ::
         :: total w/o Gsasa/hb     -3715.263117601857 Eh    ::
         :: gradient norm              0.664681396727 Eh/a0 ::
         :: HOMO-LUMO gap             10.555588185018 eV    ::
         ::.................................................::
         :: SCC energy             -3764.248658057724 Eh    ::
         :: -> isotropic ES            0.438116591542 Eh    ::
         :: -> anisotropic ES          1.502800839167 Eh    ::
         :: -> anisotropic XC          2.299997309790 Eh    ::
         :: -> dispersion             -4.687858561845 Eh    ::
         :: -> Gsolv                  -0.045326162465 Eh    ::
         ::    -> Gelec                0.064185882927 Eh    ::
         ::    -> Gsasa               -0.105049903683 Eh    ::
         ::    -> Ghb                 -0.006319584835 Eh    ::
         ::    -> Gshift               0.001857443127 Eh    ::
         :: repulsion energy          48.152090013451 Eh    ::
         :: add. restraining           0.000000000000 Eh    ::
         :: total charge              -0.000000000007 e     ::
         :::::::::::::::::::::::::::::::::::::::::::::::::::::

      ----------------------------------------------------------- 
     |              Fast Inertial Relaxation Engine              |
      ----------------------------------------------------------- 

          ...................................................
          :                      SETUP                      :
          :.................................................:
          :   energy convergence        0.5000000E-05 Eh    :
          :   grad. convergence         0.1000000E-02 Eh/a0 :
          :   optimization log               true           :
          :   writing optlog all                1     steps :
          :   Hessian reset                    20     steps :
          :   time step scaling                 5     steps :
          :   maximium step len.        1.0000000     a0    :
          :   initial time step         0.2500000     fs    :
          :   maximum time step         1.2500000     fs    :
          :   power reset thr           0.0000000     au    :
          :   alpha parameter           0.1000000           :
          :   BFGS update                   false           :
          :   preconditioning               false           :
          ...................................................

........................................................................
.............................. CYCLE    1 ..............................
........................................................................

 iter      E             dE          RMSdq      gap      omega  full diag
   1  -3764.5109646 -0.376451E+04  0.761E-03   10.57       0.0  T
   2  -3764.5110083 -0.436726E-04  0.414E-03   10.57       1.0  T
   3  -3764.5110090 -0.681155E-06  0.179E-03   10.57       1.0  T
   4  -3764.5110095 -0.527820E-06  0.442E-04   10.57       3.8  T
   5  -3764.5110098 -0.272906E-06  0.176E-04   10.57       9.5  T
     SCC iter.                  ...        6 min, 15.396 sec
     gradient                   ...        4 min, 19.706 sec
 * total energy  : -3715.4229302 Eh     change    :  -0.5030056E-01 Eh
   gradient norm :     0.6318892 Eh/a0  converged?    E=F G=F D=F
   time step     :     0.2500000 fs     power     :   0.2603076E-05
   step length   :     0.0778992 a0     speed     :   0.7537170E-02

........................................................................
.............................. CYCLE    2 ..............................
........................................................................

 iter      E             dE          RMSdq      gap      omega  full diag
   1  -3764.8977739 -0.376490E+04  0.112E-02   10.59       0.0  T
   2  -3764.8978677 -0.938244E-04  0.607E-03   10.59       1.0  T
   3  -3764.8978692 -0.151785E-05  0.263E-03   10.59       1.0  T
   4  -3764.8978704 -0.114177E-05  0.656E-04   10.59       2.6  T
   5  -3764.8978710 -0.594209E-06  0.273E-04   10.59       6.2  T
   6  -3764.8978710 -0.475461E-07  0.126E-04   10.59      13.3  T
     SCC iter.                  ...        7 min, 25.146 sec
     gradient                   ...        4 min, 20.517 sec
 * total energy  : -3715.4926975 Eh     change    :  -0.6976727E-01 Eh
   gradient norm :     0.5857441 Eh/a0  converged?    E=F G=F D=F
   time step     :     0.2500000 fs     power     :   0.3558542E-05
   step length   :     0.1148265 a0     speed     :   0.1111009E-01

........................................................................
.............................. CYCLE    3 ..............................
........................................................................

 iter      E             dE          RMSdq      gap      omega  full diag
   1  -3765.3992040 -0.376540E+04  0.144E-02   10.62       0.0  T
   2  -3765.3993575 -0.153474E-03  0.782E-03   10.61       1.0  T
   3  -3765.3993600 -0.251810E-05  0.335E-03   10.61       1.0  T
   4  -3765.3993618 -0.185111E-05  0.842E-04   10.61       2.0  T
   5  -3765.3993628 -0.976332E-06  0.353E-04   10.61       4.8  T
   6  -3765.3993629 -0.771379E-07  0.159E-04   10.61      10.6  T
     SCC iter.                  ...        7 min, 29.142 sec
     gradient                   ...        4 min, 20.553 sec
 * total energy  : -3715.5753698 Eh     change    :  -0.8267229E-01 Eh
   gradient norm :     0.5276702 Eh/a0  converged?    E=F G=F D=F
   time step     :     0.2500000 fs     power     :   0.4146550E-05
   step length   :     0.1490488 a0     speed     :   0.1442128E-01

........................................................................
.............................. CYCLE    4 ..............................
........................................................................

 iter      E             dE          RMSdq      gap      omega  full diag
   1  -3766.0025475 -0.376600E+04  0.172E-02   10.64       0.0  T
   2  -3766.0027611 -0.213576E-03  0.933E-03   10.64       1.0  T
   3  -3766.0027647 -0.362339E-05  0.394E-03   10.64       1.0  T
   4  -3766.0027672 -0.252833E-05  0.993E-04   10.64       1.7  T
   5  -3766.0027686 -0.134365E-05  0.428E-04   10.64       3.9  T
   6  -3766.0027687 -0.110567E-06  0.188E-04   10.64       8.9  T
   7  -3766.0027688 -0.513764E-07  0.125E-04   10.64      13.5  T
     SCC iter.                  ...        8 min, 36.855 sec
     gradient                   ...        4 min, 18.657 sec
 * total energy  : -3715.6634311 Eh     change    :  -0.8806134E-01 Eh
   gradient norm :     0.4613401 Eh/a0  converged?    E=F G=F D=F
   time step     :     0.2500000 fs     power     :   0.4328038E-05
   step length   :     0.1797408 a0     speed     :   0.1739089E-01

........................................................................
.............................. CYCLE    5 ..............................
........................................................................

 iter      E             dE          RMSdq      gap      omega  full diag
   1  -3766.6923398 -0.376669E+04  0.195E-02   10.67       0.0  T
   2  -3766.6926036 -0.263815E-03  0.105E-02   10.66       1.0  T
   3  -3766.6926082 -0.465228E-05  0.437E-03   10.66       1.0  T
   4  -3766.6926112 -0.295950E-05  0.109E-03   10.66       1.5  T
   5  -3766.6926128 -0.158387E-05  0.478E-04   10.66       3.5  T
   6  -3766.6926129 -0.114928E-06  0.194E-04   10.66       8.7  T
   7  -3766.6926129 -0.511559E-07  0.127E-04   10.66      13.2  T
     SCC iter.                  ...        8 min, 36.926 sec
     gradient                   ...        4 min, 19.473 sec
 * total energy  : -3715.7493688 Eh     change    :  -0.8593770E-01 Eh
   gradient norm :     0.3922334 Eh/a0  converged?    E=F G=F D=F
   time step     :     0.2500000 fs     power     :   0.4118649E-05
   step length   :     0.2061877 a0     speed     :   0.1994977E-01

........................................................................
.............................. CYCLE    6 ..............................
........................................................................

 iter      E             dE          RMSdq      gap      omega  full diag
   1  -3767.5335183 -0.376753E+04  0.236E-02   10.69       0.0  T
   2  -3767.5338800 -0.361671E-03  0.127E-02   10.69       1.0  T
   3  -3767.5338871 -0.707878E-05  0.510E-03   10.69       1.0  T
   4  -3767.5338909 -0.384301E-05  0.126E-03   10.69       1.3  T
   5  -3767.5338929 -0.201200E-05  0.586E-04   10.69       2.9  T
   6  -3767.5338931 -0.158840E-06  0.220E-04   10.69       7.6  T
   7  -3767.5338931 -0.645000E-07  0.148E-04   10.69      11.4  T
     SCC iter.                  ...        8 min, 33.234 sec
     gradient                   ...        4 min, 20.034 sec
 * total energy  : -3715.8341747 Eh     change    :  -0.8480590E-01 Eh
   gradient norm :     0.3214854 Eh/a0  converged?    E=F G=F D=F
   time step     :     0.2750000 fs     power     :   0.3512862E-05
   step length   :     0.2529718 a0     speed     :   0.2225126E-01

........................................................................
.............................. CYCLE    7 ..............................
........................................................................

 iter      E             dE          RMSdq      gap      omega  full diag
   1  -3768.5220935 -0.376852E+04  0.274E-02   10.72       0.0  T
   2  -3768.5225365 -0.443055E-03  0.147E-02   10.72       1.0  T
   3  -3768.5225470 -0.104739E-04  0.564E-03   10.72       1.0  T
   4  -3768.5225513 -0.432703E-05  0.135E-03   10.71       1.2  T
   5  -3768.5225534 -0.204345E-05  0.694E-04   10.71       2.4  T
   6  -3768.5225536 -0.204276E-06  0.235E-04   10.71       7.2  T
   7  -3768.5225536 -0.711366E-07  0.162E-04   10.71      10.4  T
     SCC iter.                  ...        8 min, 27.327 sec
     gradient                   ...        4 min, 18.994 sec
 * total energy  : -3715.9085082 Eh     change    :  -0.7433351E-01 Eh
   gradient norm :     0.2652547 Eh/a0  converged?    E=F G=F D=F
   time step     :     0.3025000 fs     power     :   0.2567492E-05
   step length   :     0.3010759 a0     speed     :   0.2407497E-01

........................................................................
.............................. CYCLE    8 ..............................
........................................................................

 iter      E             dE          RMSdq      gap      omega  full diag
   1  -3769.6233062 -0.376962E+04  0.305E-02   10.74       0.0  T
   2  -3769.6237661 -0.459892E-03  0.163E-02   10.73       1.0  T
   3  -3769.6237810 -0.149067E-04  0.578E-03   10.73       1.0  T
   4  -3769.6237850 -0.398890E-05  0.133E-03   10.73       1.3  T
   5  -3769.6237863 -0.125775E-05  0.765E-04   10.73       2.2  T
   6  -3769.6237865 -0.238882E-06  0.224E-04   10.73       7.5  T
   7  -3769.6237866 -0.625087E-07  0.163E-04   10.73      10.3  T
     SCC iter.                  ...        8 min, 30.590 sec
     gradient                   ...        4 min, 18.758 sec
 * total energy  : -3715.9643082 Eh     change    :  -0.5580000E-01 Eh
   gradient norm :     0.2430751 Eh/a0  converged?    E=F G=F D=F
   time step     :     0.3327500 fs     power     :   0.1487629E-05
   step length   :     0.3451170 a0     speed     :   0.2508785E-01

........................................................................
.............................. CYCLE    9 ..............................
........................................................................

 iter      E             dE          RMSdq      gap      omega  full diag
   1  -3770.7547954 -0.377075E+04  0.324E-02   10.75       0.0  T
   2  -3770.7551736 -0.378217E-03  0.175E-02   10.74       1.0  T
   3  -3770.7551924 -0.187721E-04  0.537E-03   10.74       1.0  T
   4  -3770.7551957 -0.336434E-05  0.130E-03   10.74       1.3  T
   5  -3770.7551962 -0.492457E-06  0.750E-04   10.74       2.2  T
   6  -3770.7551965 -0.222671E-06  0.179E-04   10.74       9.4  T
     SCC iter.                  ...        7 min, 17.689 sec
     gradient                   ...        4 min, 19.087 sec
 * total energy  : -3715.9990412 Eh     change    :  -0.3473297E-01 Eh
   gradient norm :     0.2507931 Eh/a0  converged?    E=F G=F D=F
   time step     :     0.3660250 fs     power     :   0.5724515E-06
   step length   :     0.3776035 a0     speed     :   0.2495401E-01

........................................................................
.............................. CYCLE   10 ..............................
........................................................................

 iter      E             dE          RMSdq      gap      omega  full diag
   1  -3771.8038659 -0.377180E+04  0.333E-02   10.76       0.0  T
   2  -3771.8041102 -0.244258E-03  0.185E-02   10.76       1.0  T
   3  -3771.8041261 -0.159232E-04  0.474E-03   10.76       1.0  T
   4  -3771.8041346 -0.847515E-05  0.146E-03   10.76       1.2  T
   5  -3771.8041357 -0.110297E-05  0.823E-04   10.76       2.0  T
   6  -3771.8041359 -0.154130E-06  0.153E-04   10.76      11.0  T
   7  -3771.8041359 -0.269524E-07  0.117E-04   10.76      14.3  T
     SCC iter.                  ...        8 min, 34.784 sec
     gradient                   ...        4 min, 19.931 sec
 * total energy  : -3716.0163081 Eh     change    :  -0.1726695E-01 Eh
   gradient norm :     0.2596586 Eh/a0  converged?    E=F G=F D=F
   time step     :     0.4026275 fs     power     :  -0.2961330E-07
   step length   :     0.3960161 a0     speed     :   0.2379165E-01

........................................................................
.............................. CYCLE   11 ..............................
........................................................................
 * reset velocities

 iter      E             dE          RMSdq      gap      omega  full diag
   1  -3771.7853556 -0.377179E+04  0.105E-03   10.76       0.0  T
   2  -3771.7853564 -0.840357E-06  0.642E-04   10.76       2.6  T
   3  -3771.7853564 -0.118494E-07  0.271E-04   10.76       6.2  T
     SCC iter.                  ...        3 min, 44.728 sec
     gradient                   ...        4 min, 20.982 sec
 * total energy  : -3716.0188388 Eh     change    :  -0.2530700E-02 Eh
   gradient norm :     0.2534270 Eh/a0  converged?    E=F G=F D=F
   time step     :     0.2013138 fs     power     :   0.1648071E-06
   step length   :     0.0098664 a0     speed     :   0.1185499E-02

........................................................................
.............................. CYCLE   12 ..............................
........................................................................

 iter      E             dE          RMSdq      gap      omega  full diag
   1  -3771.7482768 -0.377175E+04  0.210E-03   10.76       0.0  T
   2  -3771.7482799 -0.315266E-05  0.129E-03   10.76       1.3  T
   3  -3771.7482800 -0.286368E-07  0.523E-04   10.76       3.2  T
   4  -3771.7482800 -0.813202E-07  0.135E-04   10.76      12.4  T
     SCC iter.                  ...        4 min, 54.715 sec
     gradient                   ...        4 min, 20.369 sec
 * total energy  : -3716.0236609 Eh     change    :  -0.4822061E-02 Eh
   gradient norm :     0.2413028 Eh/a0  converged?    E=F G=F D=F
   time step     :     0.2013138 fs     power     :   0.3100061E-06
   step length   :     0.0194958 a0     speed     :   0.2342522E-02

........................................................................
.............................. CYCLE   13 ..............................
........................................................................

 iter      E             dE          RMSdq      gap      omega  full diag
   1  -3771.6938473 -0.377169E+04  0.302E-03   10.76       0.0  T
   2  -3771.6938544 -0.709389E-05  0.186E-03   10.76       1.0  T
   3  -3771.6938545 -0.103984E-06  0.787E-04   10.76       2.1  T
   4  -3771.6938547 -0.183351E-06  0.206E-04   10.76       8.2  T
     SCC iter.                  ...        4 min, 54.276 sec
     gradient                   ...        4 min, 18.934 sec
 * total energy  : -3716.0303228 Eh     change    :  -0.6661915E-02 Eh
   gradient norm :     0.2237509 Eh/a0  converged?    E=F G=F D=F
   time step     :     0.2013138 fs     power     :   0.4223022E-06
   step length   :     0.0286630 a0     speed     :   0.3443997E-02

........................................................................
.............................. CYCLE   14 ..............................
........................................................................

 iter      E             dE          RMSdq      gap      omega  full diag
   1  -3771.6235011 -0.377162E+04  0.390E-03   10.76       0.0  T
   2  -3771.6235130 -0.118604E-04  0.240E-03   10.76       1.0  T
   3  -3771.6235132 -0.179674E-06  0.102E-03   10.76       1.7  T
   4  -3771.6235135 -0.305463E-06  0.268E-04   10.76       6.3  T
   5  -3771.6235136 -0.897071E-07  0.677E-05   10.76      24.8  T
     SCC iter.                  ...        6 min, 10.069 sec
     gradient                   ...        4 min, 20.817 sec
 * total energy  : -3716.0382114 Eh     change    :  -0.7888549E-02 Eh
   gradient norm :     0.2015400 Eh/a0  converged?    E=F G=F D=F
   time step     :     0.2013138 fs     power     :   0.4920793E-06
   step length   :     0.0371569 a0     speed     :   0.4464586E-02

........................................................................
.............................. CYCLE   15 ..............................
........................................................................

 iter      E             dE          RMSdq      gap      omega  full diag
   1  -3771.5391779 -0.377154E+04  0.466E-03   10.77       0.0  T
   2  -3771.5391950 -0.171135E-04  0.287E-03   10.77       1.0  T
   3  -3771.5391953 -0.263943E-06  0.122E-03   10.77       1.4  T
   4  -3771.5391957 -0.425684E-06  0.320E-04   10.77       5.2  T
   5  -3771.5391959 -0.128076E-06  0.804E-05   10.77      20.9  T
     SCC iter.                  ...        6 min,  9.325 sec
     gradient                   ...        4 min, 20.433 sec
 * total energy  : -3716.0466198 Eh     change    :  -0.8408446E-02 Eh
   gradient norm :     0.1757230 Eh/a0  converged?    E=F G=F D=F
   time step     :     0.2013138 fs     power     :   0.5144117E-06
   step length   :     0.0447887 a0     speed     :   0.5381578E-02

........................................................................
.............................. CYCLE   16 ..............................
........................................................................

 iter      E             dE          RMSdq      gap      omega  full diag
   1  -3771.4433816 -0.377144E+04  0.529E-03   10.77       0.0  T
   2  -3771.4434038 -0.221863E-04  0.327E-03   10.77       1.0  T
   3  -3771.4434042 -0.346879E-06  0.139E-03   10.77       1.2  T
   4  -3771.4434047 -0.540748E-06  0.365E-04   10.77       4.6  T
   5  -3771.4434049 -0.165016E-06  0.916E-05   10.77      18.4  T
     SCC iter.                  ...        6 min,  8.394 sec
     gradient                   ...        4 min, 18.048 sec
 * total energy  : -3716.0548299 Eh     change    :  -0.8210106E-02 Eh
   gradient norm :     0.1478836 Eh/a0  converged?    E=F G=F D=F
   time step     :     0.2013138 fs     power     :   0.4900032E-06
   step length   :     0.0513922 a0     speed     :   0.6175025E-02

........................................................................
.............................. CYCLE   17 ..............................
........................................................................

 iter      E             dE          RMSdq      gap      omega  full diag
   1  -3771.3278589 -0.377133E+04  0.640E-03   10.77       0.0  T
   2  -3771.3278915 -0.325579E-04  0.396E-03   10.77       1.0  T
   3  -3771.3278920 -0.512659E-06  0.168E-03   10.77       1.0  T
   4  -3771.3278928 -0.773638E-06  0.441E-04   10.77       3.8  T
   5  -3771.3278930 -0.239609E-06  0.109E-04   10.77      15.4  T
     SCC iter.                  ...        6 min, 13.864 sec
     gradient                   ...        4 min, 20.089 sec
 * total energy  : -3716.0629071 Eh     change    :  -0.8077222E-02 Eh
   gradient norm :     0.1176273 Eh/a0  converged?    E=F G=F D=F
   time step     :     0.2214451 fs     power     :   0.4164821E-06
   step length   :     0.0631116 a0     speed     :   0.6893790E-02

........................................................................
.............................. CYCLE   18 ..............................
........................................................................

 iter      E             dE          RMSdq      gap      omega  full diag
   1  -3771.1948467 -0.377119E+04  0.743E-03   10.76       0.0  T
   2  -3771.1948907 -0.439676E-04  0.461E-03   10.77       1.0  T
   3  -3771.1948913 -0.692884E-06  0.195E-03   10.77       1.0  T
   4  -3771.1948924 -0.102153E-05  0.513E-04   10.77       3.3  T
   5  -3771.1948927 -0.321239E-06  0.126E-04   10.77      13.3  T
   6  -3771.1948927 -0.123978E-07  0.862E-05   10.77      19.5  T
     SCC iter.                  ...        7 min, 25.474 sec
     gradient                   ...        4 min, 19.431 sec
 * total energy  : -3716.0698736 Eh     change    :  -0.6966459E-02 Eh
   gradient norm :     0.0911346 Eh/a0  converged?    E=F G=F D=F
   time step     :     0.2435896 fs     power     :   0.2974953E-06
   step length   :     0.0752590 a0     speed     :   0.7473344E-02

........................................................................
.............................. CYCLE   19 ..............................
........................................................................

 iter      E             dE          RMSdq      gap      omega  full diag
   1  -3771.0528376 -0.377105E+04  0.813E-03   10.77       0.0  T
   2  -3771.0528897 -0.521101E-04  0.508E-03   10.77       1.0  T
   3  -3771.0528904 -0.780225E-06  0.212E-03   10.77       1.0  T
   4  -3771.0528916 -0.120348E-05  0.558E-04   10.77       3.0  T
   5  -3771.0528920 -0.376112E-06  0.129E-04   10.77      13.0  T
   6  -3771.0528920 -0.108312E-07  0.837E-05   10.77      20.1  T
     SCC iter.                  ...        7 min, 20.969 sec
     gradient                   ...        4 min, 19.464 sec
 * total energy  : -3716.0748272 Eh     change    :  -0.4953604E-02 Eh
   gradient norm :     0.0816030 Eh/a0  converged?    E=F G=F D=F
   time step     :     0.2679486 fs     power     :   0.1576710E-06
   step length   :     0.0864472 a0     speed     :   0.7803952E-02

........................................................................
.............................. CYCLE   20 ..............................
........................................................................

 iter      E             dE          RMSdq      gap      omega  full diag
   1  -3770.9201023 -0.377092E+04  0.816E-03   10.77       0.0  T
   2  -3770.9201519 -0.495476E-04  0.514E-03   10.77       1.0  T
   3  -3770.9201525 -0.631685E-06  0.206E-03   10.77       1.0  T
   4  -3770.9201538 -0.123991E-05  0.548E-04   10.77       3.1  T
   5  -3770.9201541 -0.359516E-06  0.128E-04   10.77      13.1  T
   6  -3770.9201541 -0.887985E-08  0.775E-05   10.77      21.7  T
     SCC iter.                  ...        7 min, 33.811 sec
     gradient                   ...        4 min, 18.721 sec
 * total energy  : -3716.0775921 Eh     change    :  -0.2764894E-02 Eh
   gradient norm :     0.0950415 Eh/a0  converged?    E=F G=F D=F
   time step     :     0.2947435 fs     power     :   0.4803940E-07
   step length   :     0.0941015 a0     speed     :   0.7722668E-02
 * RMSD in coord.:     0.0373968 a0     energy gain  -0.7049624E+00 Eh

........................................................................
.............................. CYCLE   21 ..............................
........................................................................

 iter      E             dE          RMSdq      gap      omega  full diag
   1  -3770.8396556 -0.377084E+04  0.580E-03   10.77       0.0  T
   2  -3770.8396770 -0.214369E-04  0.369E-03   10.77       1.0  T
   3  -3770.8396772 -0.138899E-06  0.135E-03   10.77       1.2  T
   4  -3770.8396779 -0.695069E-06  0.362E-04   10.77       4.6  T
   5  -3770.8396780 -0.158433E-06  0.931E-05   10.77      18.1  T
     SCC iter.                  ...        6 min, 10.908 sec
     gradient                   ...        4 min, 19.249 sec
 * total energy  : -3716.0789191 Eh     change    :  -0.1326984E-02 Eh
   gradient norm :     0.1113580 Eh/a0  converged?    E=F G=F D=F
   time step     :     0.2500000 fs     power     :   0.2914843E-07
   step length   :     0.0746736 a0     speed     :   0.7225071E-02

........................................................................
.............................. CYCLE   22 ..............................
........................................................................

 iter      E             dE          RMSdq      gap      omega  full diag
   1  -3770.7941552 -0.377079E+04  0.479E-03   10.78       0.0  T
   2  -3770.7941652 -0.999806E-05  0.305E-03   10.78       1.0  T
   3  -3770.7941651  0.102878E-06  0.871E-04   10.78       1.9  T
   4  -3770.7941656 -0.539648E-06  0.247E-04   10.78       6.8  T
     SCC iter.                  ...        5 min,  2.243 sec
     gradient                   ...        4 min, 21.613 sec
 * total energy  : -3716.0805364 Eh     change    :  -0.1617344E-02 Eh
   gradient norm :     0.1231088 Eh/a0  converged?    E=F G=F D=F
   time step     :     0.2500000 fs     power     :   0.6268046E-07
   step length   :     0.0695463 a0     speed     :   0.6728977E-02

........................................................................
.............................. CYCLE   23 ..............................
........................................................................

 iter      E             dE          RMSdq      gap      omega  full diag
   1  -3770.7829297 -0.377078E+04  0.420E-03   10.79       0.0  T
   2  -3770.7829327 -0.304696E-05  0.262E-03   10.79       1.0  T
   3  -3770.7829326  0.112422E-06  0.397E-04   10.79       4.2  T
   4  -3770.7829330 -0.325402E-06  0.147E-04   10.79      11.4  T
     SCC iter.                  ...        4 min, 53.420 sec
     gradient                   ...        4 min, 19.502 sec
 * total energy  : -3716.0831024 Eh     change    :  -0.2565987E-02 Eh
   gradient norm :     0.1278436 Eh/a0  converged?    E=F G=F D=F
   time step     :     0.2500000 fs     power     :   0.1233553E-06
   step length   :     0.0660538 a0     speed     :   0.6391063E-02

........................................................................
.............................. CYCLE   24 ..............................
........................................................................

 iter      E             dE          RMSdq      gap      omega  full diag
   1  -3770.8035779 -0.377080E+04  0.412E-03   10.80       0.0  T
   2  -3770.8035784 -0.498642E-06  0.248E-03   10.80       1.0  T
   3  -3770.8035785 -0.946084E-07  0.182E-04   10.80       9.2  T
   4  -3770.8035785 -0.450264E-07  0.102E-04   10.80      16.6  T
     SCC iter.                  ...        4 min, 55.679 sec
     gradient                   ...        4 min, 21.369 sec
 * total energy  : -3716.0868151 Eh     change    :  -0.3712657E-02 Eh
   gradient norm :     0.1255040 Eh/a0  converged?    E=F G=F D=F
   time step     :     0.2500000 fs     power     :   0.1873951E-06
   step length   :     0.0647620 a0     speed     :   0.6266070E-02

........................................................................
.............................. CYCLE   25 ..............................
........................................................................

 iter      E             dE          RMSdq      gap      omega  full diag
   1  -3770.8527648 -0.377085E+04  0.446E-03   10.81       0.0  T
   2  -3770.8527662 -0.134646E-05  0.259E-03   10.81       1.0  T
   3  -3770.8527662 -0.235282E-07  0.365E-04   10.81       4.6  T
   4  -3770.8527663 -0.154071E-06  0.117E-04   10.81      14.4  T
     SCC iter.                  ...        5 min,  0.579 sec
     gradient                   ...        4 min, 20.213 sec
 * total energy  : -3716.0915084 Eh     change    :  -0.4693377E-02 Eh
   gradient norm :     0.1170830 Eh/a0  converged?    E=F G=F D=F
   time step     :     0.2500000 fs     power     :   0.2373533E-06
   step length   :     0.0654893 a0     speed     :   0.6336437E-02

........................................................................
.............................. CYCLE   26 ..............................
........................................................................

 iter      E             dE          RMSdq      gap      omega  full diag
   1  -3770.9355591 -0.377094E+04  0.554E-03   10.82       0.0  T
   2  -3770.9355647 -0.559198E-05  0.316E-03   10.82       1.0  T
   3  -3770.9355646  0.114007E-06  0.762E-04   10.82       2.2  T
   4  -3770.9355651 -0.467693E-06  0.173E-04   10.82       9.7  T
     SCC iter.                  ...        4 min, 56.607 sec
     gradient                   ...        4 min, 18.934 sec
 * total energy  : -3716.0973558 Eh     change    :  -0.5847354E-02 Eh
   gradient norm :     0.1027098 Eh/a0  converged?    E=F G=F D=F
   time step     :     0.2750000 fs     power     :   0.2629353E-06
   step length   :     0.0749432 a0     speed     :   0.6591963E-02

........................................................................
.............................. CYCLE   27 ..............................
........................................................................

 iter      E             dE          RMSdq      gap      omega  full diag
   1  -3771.0534404 -0.377105E+04  0.683E-03   10.83       0.0  T
   2  -3771.0534536 -0.131744E-04  0.387E-03   10.83       1.0  T
   3  -3771.0534534  0.164193E-06  0.113E-03   10.83       1.5  T
   4  -3771.0534542 -0.785816E-06  0.248E-04   10.83       6.8  T
   5  -3771.0534543 -0.970645E-07  0.120E-04   10.83      14.0  T
     SCC iter.                  ...        6 min, 18.400 sec
     gradient                   ...        4 min, 20.529 sec
 * total energy  : -3716.1038287 Eh     change    :  -0.6472949E-02 Eh
   gradient norm :     0.0848271 Eh/a0  converged?    E=F G=F D=F
   time step     :     0.3025000 fs     power     :   0.2542185E-06
   step length   :     0.0871207 a0     speed     :   0.6966439E-02

........................................................................
.............................. CYCLE   28 ..............................
........................................................................

 iter      E             dE          RMSdq      gap      omega  full diag
   1  -3771.2039041 -0.377120E+04  0.808E-03   10.85       0.0  T
   2  -3771.2039264 -0.223103E-04  0.456E-03   10.85       1.0  T
   3  -3771.2039263  0.153880E-06  0.142E-03   10.85       1.2  T
   4  -3771.2039273 -0.101828E-05  0.315E-04   10.84       5.3  T
   5  -3771.2039274 -0.158813E-06  0.133E-04   10.84      12.6  T
   6  -3771.2039275 -0.184618E-07  0.805E-05   10.84      20.9  T
     SCC iter.                  ...        7 min, 21.733 sec
     gradient                   ...        4 min, 20.111 sec
 * total energy  : -3716.1101405 Eh     change    :  -0.6311789E-02 Eh
   gradient norm :     0.0700748 Eh/a0  converged?    E=F G=F D=F
   time step     :     0.3327500 fs     power     :   0.2121785E-06
   step length   :     0.1013425 a0     speed     :   0.7366963E-02

........................................................................
.............................. CYCLE   29 ..............................
........................................................................

 iter      E             dE          RMSdq      gap      omega  full diag
   1  -3771.3755723 -0.377138E+04  0.892E-03   10.86       0.0  T
   2  -3771.3755996 -0.273119E-04  0.501E-03   10.86       1.0  T
   3  -3771.3755995  0.120790E-06  0.152E-03   10.86       1.1  T
   4  -3771.3756005 -0.104426E-05  0.345E-04   10.86       4.9  T
   5  -3771.3756007 -0.189105E-06  0.134E-04   10.86      12.6  T
   6  -3771.3756008 -0.152536E-07  0.770E-05   10.86      21.8  T
     SCC iter.                  ...        7 min, 22.715 sec
     gradient                   ...        4 min, 21.227 sec
 * total energy  : -3716.1156390 Eh     change    :  -0.5498483E-02 Eh
   gradient norm :     0.0678237 Eh/a0  converged?    E=F G=F D=F
   time step     :     0.3660250 fs     power     :   0.1568971E-06
   step length   :     0.1160885 a0     speed     :   0.7671734E-02

........................................................................
.............................. CYCLE   30 ..............................
........................................................................

 iter      E             dE          RMSdq      gap      omega  full diag
   1  -3771.5447146 -0.377154E+04  0.895E-03   10.87       0.0  T
   2  -3771.5447365 -0.219431E-04  0.501E-03   10.87       1.0  T
   3  -3771.5447366 -0.243112E-07  0.132E-03   10.87       1.3  T
   4  -3771.5447373 -0.699563E-06  0.302E-04   10.87       5.6  T
   5  -3771.5447374 -0.136168E-06  0.129E-04   10.87      13.1  T
     SCC iter.                  ...        6 min,  5.665 sec
     gradient                   ...        4 min, 20.150 sec
 * total energy  : -3716.1204207 Eh     change    :  -0.4781693E-02 Eh
   gradient norm :     0.0760389 Eh/a0  converged?    E=F G=F D=F
   time step     :     0.4026275 fs     power     :   0.1226060E-06
   step length   :     0.1292231 a0     speed     :   0.7763400E-02

........................................................................
.............................. CYCLE   31 ..............................
........................................................................

 iter      E             dE          RMSdq      gap      omega  full diag
   1  -3771.6842769 -0.377168E+04  0.835E-03   10.88       0.0  T
   2  -3771.6842868 -0.991840E-05  0.471E-03   10.87       1.0  T
   3  -3771.6842871 -0.294572E-06  0.841E-04   10.87       2.0  T
   4  -3771.6842873 -0.208681E-06  0.197E-04   10.87       8.5  T
     SCC iter.                  ...        5 min,  4.657 sec
     gradient                   ...        4 min, 20.087 sec
 * total energy  : -3716.1253993 Eh     change    :  -0.4978580E-02 Eh
   gradient norm :     0.0818289 Eh/a0  converged?    E=F G=F D=F
   time step     :     0.4428903 fs     power     :   0.1245472E-06
   step length   :     0.1413508 a0     speed     :   0.7720000E-02

........................................................................
.............................. CYCLE   32 ..............................
........................................................................

 iter      E             dE          RMSdq      gap      omega  full diag
   1  -3771.7717337 -0.377177E+04  0.775E-03   10.88       0.0  T
   2  -3771.7717365 -0.273743E-05  0.455E-03   10.88       1.0  T
   3  -3771.7717363  0.179400E-06  0.632E-04   10.88       2.7  T
   4  -3771.7717370 -0.743269E-06  0.187E-04   10.88       9.0  T
     SCC iter.                  ...        4 min, 57.542 sec
     gradient                   ...        4 min, 19.474 sec
 * total energy  : -3716.1314404 Eh     change    :  -0.6041088E-02 Eh
   gradient norm :     0.0772159 Eh/a0  converged?    E=F G=F D=F
   time step     :     0.4871793 fs     power     :   0.1429949E-06
   step length   :     0.1556998 a0     speed     :   0.7730621E-02

........................................................................
.............................. CYCLE   33 ..............................
........................................................................

 iter      E             dE          RMSdq      gap      omega  full diag
   1  -3771.7927486 -0.377179E+04  0.778E-03   10.88       0.0  T
   2  -3771.7927595 -0.108446E-04  0.488E-03   10.88       1.0  T
   3  -3771.7927580  0.142039E-05  0.115E-03   10.88       1.5  T
   4  -3771.7927607 -0.262276E-05  0.223E-04   10.88       7.6  T
   5  -3771.7927607 -0.352206E-07  0.123E-04   10.88      13.7  T
   6  -3771.7927607 -0.684713E-08  0.512E-05   10.88      32.8  T
     SCC iter.                  ...        7 min, 24.011 sec
     gradient                   ...        4 min, 18.014 sec
 * total energy  : -3716.1383561 Eh     change    :  -0.6915679E-02 Eh
   gradient norm :     0.0642011 Eh/a0  converged?    E=F G=F D=F
   time step     :     0.5358972 fs     power     :   0.1425172E-06
   step length   :     0.1745172 a0     speed     :   0.7877200E-02

........................................................................
.............................. CYCLE   34 ..............................
........................................................................

 iter      E             dE          RMSdq      gap      omega  full diag
   1  -3771.7507256 -0.377175E+04  0.837E-03   10.88       0.0  T
   2  -3771.7507560 -0.303323E-04  0.546E-03   10.89       1.0  T
   3  -3771.7507554  0.621937E-06  0.168E-03   10.89       1.0  T
   4  -3771.7507577 -0.234294E-05  0.394E-04   10.89       4.3  T
   5  -3771.7507579 -0.213679E-06  0.151E-04   10.89      11.1  T
   6  -3771.7507579 -0.143536E-07  0.778E-05   10.89      21.6  T
     SCC iter.                  ...        7 min, 22.585 sec
     gradient                   ...        4 min, 18.115 sec
 * total energy  : -3716.1449277 Eh     change    :  -0.6571620E-02 Eh
   gradient norm :     0.0576035 Eh/a0  converged?    E=F G=F D=F
   time step     :     0.5894869 fs     power     :   0.1106196E-06
   step length   :     0.1969094 a0     speed     :   0.8079927E-02

........................................................................
.............................. CYCLE   35 ..............................
........................................................................

 iter      E             dE          RMSdq      gap      omega  full diag
   1  -3771.6849846 -0.377168E+04  0.886E-03   10.90       0.0  T
   2  -3771.6850187 -0.340777E-04  0.568E-03   10.90       1.0  T
   3  -3771.6850186  0.116002E-06  0.158E-03   10.90       1.1  T
   4  -3771.6850201 -0.154806E-05  0.483E-04   10.90       3.5  T
   5  -3771.6850204 -0.285703E-06  0.169E-04   10.90      10.0  T
   6  -3771.6850204 -0.135960E-07  0.720E-05   10.90      23.3  T
     SCC iter.                  ...        7 min, 34.221 sec
     gradient                   ...        4 min, 18.784 sec
 * total energy  : -3716.1506791 Eh     change    :  -0.5751380E-02 Eh
   gradient norm :     0.0640096 Eh/a0  converged?    E=F G=F D=F
   time step     :     0.6484356 fs     power     :   0.8473064E-07
   step length   :     0.2186059 a0     speed     :   0.8154740E-02

........................................................................
.............................. CYCLE   36 ..............................
........................................................................

 iter      E             dE          RMSdq      gap      omega  full diag
   1  -3771.6566098 -0.377166E+04  0.991E-03   10.92       0.0  T
   2  -3771.6566245 -0.146737E-04  0.595E-03   10.92       1.0  T
   3  -3771.6566253 -0.807362E-06  0.868E-04   10.92       1.9  T
   4  -3771.6566257 -0.403547E-06  0.312E-04   10.92       5.4  T
     SCC iter.                  ...        4 min, 55.641 sec
     gradient                   ...        4 min, 19.930 sec
 * total energy  : -3716.1568134 Eh     change    :  -0.6134374E-02 Eh
   gradient norm :     0.0633640 Eh/a0  converged?    E=F G=F D=F
   time step     :     0.7132792 fs     power     :   0.8887899E-07
   step length   :     0.2394545 a0     speed     :   0.8120420E-02

........................................................................
.............................. CYCLE   37 ..............................
........................................................................

 iter      E             dE          RMSdq      gap      omega  full diag
   1  -3771.7100468 -0.377171E+04  0.121E-02   10.95       0.0  T
   2  -3771.7100552 -0.842937E-05  0.699E-03   10.95       1.0  T
   3  -3771.7100549  0.264779E-06  0.126E-03   10.95       1.3  T
   4  -3771.7100571 -0.218732E-05  0.349E-04   10.95       4.8  T
   5  -3771.7100571 -0.158948E-07  0.125E-04   10.95      13.5  T
   6  -3771.7100572 -0.606997E-08  0.323E-05   10.95      52.0  T
     SCC iter.                  ...        7 min, 24.545 sec
     gradient                   ...        4 min, 18.788 sec
 * total energy  : -3716.1635167 Eh     change    :  -0.6703253E-02 Eh
   gradient norm :     0.0511215 Eh/a0  converged?    E=F G=F D=F
   time step     :     0.7846071 fs     power     :   0.8129821E-07
   step length   :     0.2649826 a0     speed     :   0.8169214E-02

........................................................................
.............................. CYCLE   38 ..............................
........................................................................

 iter      E             dE          RMSdq      gap      omega  full diag
   1  -3771.8418626 -0.377184E+04  0.133E-02   10.99       0.0  T
   2  -3771.8418864 -0.237030E-04  0.768E-03   10.98       1.0  T
   3  -3771.8418852  0.111035E-05  0.171E-03   10.98       1.0  T
   4  -3771.8418886 -0.335262E-05  0.361E-04   10.98       4.7  T
   5  -3771.8418887 -0.108525E-06  0.177E-04   10.98       9.5  T
   6  -3771.8418887 -0.848013E-08  0.572E-05   10.98      29.4  T
     SCC iter.                  ...        7 min, 26.386 sec
     gradient                   ...        4 min, 18.479 sec
 * total energy  : -3716.1689879 Eh     change    :  -0.5471213E-02 Eh
   gradient norm :     0.0534576 Eh/a0  converged?    E=F G=F D=F
   time step     :     0.8630678 fs     power     :   0.4573259E-07
   step length   :     0.2931830 a0     speed     :   0.8216918E-02

........................................................................
.............................. CYCLE   39 ..............................
........................................................................

 iter      E             dE          RMSdq      gap      omega  full diag
   1  -3771.9738570 -0.377197E+04  0.118E-02   11.00       0.0  T
   2  -3771.9738706 -0.135241E-04  0.686E-03   11.00       1.0  T
   3  -3771.9738710 -0.392987E-06  0.988E-04   11.00       1.7  T
   4  -3771.9738717 -0.756020E-06  0.270E-04   11.00       6.2  T
     SCC iter.                  ...        4 min, 58.865 sec
     gradient                   ...        4 min, 19.939 sec
 * total energy  : -3716.1739954 Eh     change    :  -0.5007529E-02 Eh
   gradient norm :     0.0581853 Eh/a0  converged?    E=F G=F D=F
   time step     :     0.9493746 fs     power     :   0.4332458E-07
   step length   :     0.3164773 a0     speed     :   0.8063434E-02

........................................................................
.............................. CYCLE   40 ..............................
........................................................................

 iter      E             dE          RMSdq      gap      omega  full diag
   1  -3772.0396771 -0.377204E+04  0.115E-02   11.01       0.0  T
   2  -3772.0396933 -0.162438E-04  0.691E-03   11.01       1.0  T
   3  -3772.0396913  0.200143E-05  0.160E-03   11.01       1.1  T
   4  -3772.0396960 -0.466511E-05  0.343E-04   11.01       4.9  T
   5  -3772.0396960 -0.426653E-07  0.190E-04   11.01       8.9  T
   6  -3772.0396960 -0.212394E-07  0.773E-05   11.01      21.8  T
     SCC iter.                  ...        7 min, 25.235 sec
     gradient                   ...        4 min, 18.910 sec
 * total energy  : -3716.1799389 Eh     change    :  -0.5943434E-02 Eh
   gradient norm :     0.0488650 Eh/a0  converged?    E=F G=F D=F
   time step     :     1.0443120 fs     power     :   0.4516668E-07
   step length   :     0.3445367 a0     speed     :   0.7980319E-02

........................................................................
.............................. CYCLE   41 ..............................
........................................................................

 iter      E             dE          RMSdq      gap      omega  full diag
   1  -3772.0620745 -0.377206E+04  0.126E-02   11.02       0.0  T
   2  -3772.0621052 -0.307262E-04  0.777E-03   11.02       1.0  T
   3  -3772.0621033  0.188512E-05  0.174E-03   11.02       1.0  T
   4  -3772.0621081 -0.483366E-05  0.428E-04   11.02       3.9  T
   5  -3772.0621083 -0.169619E-06  0.227E-04   11.02       7.4  T
   6  -3772.0621083 -0.329228E-07  0.102E-04   11.02      16.5  T
     SCC iter.                  ...        7 min, 28.984 sec
     gradient                   ...        4 min, 20.629 sec
 * total energy  : -3716.1849436 Eh     change    :  -0.5004707E-02 Eh
   gradient norm :     0.0499676 Eh/a0  converged?    E=F G=F D=F
   time step     :     1.1487432 fs     power     :   0.2175806E-07
   step length   :     0.3771730 a0     speed     :   0.7942053E-02

........................................................................
.............................. CYCLE   42 ..............................
........................................................................

 iter      E             dE          RMSdq      gap      omega  full diag
   1  -3772.1357922 -0.377214E+04  0.140E-02   11.06       0.0  T
   2  -3772.1358003 -0.806358E-05  0.816E-03   11.06       1.0  T
   3  -3772.1358005 -0.217637E-06  0.102E-03   11.06       1.7  T
   4  -3772.1358017 -0.123182E-05  0.318E-04   11.06       5.3  T
   5  -3772.1358017 -0.222553E-07  0.150E-04   11.06      11.2  T
   6  -3772.1358017 -0.826640E-08  0.404E-05   11.06      41.6  T
     SCC iter.                  ...        7 min, 20.840 sec
     gradient                   ...        4 min, 19.552 sec
 * total energy  : -3716.1890607 Eh     change    :  -0.4117127E-02 Eh
   gradient norm :     0.0469202 Eh/a0  converged?    E=F G=F D=F
   time step     :     1.2500000 fs     power     :   0.1009879E-07
   step length   :     0.4009900 a0     speed     :   0.7759588E-02
 * RMSD in coord.:     0.0599662 a0     energy gain  -0.1114686E+00 Eh

........................................................................
.............................. CYCLE   43 ..............................
........................................................................

 iter      E             dE          RMSdq      gap      omega  full diag
   1  -3772.1503751 -0.377215E+04  0.238E-03   11.06       0.0  T
   2  -3772.1503753 -0.282853E-06  0.138E-03   11.06       1.2  T
   3  -3772.1503753  0.171167E-07  0.208E-04   11.06       8.1  T
   4  -3772.1503754 -0.613900E-07  0.505E-05   11.06      33.3  T
     SCC iter.                  ...        4 min, 57.864 sec
     gradient                   ...        4 min, 20.139 sec
 * total energy  : -3716.1896579 Eh     change    :  -0.5971633E-03 Eh
   gradient norm :     0.0471555 Eh/a0  converged?    E=F G=F D=F
   time step     :     0.2500000 fs     power     :   0.2748810E-07
   step length   :     0.0735138 a0     speed     :   0.7112853E-02

........................................................................
.............................. CYCLE   44 ..............................
........................................................................

 iter      E             dE          RMSdq      gap      omega  full diag
   1  -3772.1637024 -0.377216E+04  0.229E-03   11.07       0.0  T
   2  -3772.1637029 -0.540855E-06  0.135E-03   11.07       1.2  T
   3  -3772.1637029  0.217319E-07  0.236E-04   11.07       7.1  T
   4  -3772.1637030 -0.688888E-07  0.506E-05   11.07      33.2  T
     SCC iter.                  ...        4 min, 55.243 sec
     gradient                   ...        4 min, 20.635 sec
 * total energy  : -3716.1905201 Eh     change    :  -0.8622194E-03 Eh
   gradient norm :     0.0436794 Eh/a0  converged?    E=F G=F D=F
   time step     :     0.2500000 fs     power     :   0.4146533E-07
   step length   :     0.0684085 a0     speed     :   0.6618887E-02

........................................................................
.............................. CYCLE   45 ..............................
........................................................................

 iter      E             dE          RMSdq      gap      omega  full diag
   1  -3772.1741741 -0.377217E+04  0.245E-03   11.07       0.0  T
   2  -3772.1741750 -0.843278E-06  0.147E-03   11.07       1.1  T
   3  -3772.1741750  0.790442E-08  0.261E-04   11.07       6.5  T
   4  -3772.1741750 -0.703694E-07  0.621E-05   11.07      27.1  T
     SCC iter.                  ...        4 min, 55.625 sec
     gradient                   ...        4 min, 20.186 sec
 * total energy  : -3716.1915239 Eh     change    :  -0.1003791E-02 Eh
   gradient norm :     0.0375773 Eh/a0  converged?    E=F G=F D=F
   time step     :     0.2500000 fs     power     :   0.4744363E-07
   step length   :     0.0646651 a0     speed     :   0.6256693E-02

........................................................................
.............................. CYCLE   46 ..............................
........................................................................

 iter      E             dE          RMSdq      gap      omega  full diag
   1  -3772.1801532 -0.377218E+04  0.269E-03   11.08       0.0  T
   2  -3772.1801542 -0.102410E-05  0.163E-03   11.08       1.0  T
   3  -3772.1801542 -0.106011E-07  0.271E-04   11.08       6.2  T
   4  -3772.1801543 -0.733080E-07  0.728E-05   11.08      23.1  T
     SCC iter.                  ...        4 min, 57.208 sec
     gradient                   ...        4 min, 18.458 sec
 * total energy  : -3716.1925088 Eh     change    :  -0.9848906E-03 Eh
   gradient norm :     0.0305596 Eh/a0  converged?    E=F G=F D=F
   time step     :     0.2500000 fs     power     :   0.4455575E-07
   step length   :     0.0619142 a0     speed     :   0.5990532E-02

........................................................................
.............................. CYCLE   47 ..............................
........................................................................

 iter      E             dE          RMSdq      gap      omega  full diag
   1  -3772.1800554 -0.377218E+04  0.287E-03   11.08       0.0  T
   2  -3772.1800564 -0.100268E-05  0.174E-03   11.08       1.0  T
   3  -3772.1800564 -0.237583E-07  0.269E-04   11.08       6.3  T
   4  -3772.1800565 -0.816599E-07  0.816E-05   11.08      20.6  T
     SCC iter.                  ...        4 min, 58.161 sec
     gradient                   ...        4 min, 19.933 sec
 * total energy  : -3716.1933403 Eh     change    :  -0.8315542E-03 Eh
   gradient norm :     0.0251606 Eh/a0  converged?    E=F G=F D=F
   time step     :     0.2500000 fs     power     :   0.3521406E-07
   step length   :     0.0596943 a0     speed     :   0.5775749E-02

........................................................................
.............................. CYCLE   48 ..............................
........................................................................

 iter      E             dE          RMSdq      gap      omega  full diag
   1  -3772.1720584 -0.377217E+04  0.320E-03   11.08       0.0  T
   2  -3772.1720593 -0.979184E-06  0.192E-03   11.08       1.0  T
   3  -3772.1720594 -0.215828E-07  0.297E-04   11.08       5.7  T
   4  -3772.1720595 -0.124585E-06  0.967E-05   11.08      17.4  T
     SCC iter.                  ...        5 min,  3.257 sec
     gradient                   ...        4 min, 19.777 sec
 * total energy  : -3716.1940111 Eh     change    :  -0.6707785E-03 Eh
   gradient norm :     0.0239583 Eh/a0  converged?    E=F G=F D=F
   time step     :     0.2750000 fs     power     :   0.2289333E-07
   step length   :     0.0632313 a0     speed     :   0.5561789E-02

........................................................................
.............................. CYCLE   49 ..............................
........................................................................

 iter      E             dE          RMSdq      gap      omega  full diag
   1  -3772.1557924 -0.377216E+04  0.327E-03   11.08       0.0  T
   2  -3772.1557933 -0.852569E-06  0.193E-03   11.08       1.0  T
   3  -3772.1557933  0.444697E-08  0.326E-04   11.08       5.2  T
   4  -3772.1557934 -0.175396E-06  0.103E-04   11.08      16.4  T
     SCC iter.                  ...        4 min, 59.277 sec
     gradient                   ...        4 min, 24.528 sec
 * total energy  : -3716.1945151 Eh     change    :  -0.5040328E-03 Eh
   gradient norm :     0.0271079 Eh/a0  converged?    E=F G=F D=F
   time step     :     0.3025000 fs     power     :   0.1417937E-07
   step length   :     0.0660172 a0     speed     :   0.5278943E-02

........................................................................
.............................. CYCLE   50 ..............................
........................................................................

 iter      E             dE          RMSdq      gap      omega  full diag
   1  -3772.1337441 -0.377213E+04  0.314E-03   11.08       0.0  T
   2  -3772.1337450 -0.814967E-06  0.182E-03   11.08       1.0  T
   3  -3772.1337449  0.178247E-07  0.336E-04   11.08       5.0  T
   4  -3772.1337451 -0.178335E-06  0.962E-05   11.08      17.5  T
     SCC iter.                  ...        4 min, 55.438 sec
     gradient                   ...        4 min, 18.637 sec
 * total energy  : -3716.1949669 Eh     change    :  -0.4518018E-03 Eh
   gradient norm :     0.0308682 Eh/a0  converged?    E=F G=F D=F
   time step     :     0.3327500 fs     power     :   0.1248990E-07
   step length   :     0.0680007 a0     speed     :   0.4943223E-02

........................................................................
.............................. CYCLE   51 ..............................
........................................................................

 iter      E             dE          RMSdq      gap      omega  full diag
   1  -3772.1094957 -0.377211E+04  0.302E-03   11.08       0.0  T
   2  -3772.1094967 -0.913323E-06  0.173E-03   11.08       1.0  T
   3  -3772.1094967  0.107980E-07  0.324E-04   11.08       5.2  T
   4  -3772.1094968 -0.134378E-06  0.825E-05   11.08      20.4  T
     SCC iter.                  ...        4 min, 55.039 sec
     gradient                   ...        4 min, 19.754 sec
 * total energy  : -3716.1955172 Eh     change    :  -0.5502509E-03 Eh
   gradient norm :     0.0324625 Eh/a0  converged?    E=F G=F D=F
   time step     :     0.3660250 fs     power     :   0.1614641E-07
   step length   :     0.0700748 a0     speed     :   0.4630907E-02

........................................................................
.............................. CYCLE   52 ..............................
........................................................................

 iter      E             dE          RMSdq      gap      omega  full diag
   1  -3772.0870486 -0.377209E+04  0.309E-03   11.08       0.0  T
   2  -3772.0870497 -0.105441E-05  0.177E-03   11.08       1.0  T
   3  -3772.0870497  0.183263E-09  0.304E-04   11.08       5.5  T
   4  -3772.0870497 -0.872724E-07  0.684E-05   11.09      24.6  T
     SCC iter.                  ...        4 min, 58.779 sec
     gradient                   ...        4 min, 22.048 sec
 * total energy  : -3716.1962574 Eh     change    :  -0.7401941E-03 Eh
   gradient norm :     0.0310060 Eh/a0  converged?    E=F G=F D=F
   time step     :     0.4026275 fs     power     :   0.2098224E-07
   step length   :     0.0731018 a0     speed     :   0.4391772E-02

........................................................................
.............................. CYCLE   53 ..............................
........................................................................

 iter      E             dE          RMSdq      gap      omega  full diag
   1  -3772.0708356 -0.377207E+04  0.340E-03   11.09       0.0  T
   2  -3772.0708367 -0.108001E-05  0.198E-03   11.09       1.0  T
   3  -3772.0708367 -0.934415E-08  0.280E-04   11.09       6.0  T
   4  -3772.0708368 -0.674499E-07  0.610E-05   11.09      27.6  T
     SCC iter.                  ...        5 min,  4.582 sec
     gradient                   ...        4 min, 19.511 sec
 * total energy  : -3716.1971637 Eh     change    :  -0.9063240E-03 Eh
   gradient norm :     0.0271576 Eh/a0  converged?    E=F G=F D=F
   time step     :     0.4428903 fs     power     :   0.2291365E-07
   step length   :     0.0775797 a0     speed     :   0.4237086E-02

........................................................................
.............................. CYCLE   54 ..............................
........................................................................

 iter      E             dE          RMSdq      gap      omega  full diag
   1  -3772.0654212 -0.377207E+04  0.379E-03   11.09       0.0  T
   2  -3772.0654221 -0.901232E-06  0.223E-03   11.09       1.0  T
   3  -3772.0654221 -0.324508E-08  0.275E-04   11.09       6.1  T
   4  -3772.0654222 -0.101826E-06  0.769E-05   11.09      21.9  T
     SCC iter.                  ...        4 min, 57.766 sec
     gradient                   ...        4 min, 20.667 sec
 * total energy  : -3716.1981053 Eh     change    :  -0.9416053E-03 Eh
   gradient norm :     0.0231956 Eh/a0  converged?    E=F G=F D=F
   time step     :     0.4871793 fs     power     :   0.2011873E-07
   step length   :     0.0834508 a0     speed     :   0.4143402E-02

........................................................................
.............................. CYCLE   55 ..............................
........................................................................

 iter      E             dE          RMSdq      gap      omega  full diag
   1  -3772.0737949 -0.377207E+04  0.399E-03   11.09       0.0  T
   2  -3772.0737957 -0.762678E-06  0.236E-03   11.09       1.0  T
   3  -3772.0737956  0.293999E-07  0.318E-04   11.09       5.3  T
   4  -3772.0737958 -0.187829E-06  0.101E-04   11.09      16.6  T
     SCC iter.                  ...        4 min, 55.765 sec
     gradient                   ...        4 min, 18.851 sec
 * total energy  : -3716.1989388 Eh     change    :  -0.8334491E-03 Eh
   gradient norm :     0.0220410 Eh/a0  converged?    E=F G=F D=F
   time step     :     0.5358972 fs     power     :   0.1452293E-07
   step length   :     0.0899349 a0     speed     :   0.4059400E-02

........................................................................
.............................. CYCLE   56 ..............................
........................................................................

 iter      E             dE          RMSdq      gap      omega  full diag
   1  -3772.0937411 -0.377209E+04  0.383E-03   11.09       0.0  T
   2  -3772.0937422 -0.111023E-05  0.226E-03   11.09       1.0  T
   3  -3772.0937422  0.180744E-07  0.361E-04   11.09       4.7  T
   4  -3772.0937424 -0.192226E-06  0.112E-04   11.09      15.1  T
     SCC iter.                  ...        5 min,  3.518 sec
     gradient                   ...        4 min, 25.442 sec
 * total energy  : -3716.1996455 Eh     change    :  -0.7067698E-03 Eh
   gradient norm :     0.0238506 Eh/a0  converged?    E=F G=F D=F
   time step     :     0.5894869 fs     power     :   0.1054113E-07
   step length   :     0.0958995 a0     speed     :   0.3935114E-02

........................................................................
.............................. CYCLE   57 ..............................
........................................................................

 iter      E             dE          RMSdq      gap      omega  full diag
   1  -3772.1174148 -0.377212E+04  0.351E-03   11.09       0.0  T
   2  -3772.1174164 -0.157255E-05  0.206E-03   11.09       1.0  T
   3  -3772.1174164 -0.258178E-07  0.376E-04   11.09       4.5  T
   4  -3772.1174165 -0.115812E-06  0.104E-04   11.09      16.2  T
     SCC iter.                  ...        4 min, 59.582 sec
     gradient                   ...        4 min, 17.633 sec
 * total energy  : -3716.2003732 Eh     change    :  -0.7276575E-03 Eh
   gradient norm :     0.0259864 Eh/a0  converged?    E=F G=F D=F
   time step     :     0.6484356 fs     power     :   0.1089886E-07
   step length   :     0.1014767 a0     speed     :   0.3785423E-02

........................................................................
.............................. CYCLE   58 ..............................
........................................................................

 iter      E             dE          RMSdq      gap      omega  full diag
   1  -3772.1351212 -0.377214E+04  0.339E-03   11.09       0.0  T
   2  -3772.1351225 -0.130196E-05  0.198E-03   11.09       1.0  T
   3  -3772.1351225 -0.466084E-07  0.327E-04   11.09       5.1  T
   4  -3772.1351226 -0.724463E-07  0.895E-05   11.09      18.8  T
     SCC iter.                  ...        5 min,  0.751 sec
     gradient                   ...        4 min, 19.247 sec
 * total energy  : -3716.2013204 Eh     change    :  -0.9472327E-03 Eh
   gradient norm :     0.0257617 Eh/a0  converged?    E=F G=F D=F
   time step     :     0.7132792 fs     power     :   0.1445617E-07
   step length   :     0.1083347 a0     speed     :   0.3673864E-02

........................................................................
.............................. CYCLE   59 ..............................
........................................................................

 iter      E             dE          RMSdq      gap      omega  full diag
   1  -3772.1384063 -0.377214E+04  0.373E-03   11.08       0.0  T
   2  -3772.1384070 -0.713032E-06  0.218E-03   11.08       1.0  T
   3  -3772.1384071 -0.665063E-07  0.287E-04   11.08       5.9  T
   4  -3772.1384072 -0.841865E-07  0.101E-04   11.08      16.7  T
     SCC iter.                  ...        4 min, 58.669 sec
     gradient                   ...        4 min, 20.330 sec
 * total energy  : -3716.2025294 Eh     change    :  -0.1209007E-02 Eh
   gradient norm :     0.0221952 Eh/a0  converged?    E=F G=F D=F
   time step     :     0.7846071 fs     power     :   0.1660155E-07
   step length   :     0.1181828 a0     speed     :   0.3643488E-02

........................................................................
.............................. CYCLE   60 ..............................
........................................................................

 iter      E             dE          RMSdq      gap      omega  full diag
   1  -3772.1229563 -0.377212E+04  0.437E-03   11.08       0.0  T
   2  -3772.1229577 -0.140647E-05  0.254E-03   11.08       1.0  T
   3  -3772.1229578 -0.924542E-07  0.398E-04   11.08       4.2  T
   4  -3772.1229579 -0.129899E-06  0.120E-04   11.08      14.0  T
     SCC iter.                  ...        5 min,  8.559 sec
     gradient                   ...        4 min, 19.909 sec
 * total energy  : -3716.2037690 Eh     change    :  -0.1239583E-02 Eh
   gradient norm :     0.0201070 Eh/a0  converged?    E=F G=F D=F
   time step     :     0.8630678 fs     power     :   0.1375748E-07
   step length   :     0.1310103 a0     speed     :   0.3671771E-02

........................................................................
.............................. CYCLE   61 ..............................
........................................................................

 iter      E             dE          RMSdq      gap      omega  full diag
   1  -3772.0943418 -0.377209E+04  0.451E-03   11.08       0.0  T
   2  -3772.0943442 -0.231782E-05  0.260E-03   11.08       1.0  T
   3  -3772.0943443 -0.944497E-07  0.492E-04   11.08       3.4  T
   4  -3772.0943444 -0.144518E-06  0.122E-04   11.08      13.7  T
     SCC iter.                  ...        4 min, 55.719 sec
     gradient                   ...        4 min, 19.389 sec
 * total energy  : -3716.2049416 Eh     change    :  -0.1172570E-02 Eh
   gradient norm :     0.0228410 Eh/a0  converged?    E=F G=F D=F
   time step     :     0.9493746 fs     power     :   0.1189188E-07
   step length   :     0.1442516 a0     speed     :   0.3675346E-02

........................................................................
.............................. CYCLE   62 ..............................
........................................................................

 iter      E             dE          RMSdq      gap      omega  full diag
   1  -3772.0695083 -0.377207E+04  0.423E-03   11.08       0.0  T
   2  -3772.0695100 -0.168229E-05  0.243E-03   11.08       1.0  T
   3  -3772.0695101 -0.967771E-07  0.441E-04   11.08       3.8  T
   4  -3772.0695102 -0.129809E-06  0.121E-04   11.08      13.9  T
     SCC iter.                  ...        5 min,  4.074 sec
     gradient                   ...        4 min, 18.841 sec
 * total energy  : -3716.2063613 Eh     change    :  -0.1419687E-02 Eh
   gradient norm :     0.0212259 Eh/a0  converged?    E=F G=F D=F
   time step     :     1.0443120 fs     power     :   0.1443174E-07
   step length   :     0.1585945 a0     speed     :   0.3673440E-02

........................................................................
.............................. CYCLE   63 ..............................
........................................................................

[...]
  3284   6 C     3286   6 C                                       1.5371418
  3286   6 C     3287   6 C                                       1.5323974
  3287   6 C     3288   6 C                                       1.5284732
  3287   6 C     3289   6 C                                       1.5353727
  3289   6 C     3290   6 C                                       1.5341468
  3290   6 C     3291   6 C                                       1.5262865
  3290   6 C     3292   6 C                                       1.5373833
  3292   6 C     3293   6 C                                       1.5357847
  3293   6 C     3294   6 C                                       1.5274215
  3293   6 C     3295   6 C                                       1.5333562
  3295   6 C     3296   6 C                                       1.5334651
  3296   6 C     3297   6 C                                       1.5276292
  3296   6 C     3298   6 C                                       1.5335295
  3299   6 C     3300   6 C                                       1.5293378
  3299   6 C     3301   6 C                                       1.5350804
  3301   6 C     3302   6 C                                       1.5353850
  3302   6 C     3303   6 C                                       1.5259396
  3302   6 C     3304   6 C                                       1.5346180
  3304   6 C     3305   6 C                                       1.5370469
  3305   6 C     3306   6 C                                       1.5271823
  3305   6 C     3307   6 C                                       1.5330888
  3307   6 C     3308   6 C                                       1.5373486
  3308   6 C     3309   6 C                                       1.5282611
  3308   6 C     3310   6 C                                       1.5337403
  3310   6 C     3311   6 C                                       1.5363802
  3311   6 C     3312   6 C                                       1.5288395
  3311   6 C     3313   6 C                                       1.5332973
  3313   6 C     3314   6 C                                       1.5361003
  3314   6 C     3315   6 C                                       1.5279379
  3314   6 C     3316   6 C                                       1.5332826
  3316   6 C     3317   6 C                                       1.5331893
  3317   6 C     3318   6 C                                       1.5280921
  3319   6 C     3320   6 C                                       1.5328083
  3320   6 C     3321   6 C                                       1.5273452
  3320   6 C     3322   6 C                                       1.5356442
  3322   6 C     3323   6 C                                       1.5337144
  3323   6 C     3324   6 C                                       1.5276935
  3323   6 C     3325   6 C                                       1.5363903
  3325   6 C     3326   6 C                                       1.5326293
  3326   6 C     3327   6 C                                       1.5291039
  3326   6 C     3328   6 C                                       1.5348671
  3328   6 C     3329   6 C                                       1.5324057
  3329   6 C     3330   6 C                                       1.5288713
  3329   6 C     3331   6 C                                       1.5373810
  3331   6 C     3332   6 C                                       1.5328207
  3332   6 C     3333   6 C                                       1.5262397
  3332   6 C     3334   6 C                                       1.5364535
  3334   6 C     3335   6 C                                       1.5338728
  3335   6 C     3336   6 C                                       1.5253731
  3335   6 C     3337   6 C                                       1.5361468
  3337   6 C     3338   6 C                                       1.5343294
  3338   6 C     3339   6 C                                       1.5283603
  3340   6 C     3341   6 C                                       1.5328516
  3341   6 C     3342   6 C                                       1.5250458
  3341   6 C     3343   6 C                                       1.5363127
  3344   6 C     3345   6 C                                       1.5283904
  3344   6 C     3346   6 C                                       1.5338187
  3346   6 C     3347   6 C                                       1.5336345
  3347   6 C     3348   6 C                                       1.5293542
  3347   6 C     3349   6 C                                       1.5398868
  3349   6 C     3350   6 C                                       1.5339830
  3350   6 C     3351   6 C                                       1.5274624
  3350   6 C     3352   6 C                                       1.5344084
  3352   6 C     3353   6 C                                       1.5267167
  3353   6 C     3354   6 C                                       1.5231690
  3265   6 C     3355   1 H                                       1.0884239
  3265   6 C     3356   1 H                                       1.0872006
  3265   6 C     3357   1 H                                       1.0880217
  3354   6 C     3358   1 H                                       1.0886871
  3354   6 C     3359   1 H                                       1.0883254
  3354   6 C     3360   1 H                                       1.0881465
  3352   6 C     3361   1 H                                       1.0937376
  3352   6 C     3362   1 H                                       1.0935275
  3349   6 C     3363   1 H                                       1.0902039
  3349   6 C     3364   1 H                                       1.0932326
  3347   6 C     3365   1 H                                       1.0931995
  3348   6 C     3366   1 H                                       1.0883096
  3348   6 C     3367   1 H                                       1.0884720
  3348   6 C     3368   1 H                                       1.0882453
  3346   6 C     3369   1 H                                       1.0910248
  3346   6 C     3370   1 H                                       1.0944675
  3343   6 C     3371   1 H                                       1.0916665
  3343   6 C     3372   1 H                                       1.0931630
  3350   6 C     3373   1 H                                       1.0947799
  3351   6 C     3374   1 H                                       1.0877258
  3351   6 C     3375   1 H                                       1.0887890
  3351   6 C     3376   1 H                                       1.0869670
  3344   6 C     3377   1 H                                       1.0914047
  3345   6 C     3378   1 H                                       1.0873700
  3345   6 C     3379   1 H                                       1.0870301
  3345   6 C     3380   1 H                                       1.0884516
  3341   6 C     3381   1 H                                       1.0989710
  3342   6 C     3382   1 H                                       1.0874052
  3342   6 C     3383   1 H                                       1.0880542
  3342   6 C     3384   1 H                                       1.0867259
  3340   6 C     3385   1 H                                       1.0915821
  3340   6 C     3386   1 H                                       1.0904346
  3338   6 C     3387   1 H                                       1.0951741
  3339   6 C     3388   1 H                                       1.0876815
  3339   6 C     3389   1 H                                       1.0882983
  3339   6 C     3390   1 H                                       1.0882985
  3337   6 C     3391   1 H                                       1.0926887
  3337   6 C     3392   1 H                                       1.0928619
  3335   6 C     3393   1 H                                       1.0937343
  3336   6 C     3394   1 H                                       1.0848397
  3336   6 C     3395   1 H                                       1.0865731
  3336   6 C     3396   1 H                                       1.0877353
  3334   6 C     3397   1 H                                       1.0926208
  3334   6 C     3398   1 H                                       1.0935404
  3332   6 C     3399   1 H                                       1.0920431
  3333   6 C     3400   1 H                                       1.0882484
  3333   6 C     3401   1 H                                       1.0863281
  3333   6 C     3402   1 H                                       1.0867119
  3331   6 C     3403   1 H                                       1.0927638
  3331   6 C     3404   1 H                                       1.0942634
  3329   6 C     3405   1 H                                       1.0930630
  3330   6 C     3406   1 H                                       1.0888418
  3330   6 C     3407   1 H                                       1.0866046
  3330   6 C     3408   1 H                                       1.0888399
  3328   6 C     3409   1 H                                       1.0921538
  3328   6 C     3410   1 H                                       1.0917354
  3326   6 C     3411   1 H                                       1.0929769
  3327   6 C     3412   1 H                                       1.0860342
  3327   6 C     3413   1 H                                       1.0879191
  3327   6 C     3414   1 H                                       1.0885738
  3325   6 C     3415   1 H                                       1.0916439
  3325   6 C     3416   1 H                                       1.0934150
  3323   6 C     3417   1 H                                       1.0937070
  3324   6 C     3418   1 H                                       1.0878776
  3324   6 C     3419   1 H                                       1.0883478
  3324   6 C     3420   1 H                                       1.0888185
  3322   6 C     3421   1 H                                       1.0922119
  3322   6 C     3422   1 H                                       1.0927731
  3320   6 C     3423   1 H                                       1.0955094
  3321   6 C     3424   1 H                                       1.0872821
  3321   6 C     3425   1 H                                       1.0879398
  3321   6 C     3426   1 H                                       1.0883067
  3319   6 C     3427   1 H                                       1.0904845
  3319   6 C     3428   1 H                                       1.0921590
  3317   6 C     3429   1 H                                       1.0946430
  3318   6 C     3430   1 H                                       1.0885521
  3318   6 C     3431   1 H                                       1.0877764
  3318   6 C     3432   1 H                                       1.0883288
  3316   6 C     3433   1 H                                       1.0921964
  3316   6 C     3434   1 H                                       1.0936174
  3314   6 C     3435   1 H                                       1.0939587
  3315   6 C     3436   1 H                                       1.0879285
  3315   6 C     3437   1 H                                       1.0871163
  3315   6 C     3438   1 H                                       1.0884068
  3313   6 C     3439   1 H                                       1.0922377
  3313   6 C     3440   1 H                                       1.0926967
  3311   6 C     3441   1 H                                       1.0935731
  3312   6 C     3442   1 H                                       1.0876586
  3312   6 C     3443   1 H                                       1.0877701
  3312   6 C     3444   1 H                                       1.0876276
  3310   6 C     3445   1 H                                       1.0918050
  3310   6 C     3446   1 H                                       1.0929036
  3308   6 C     3447   1 H                                       1.0938599
  3309   6 C     3448   1 H                                       1.0876823
  3309   6 C     3449   1 H                                       1.0857675
  3309   6 C     3450   1 H                                       1.0877347
  3307   6 C     3451   1 H                                       1.0906294
  3307   6 C     3452   1 H                                       1.0945504
  3305   6 C     3453   1 H                                       1.0935987
  3306   6 C     3454   1 H                                       1.0886395
  3306   6 C     3455   1 H                                       1.0857072
  3306   6 C     3456   1 H                                       1.0879510
  3304   6 C     3457   1 H                                       1.0941564
  3304   6 C     3458   1 H                                       1.0942304
  3302   6 C     3459   1 H                                       1.0915975
  3303   6 C     3460   1 H                                       1.0872039
  3303   6 C     3461   1 H                                       1.0888259
  3303   6 C     3462   1 H                                       1.0871811
  3301   6 C     3463   1 H                                       1.0939038
  3301   6 C     3464   1 H                                       1.0938721
  3299   6 C     3465   1 H                                       1.0945736
  3300   6 C     3466   1 H                                       1.0880468
  3300   6 C     3467   1 H                                       1.0885899
  3300   6 C     3468   1 H                                       1.0884543
  3298   6 C     3469   1 H                                       1.0900643
  3298   6 C     3470   1 H                                       1.0924706
  3296   6 C     3471   1 H                                       1.0934400
  3297   6 C     3472   1 H                                       1.0882855
  3297   6 C     3473   1 H                                       1.0888007
  3297   6 C     3474   1 H                                       1.0877822
  3295   6 C     3475   1 H                                       1.0920055
  3295   6 C     3476   1 H                                       1.0933600
  3293   6 C     3477   1 H                                       1.0944982
  3294   6 C     3478   1 H                                       1.0881596
  3294   6 C     3479   1 H                                       1.0875425
  3294   6 C     3480   1 H                                       1.0862270
  3292   6 C     3481   1 H                                       1.0928120
  3292   6 C     3482   1 H                                       1.0923760
  3290   6 C     3483   1 H                                       1.0948598
  3291   6 C     3484   1 H                                       1.0880450
  3291   6 C     3485   1 H                                       1.0867233
  3291   6 C     3486   1 H                                       1.0872979
  3289   6 C     3487   1 H                                       1.0945110
  3289   6 C     3488   1 H                                       1.0937401
  3287   6 C     3489   1 H                                       1.0935862
  3288   6 C     3490   1 H                                       1.0866284
  3288   6 C     3491   1 H                                       1.0870581
  3288   6 C     3492   1 H                                       1.0887719
  3286   6 C     3493   1 H                                       1.0909024
  3286   6 C     3494   1 H                                       1.0921183
  3284   6 C     3495   1 H                                       1.0951385
  3285   6 C     3496   1 H                                       1.0868860
  3285   6 C     3497   1 H                                       1.0887826
  3285   6 C     3498   1 H                                       1.0888149
  3283   6 C     3499   1 H                                       1.0898184
  3283   6 C     3500   1 H                                       1.0914023
  3281   6 C     3501   1 H                                       1.0938477
  3282   6 C     3502   1 H                                       1.0862767
  3282   6 C     3503   1 H                                       1.0887608
  3282   6 C     3504   1 H                                       1.0887312
  3280   6 C     3505   1 H                                       1.0922541
  3280   6 C     3506   1 H                                       1.0939145
  3278   6 C     3507   1 H                                       1.0942314
  3279   6 C     3508   1 H                                       1.0865270
  3279   6 C     3509   1 H                                       1.0885020
  3279   6 C     3510   1 H                                       1.0876557
  3277   6 C     3511   1 H                                       1.0941597
  3277   6 C     3512   1 H                                       1.0938605
  3275   6 C     3513   1 H                                       1.0926378
  3276   6 C     3514   1 H                                       1.0866846
  3276   6 C     3515   1 H                                       1.0877360
  3276   6 C     3516   1 H                                       1.0862725
  3274   6 C     3517   1 H                                       1.0941440
  3274   6 C     3518   1 H                                       1.0940428
  3272   6 C     3519   1 H                                       1.0927608
  3273   6 C     3520   1 H                                       1.0865776
  3273   6 C     3521   1 H                                       1.0881816
  3273   6 C     3522   1 H                                       1.0885731
  3271   6 C     3523   1 H                                       1.0918722
  3271   6 C     3524   1 H                                       1.0938622
  3269   6 C     3525   1 H                                       1.0927232
  3270   6 C     3526   1 H                                       1.0881529
  3270   6 C     3527   1 H                                       1.0885168
  3270   6 C     3528   1 H                                       1.0868985
  3268   6 C     3529   1 H                                       1.0913892
  3268   6 C     3530   1 H                                       1.0934301
  3266   6 C     3531   1 H                                       1.0950035
  3267   6 C     3532   1 H                                       1.0876597
  3267   6 C     3533   1 H                                       1.0874269
  3267   6 C     3534   1 H                                       1.0878959
  3353   6 C     3535   1 H                                       1.0924509
  3353   6 C     3536   1 H                                       1.0914720

 * 2 distinct bonds (by element types)

   Z      Z             #   av. dist./Å        max./Å        min./Å
   1 H    6 C        2366     1.0903013     1.0989710     1.0828852
   6 C    6 C        1114     1.5324133     1.5400086     1.5223638


optimized geometry written to: xtbopt.xyz


           -------------------------------------------------
          | TOTAL ENERGY            -3716.273909137357 Eh   |
          | GRADIENT NORM               0.000789396579 Eh/α |
          | HOMO-LUMO GAP              11.200570512395 eV   |
           -------------------------------------------------

------------------------------------------------------------------------
 * finished run on 2024/06/24 at 22:57:12.350     
------------------------------------------------------------------------
 total:
 * wall-time:     4 d,  2 h, 24 min, 16.906 sec
 *  cpu-time:    22 d,  7 h, 55 min, 49.776 sec
 * ratio c/w:     5.446 speedup
 SCF:
 * wall-time:     0 d,  0 h,  8 min, 30.732 sec
 *  cpu-time:     0 d,  0 h, 45 min, 39.812 sec
 * ratio c/w:     5.364 speedup
 ANC optimizer:
 * wall-time:     4 d,  2 h, 14 min, 18.490 sec
 *  cpu-time:    22 d,  7 h,  8 min, 25.104 sec
 * ratio c/w:     5.447 speedup

