3258
 energy: -3427.503407104542 gnorm: 0.000945075766 xtb: 6.6.1 (8d0f1dd)
C          113.70372302817785      113.94419944472395      105.18488777534164
C          113.63856195888279      112.82997444893077      106.22157705937116
C          113.86068226510008      113.33200976050304      107.64871646367691
C          112.64647796039098      114.03737598170575      108.24737609510004
C          112.95881077196684      114.61701527570126      109.62417855979827
C          111.74967254860429      115.27705340703520      110.28140804521590
C          112.13321619152015      116.01657104139261      111.55938701407811
C          110.93731292259649      116.66696034202631      112.24785259476339
C          111.36193751797300      117.50528496219397      113.44938962970876
C          110.17406459957130      118.13410643626879      114.16947454976247
C          110.60917456566440      119.00331675954497      115.34535013401398
C          109.41440847022434      119.58324011042194      116.09351923028493
C          109.82134114531588      120.48055718084753      117.25835804909636
C          108.59602318050980      120.98911664049862      118.00947852725095
C          108.93118069609706      121.91228817353672      119.17631933188422
C          107.65997674921674      122.35105019559018      119.89730634142313
C          107.92707473749915      123.22736572253129      121.11766219361887
C          106.64051049834440      123.76150984042344      121.74851579530014
C          105.80326454614105      122.67990359538716      122.42632430940667
C          104.43872041972372      123.20506353604945      122.86397594324222
C          103.56302738705821      122.14569840034592      123.53816592569567
C          103.32426531019374      120.88124094878683      122.70948134073770
C          102.68941741262802      121.14933639909104      121.34756628581033
C          102.41786738064158      119.87072695693149      120.55496929798360
C          103.68775641369612      119.14892473295411      120.10278484675580
C          103.35704176799631      118.01224240173981      119.14007852126578
C          104.57897392057303      117.22856962284708      118.66879812218465
C          104.18333167813813      116.08521282285407      117.73675975360040
C          105.37970479815368      115.28266558362415      117.23424001158452
C          104.95750133285681      114.15437355831639      116.29697387213402
C          106.13721207018693      113.30399591209012      115.83243803797785
C          105.71350241312886      112.24492214458893      114.81885260828273
C          106.85287912036540      111.30823374597416      114.42803821792853
C          106.40742533314059      110.26410728371516      113.40681417349933
C          107.47813996911148      109.20946181736579      113.14079584663163
C          106.98812843010120      108.13907126878370      112.16907568574868
C          107.97441728700950      106.98875286041383      111.96525277639495
C          108.19539823221568      106.16540967585058      113.23331688609569
C          108.92876713361331      104.85603553762513      112.95199607238892
C          109.37114275990790      104.11898840753936      114.21776458954133
C          108.23079668874109      103.76937279008749      115.17013155815890
C          108.74186829450173      103.08108292312046      116.43300196183051
C          107.65340333016765      102.77266306103880      117.46464586506960
C          106.91186365293609      104.01785527991566      117.97250529995651
C          105.55382430352311      104.21652386013389      117.29861051470611
C          104.93597797976628      105.59325930022571      117.54857216477083
C          105.71674394821029      106.73022647567632      116.88139889718911
C          104.84327991871319      107.92751432070935      116.50984398515325
C          104.32990116552494      108.72728487948501      117.70417310992669
C          103.28776041283190      109.75334095944420      117.26442384048362
C          102.92805502508537      110.74693005630316      118.36278789433239
C          101.83776031199966      111.72053396440427      117.92183301666832
C          101.60146892304398      112.81248980425602      118.95939413989687
C          100.50760003290760      113.79466436541998      118.55006407333958
C          100.43389293568627      114.97141037895960      119.52024699999420
C           99.21083837668839      115.86721697550489      119.33298592969292
C           99.04605906416407      116.45704041723394      117.93497477634000
C          100.15527366178321      117.41462371068344      117.51656803533834
C           99.87980162870979      117.99183007610043      116.13072648632620
C          101.05488827345155      118.78833849880004      115.57042337830040
C          100.76541672796174      119.28145748251353      114.15651242605554
C          101.96975550754944      119.93456300193691      113.48597134235412
C          101.59973403441143      120.45219634839572      112.09841787991164
C          102.80614931754923      120.79149986265020      111.22707446461143
C          102.37313662070601      121.15503003874792      109.80671413493116
C          103.50067860015753      121.03702719514584      108.78595274901703
C          102.99837553297171      121.30947933702387      107.36876705311273
C          103.94080148973464      120.80108934277509      106.27835066340522
C          105.35803716349415      121.36738593120441      106.34078244650560
C          105.39692861237637      122.87840292581214      106.13671505882996
C          106.81014858905056      123.43772574550890      105.98784334379670
C          107.65398048522724      123.30358834673173      107.25168325058971
C          109.00771920550821      123.99061961741261      107.09778971748626
C          109.91615158569309      123.72305924922613      108.29406154761269
C          111.33703329984955      124.26454722241563      108.13756261340789
C          112.08689979369457      123.63276258007258      106.96684106220279
C          113.56639635632357      124.00997851677347      106.94768818918178
C          114.25432138968077      123.65779985916200      105.62732609576076
C          114.41958588194585      122.15567423670709      105.40822218980384
C          114.83843709193732      121.79278323707214      103.98230599752425
C          116.13401238291969      122.44301663720331      103.49578648779905
C          117.34822844234739      122.10275236959779      104.35583704609820
C          118.63946391312969      122.63214981204241      103.73738994156248
C          119.89112428691710      122.26069659731290      104.53388020210706
C          119.97976018256094      122.88581482876093      105.92660244060725
C          120.09086276311544      124.40913098609242      105.89692938736935
C          120.44768458978976      125.01040924025176      107.25776664629176
C          119.35307898590470      124.88354833289405      108.31865894591947
C          118.13896871049018      125.77155781894898      108.05197989699630
C          117.10903158857298      125.65919784791339      109.17254611417222
C          115.90173372965472      126.56911496677920      108.96358521964034
C          114.86282921054392      126.37492494562764      110.06474750702665
C          113.59659242738763      127.19394551658945      109.83605992905972
C          112.57299251583525      126.98705615253702      110.95027903618298
C          111.24073277791756      127.65929159894119      110.63323660917182
C          110.21577056652544      127.47452212838948      111.74972253790779
C          108.82622882697437      127.98871402751681      111.36838179357480
C          108.10931510871212      127.06607212870877      110.38606015369982
C          106.73286995066474      127.58985850716870      109.98472945193238
C          106.00625836940357      126.59142810112077      109.08952056132330
C          104.59793162959724      127.03585993444425      108.70059595449030
C          103.89787839093530      125.94157216076850      107.90011026536654
C          102.53271676096679      126.34108625301933      107.34635237502555
C          101.85942505231240      125.14472165395266      106.67567837662790
C          100.54904615178306      125.49773342647674      105.97722115330484
C           99.74524968582395      124.26193251078494      105.56699746101167
C          100.43863226832613      123.38090094968754      104.52869359524352
C           99.59083412229084      122.15806755318019      104.18314640083238
C          100.23850032178237      121.26592062637836      103.12516477377007
C           99.42643718414749      119.99090782833063      102.90384486289102
C           99.90134648638160      119.14088169513980      101.72371649692988
C          101.36065860130520      118.68237263354372      101.78876900122371
C          101.75413688540291      117.93538794223075      103.06163428855906
C          101.05917021373530      116.58764968329483      103.25450837685385
C          101.35921028708995      116.04805077547198      104.64969631607430
C          100.75089899505329      114.68207020169365      104.95994041168134
C          100.83064749269799      114.40366069788860      106.45935374251327
C          100.21820453392040      113.07266204260513      106.88335178910046
C          100.15326869468225      112.95514132764907      108.40448244595080
C           99.59734959593277      111.61514640839603      108.86398902965587
H          101.15678207484281      113.09195947149711      108.81707856200472
H           99.52292719546118      113.75796065511906      108.79730738455439
H           99.20854194772291      112.98201089610497      106.47243648854115
H          100.81451055452891      112.25062272362298      106.48069379107135
H          101.87808990476437      114.42599904284118      106.76721880360530
H          100.31747761625218      115.21134039341175      106.98985818202068
H           99.70697110983843      114.66486081368983      104.64215719656207
H          101.27901902739764      113.90131708624656      104.40701524900572
H          102.44247150002845      115.99240354585059      104.77669728233043
H          100.98141060216805      116.76924614858025      105.38110907977986
H           99.97954840237350      116.70282094019664      103.13687856304749
H          101.40161092106966      115.88114984750976      102.49540322193440
H          102.83423076892896      117.76864970514889      103.03941880432795
H          101.54656800377354      118.56898351030652      103.92618137991782
H          101.54836698899632      118.03697984134310      100.92655701910893
H          102.01018883076537      119.55513979133056      101.68879423422015
H           99.25003846490905      118.26662438258106      101.64887056027460
H           99.77138372113988      119.71573632536531      100.80218521980771
H           99.43968180519285      119.39396183357356      103.81721426890816
H           98.38436234387910      120.26781779875687      102.71995537145695
H          100.31911185834137      121.81624362517803      102.18427017590049
H          101.24972605902090      121.00850472870194      103.44569045986330
H           99.42722360821197      121.57355538990096      105.09175904577546
H           98.61095851586676      122.48590203572425      103.82582013768400
H          100.62934985365193      123.96381802424094      103.62403987741627
H          101.40039146172326      123.04171765513546      104.91654186217109
H           99.53883539944957      123.66398780472254      106.45744493850327
H           98.78313766344850      124.58850217665652      105.16299022743770
H           99.93643078726720      126.09665666716212      106.65658297910453
H          100.75806315189001      126.10949232529323      105.09632568138549
H          102.55338742831971      124.71691342326478      105.94965248603631
H          101.65862813368790      124.38485107015738      107.43564333404510
H          101.89830600359900      126.71500231769490      108.15425136471883
H          102.65468013239212      127.14952976449312      106.62155483478313
H          104.54102624784073      125.65435665534980      107.06495481319244
H          103.77642543072464      125.06310531253970      108.54036330237545
H          104.02092917305005      127.25863224435297      109.60146950667027
H          104.64986087331971      127.95261163555607      108.10772580501862
H          106.59392354934606      126.42682295056578      108.18279748957842
H          105.94346816115343      125.63504812253632      109.61408024562952
H          106.13779376505053      127.77121723638110      110.88279156178248
H          106.83936808856625      128.54494267918844      109.46356375041813
H          108.71439337401486      126.93786716013159      109.48693065963694
H          107.99269532806936      126.08173994918309      110.84641377325957
H          108.21811351201701      128.07708802034460      112.27268706505801
H          108.91513807873635      128.98785988268284      110.93440942581164
H          110.14553274394002      126.41467195108841      112.00396078397638
H          110.56339816787703      128.00326113740203      112.64096590697805
H          111.40089012037824      128.72727270068688      110.46218347518715
H          110.85095739378585      127.23033906770446      109.70896276138177
H          112.40178796231930      125.91611495055957      111.08606192331239
H          112.97170675796549      127.38063863733927      111.88900331568813
H          113.85123000051269      128.25494792120355      109.76728689285821
H          113.15022479504420      126.89887917650884      108.88331065973772
H          114.59301969546739      125.31771097020054      110.10905695860511
H          115.30159222311890      126.64409429423755      111.02883530975872
H          116.22676115814446      127.61276827477485      108.94356352305228
H          115.44784741438599      126.34608485798670      107.99507664656292
H          116.76350809534982      124.62528257732890      109.23417043367481
H          117.58470863415397      125.90597036498858      110.12580891853712
H          118.46599762167247      126.81070502987764      107.95969039697525
H          117.66861356839681      125.48850611064874      107.10845866958998
H          119.03244638804652      123.84317590224326      108.39414678741427
H          119.77902429178916      125.16147177579764      109.28682054274321
H          121.35276439418125      124.52058885264691      107.62757399875487
H          120.68155330386716      126.07021207053594      107.12458161362217
H          120.87275796853352      124.68740362368547      105.18458000409996
H          119.15635143460987      124.84463016314773      105.54257090166804
H          119.11035708652905      122.58756366791522      106.51259746891570
H          120.86483021404118      122.48101722944683      106.42608959780993
H          119.92800941595669      121.17354875391088      104.63886275544392
H          120.77211231688588      122.56329552801461      103.96032585868278
H          118.74072444116626      122.21748595553541      102.73066045889095
H          118.57695106360011      123.71752392260311      103.63308545804290
H          117.21883377576543      122.53255956744455      105.34925232519289
H          117.42111251836521      121.01871415606880      104.46561952818526
H          116.31905358257485      122.10545926180360      102.47159793400255
H          116.01068384620997      123.52719877742358      103.45658731493683
H          114.94980315165665      120.70634228718072      103.92034552215122
H          114.03369773280599      122.07860416145343      103.29916352860577
H          115.15143333773825      121.76817981303199      106.12012748119207
H          113.47088873313405      121.65499068467300      105.61243478530383
H          113.67037412770129      124.07764011304621      104.80310052478920
H          115.23787903949381      124.13349765606206      105.60962529700481
H          113.65076298024732      125.08850746027935      107.10336323431227
H          114.08545582900608      123.51887757789370      107.77474454278780
H          111.98063653637210      122.54772713346350      107.02519495684514
H          111.63800908859960      123.96701807036847      106.02914184582812
H          111.30477841348991      125.34828713764809      108.00488223667821
H          111.88530255412155      124.06344085467252      109.06130332893477
H          109.46528899726613      124.16328871784290      109.18743677305147
H          109.97077476731087      122.64292884183516      108.44886453027884
H          109.47907604520510      123.61649515283263      106.18753365238665
H          108.85969533260840      125.06706030195329      106.98153691418817
H          107.11748654121243      123.73768193329569      108.09864911904776
H          107.82144214644529      122.24717179428045      107.46710363842905
H          107.31653977769457      122.92636374597980      105.16397304138735
H          106.74306750729127      124.49576470070799      105.72196646224700
H          104.82901361516055      123.12349412560503      105.23421383114392
H          104.91062062887029      123.37067682381111      106.97946195372538
H          105.80439167772749      121.11082022801082      107.30180065205158
H          105.95483170047248      120.88774459470918      105.56169217220899
H          103.99830224281794      119.71246343048981      106.35433441443693
H          103.50475861755015      121.03967827513435      105.30311603729648
H          102.03523552387196      120.80703781609976      107.23676578166557
H          102.82313160857832      122.37859142331909      107.24105836167591
H          104.30145528657502      121.73308712411183      109.04283020580780
H          103.91152051098197      120.02503149130129      108.83063434965135
H          101.56902680754675      120.47923272181437      109.50365388782363
H          101.96707012148997      122.16926752006769      109.79376711965926
H          103.37532581489739      121.61225695053390      111.66984131579794
H          103.46671077082026      119.92050839604664      111.18844164516099
H          101.01570556504602      119.68015890519609      111.58905091437364
H          100.95800270483988      121.33236176481036      112.19697064774259
H          102.33879951231619      120.75423946791756      114.10687359484520
H          102.77425710343368      119.20000052253279      113.39840841107765
H          100.44231054718281      118.43404381164663      113.54585647912556
H           99.94104979773267      119.99622334904279      114.18382434343020
H          101.26916104698024      119.64039643727511      116.22025255142718
H          101.94391892436482      118.15153750891609      115.55500960109420
H           99.65684279763768      117.16869844226042      115.44570171305740
H           98.99209610986260      118.62929300547567      116.17276634699141
H          100.24299151416731      118.22398036548762      118.24568320373619
H          101.10414893568742      116.87776388571559      117.49360097272890
H           98.99521688047957      115.64895624104075      117.20835255179716
H           98.08994478325376      116.98713642193171      117.89711254823467
H           98.31415307210661      115.28527048937076      119.56300158230616
H           99.27273971109771      116.68189871991521      120.05671681891349
H          100.41049012432457      114.58578572289797      120.54457584200462
H          101.34097128137527      115.57067800471098      119.42353980592813
H          100.71865400978018      114.16074611281924      117.54347535385439
H           99.54615644085530      113.27707571639051      118.52319165652075
H          101.33513181103997      112.35149590173481      119.91408191926915
H          102.53447786802462      113.36327982299237      119.11150434780835
H          102.12669711693499      112.18425936106432      116.97420299503011
H          100.90854378713043      111.17385053195635      117.74797577124049
H          102.59173606127899      110.20459163036023      119.24905674236570
H          103.82221305273296      111.31120116511778      118.64315471971264
H          103.67179291076991      110.30505757862387      116.40157041044009
H          102.38387546243861      109.23250153370087      116.94058258911197
H          103.88490742816691      108.05456622713626      118.43858761487922
H          105.16696866297362      109.23799202598400      118.18705131223940
H          105.42064867604626      108.59660844830616      115.86613896272965
H          103.98931819107055      107.57359571288944      115.92723619118536
H          106.52771694107322      107.06318524503293      117.53151271540403
H          106.16676559260779      106.35180432825571      115.95987871979358
H          103.91881684914014      105.58507834130748      117.14635681542636
H          104.85923001184933      105.76884907798919      118.62334500912473
H          105.65631196417546      104.07419644353376      116.22113079812000
H          104.86885203806193      103.44621802220267      117.66352595669962
H          106.75290728807369      103.93655179820978      119.05049083163284
H          107.53640504027250      104.89636441229172      117.80777225668528
H          106.93346453029181      102.07348932991547      117.03658098529048
H          108.13228380110672      102.26567211974039      118.30706359094040
H          109.23989498947024      102.14680813609537      116.15858705788538
H          109.49334637695046      103.72490150208949      116.89843523331753
H          107.71831561404989      104.68643739622900      115.45408813264525
H          107.51371593724340      103.11937948316984      114.66170277202716
H          109.88445423741487      103.19951758169550      113.92524956721330
H          110.09370829172698      104.73841847187320      114.75408221206638
H          108.28219839654540      104.20684608075221      112.35874812112949
H          109.81721640280317      105.07135128752877      112.35169873368825
H          108.77254544548289      106.74762112356377      113.95405980841164
H          107.22161676741847      105.94842632861169      113.67688365915146
H          107.57961380652759      106.33253981199648      111.18448940422523
H          108.93071423819731      107.37998973119498      111.60933933427962
H          106.04397744260730      107.73071399010823      112.53926691029288
H          106.78370089310624      108.60702413377557      111.20304451662454
H          108.37250529911304      109.68836437855798      112.73414142845179
H          107.75470880250181      108.74460527926325      114.08898419696192
H          105.50536518422510      109.76677683737793      113.77389940317457
H          106.14423179087581      110.76085899631931      112.47090441000455
H          107.67818793217505      111.89245624913728      114.01522792898567
H          107.22525597555753      110.80237002846944      115.32319561172127
H          104.89754061799010      111.65331874596279      115.24255470561729
H          105.32782788748590      112.73566874151851      113.92317067404738
H          106.89398576365103      113.95082522764922      115.38401138423183
H          106.59258346808721      112.81544107982823      116.69676737384566
H          104.23430160354181      113.51469759871021      116.80916940565464
H          104.45679094764081      114.58141640226579      115.42436918143065
H          106.06294753026542      115.95161195305330      116.70679724214216
H          105.91774075455739      114.86186015631945      118.08554472875748
H          103.50039575337260      115.41504319023200      118.26442797547200
H          103.64261808074484      116.49418823737375      116.87865664690706
H          105.26005345288243      117.90385012465721      118.14614454425082
H          105.10982198212740      116.82233716834797      119.53293265193253
H          102.66235660053063      117.32946094174011      119.63546594573712
H          102.84571690913280      118.42566423040427      118.26800165723685
H          104.35319719888486      119.86294420844730      119.61142462374794
H          104.21173305721283      118.74293585990098      120.97074027469539
H          101.81023741124029      119.18988427633707      121.15720736124595
H          101.83383581233895      120.13408978995680      119.66834012023367
H          101.74674942308772      121.68359506526680      121.49619978029868
H          103.34289184024806      121.79071511014367      120.75374409725180
H          104.27116507066548      120.35941506054996      122.57095575180776
H          102.66949124368419      120.21699409878508      123.28076483223253
H          104.03041956384749      121.85152851825713      124.48228861748105
H          102.59802463684095      122.59984459582468      123.78068202834257
H          104.58156717118933      124.03076390526094      123.56723250237170
H          103.91369393546884      123.61105827722514      121.99629066513906
H          105.65995787791945      121.85385872053043      121.73159839815904
H          106.34031854842159      122.29770533666206      123.29653073535218
H          106.89640250350902      124.52305895409300      122.48720214890666
H          106.04157746118180      124.24451941874008      120.97078683150538
H          108.48840748773445      122.65982622006773      121.86420801537550
H          108.54428949578782      124.07668608548629      120.81391019970788
H          107.03132585572422      122.90544833466109      119.19608338692780
H          107.10967679112021      121.45787051762613      120.20067280344985
H          109.58946435867077      121.39415691675920      119.87855727362448
H          109.46459432474801      122.78979159125075      118.80441628255777
H          107.94979164889415      121.52642392480574      117.31192291205046
H          108.03222639046668      120.13187370711019      118.38742304681305
H          110.46266403013875      119.92049334267932      117.94405060106969
H          110.39902974612569      121.32718084797654      116.88219184805196
H          108.80066476701212      120.16074831820387      115.39743454665692
H          108.79624618536299      118.76517773626843      116.47126570708960
H          111.20980591442404      118.40407224673184      116.03464443774043
H          111.24151574842051      119.81580951569437      114.98164129907056
H          109.60487714921027      118.74557665008089      113.46345602127062
H          109.50880620875749      117.34565028494841      114.52932696700782
H          111.91176254975164      116.87398086040137      114.15194761586700
H          112.04189337386855      118.29267197648578      113.11685283799781
H          110.41221162219018      117.30767543348513      111.53356326838325
H          110.23781139877380      115.89307735345861      112.57332621275695
H          112.60528764452295      115.31645210599528      112.25296026705593
H          112.87019986908490      116.78598141151647      111.31798982503696
H          111.30000963970592      115.98707459821500      109.58303982936921
H          110.99829092637117      114.51682049013071      110.50992138371868
H          113.32705554972259      113.82001150636283      110.27546820007204
H          113.75851926418362      115.35451268274051      109.52562445712854
H          112.32753986388077      114.84488898531264      107.58691249955010
H          111.81979888384278      113.32712637391252      108.32819578671470
H          114.11758487311101      112.48252256466972      108.28766388237366
H          114.71283505118775      114.01419214065042      107.65822693115958
H          112.67039482553035      112.32868617449429      106.15983134545813
H          114.40699094607966      112.09010159046308      105.98163012121564
H          113.54926911005920      113.54414056764966      104.18430498141217
H          112.94404487977272      114.69851235966973      105.37069248582323
H          114.67926142004276      114.42749220596966      105.20898995861879
H          100.24895207359839      110.80150888547159      108.55262150109640
H           99.51471952391421      111.58906542903267      109.94845933143280
H           98.61200078138123      111.44400329453853      108.43763232126381
C          124.20716412370744      108.08416043839873      102.07838384606130
C          123.26742584652270      109.28136396669090      102.14062316260036
C          121.83991563542166      108.90817095421852      101.75114093844645
C          120.89999833166452      110.10960165770400      101.77632840865039
C          119.46778453070860      109.72771595779591      101.41441637849682
C          118.53008773401314      110.93155767513296      101.41890592032070
C          117.10997818799257      110.54766276644881      101.01183709274868
C          116.15832418133100      111.74047409554009      101.02297627362226
C          114.77003545987080      111.37192413801749      100.50549428927235
C          113.84332995890728      112.58392896308754      100.47139240764454
C          112.41634361585938      112.26070690460396      100.03116283418609
C          112.30920180500962      111.77426867329613       98.58669257826183
C          110.85017331768104      111.69426653385059       98.14390373608057
C          110.65065676086118      111.11684617738058       96.74347483827184
C          111.29002897936012      111.97497307944832       95.65436846453831
C          110.74142585500084      111.69429334542251       94.25581059960086
C          110.89654656326654      110.25362367282305       93.76588855219318
C          112.32507682375054      109.71121417695458       93.79547476226143
C          113.30897027342093      110.54186112184144       92.97677971483944
C          114.70815125679053      109.92737922387830       92.90799652062144
C          115.37425709215019      109.77598454692553       94.28357090230713