3864
 energy: -5104.225969424834 gnorm: 0.000770367014 xtb: 6.6.1 (8d0f1dd)
C           35.54202368158223       51.25726252493048       46.03026602275582
C           34.16028318257033       51.11767841514944       46.04128700881642
C           33.59847194646585       50.06122796935705       45.33423473219646
C           34.39213800977306       49.17030202812906       44.63514135457586
C           35.76934858335714       49.31967750764930       44.63213785046442
C           36.34029599288319       50.36793531531934       45.33214159176681
C           33.29306506392625       52.10336759298584       46.78241214572009
C           32.28501364785159       52.75531465414991       45.83121238915201
C           32.56224820892830       51.44338274649305       47.96100684297267
C           33.50514068373258       51.04562242054597       49.10417630635497
C           34.25858211001453       52.24055472879277       49.63196654571583
C           33.58106919979986       53.34132371282303       50.14401721591948
C           34.27209208549039       54.43021681150822       50.64188635803467
C           35.65641486493328       54.43534887968723       50.64700643216010
C           36.34246839724428       53.34171207025075       50.14867172698527
C           35.64760835871667       52.25583402008029       49.64420848081620
C           32.72140019040819       50.39655185618476       50.25946162904700
C           32.41190433299025       48.90638955999249       50.03607484300430
C           31.31799925841316       48.49969570138624       50.99080573066362
C           31.52889087741183       48.53467419090484       52.36499791914174
C           30.52212384540879       48.18165052749884       53.24444488834728
C           29.28515477631105       47.78047911403838       52.76757563222306
C           29.05843158239673       47.75891837951357       51.40284368526515
C           30.06466058758093       48.12425393438582       50.52445008835691
C           33.67845013175879       48.03655501320014       50.20168906967164
C           34.09078316421156       47.25792874679779       48.93909258026837
C           35.58605472804867       47.04886244434464       48.90761486186933
C           36.22769875616736       46.28962078269333       49.88121599865781
C           37.58855326699729       46.05338454145993       49.80486305951785
C           38.33049181687105       46.58207097390991       48.76080430442143
C           37.70624456225286       47.35280804429112       47.79739364742245
C           36.34294202920579       47.58127376427743       47.87242005774274
C           33.40807208621677       45.88244562888558       48.82340305208834
C           32.02542935982448       45.89517512644950       48.15237916755347
C           31.34349431117784       44.57806003215052       48.42060603021211
C           31.78488963812395       43.39489864731109       47.83884113403489
C           31.15884642311798       42.19392798079328       48.12030066794367
C           30.08514780792619       42.15150369491519       48.99294697837702
C           29.63982770972445       43.32237186938988       49.58194768044143
C           30.26474782676471       44.52340312734155       49.29488731524524
C           32.15511832793332       46.18389395655461       46.65341038258555
C           30.82800087949061       46.07615588303307       45.89006969330148
C           29.77734352510298       46.98968131099701       46.46259846102144
C           29.94702403599636       48.36893807559217       46.48098541785485
C           28.97716803244159       49.20117352818777       47.00899556440333
C           27.81200147308296       48.66394331049574       47.53019292089780
C           27.62970276772506       47.29145084471124       47.51845397264876
C           28.60472507238553       46.46380104462276       46.98989303035645
C           31.09097948794890       46.37844652285852       44.40832768564927
C           29.84105069752634       46.30471925040175       43.52189005922865
C           29.03092613511805       45.06181383928241       43.78812092109325
C           29.63016412592227       43.80886309432709       43.84950668464720
C           28.87817837595883       42.67457540665337       44.09228088848614
C           27.50796143498357       42.77089876320891       44.26572264469240
C           26.89783227993459       44.01128470305003       44.19447682397175
C           27.65600571105620       45.14524765856970       43.96033607342847
C           30.21492417713049       46.32410852837844       42.02864133146085
C           31.01796256631958       47.56226953220686       41.60695950832488
C           30.23102820726435       48.83546792770436       41.77918495811898
C           30.73182312452843       49.87986114592373       42.54586074419560
C           30.03180800325051       51.06497432907416       42.68365688523323
C           28.80806097592866       51.22351853611679       42.05871105147988
C           28.29535506310158       50.18995118809510       41.29281750231175
C           29.00270764029927       49.01007127098275       41.15221955244318
C           31.49846260898441       47.41708367928289       40.15546693655050
C           32.47940845252499       48.51663022014605       39.71156374428613
C           32.79668485016840       48.32197365675577       38.24963991223666
C           32.33288230007059       49.22597734344303       37.30327681411826
C           32.62003048121206       49.05841218983263       35.95948271105183
C           33.38063727678211       47.98037288433765       35.54020410312938
C           33.84436046525791       47.06847343416192       36.47348103905903
C           33.55030576198971       47.23717845154729       37.81405380675849
C           33.75737663546782       48.51798026252572       40.56137200815311
C           34.83001475851061       49.48397227351597       40.04366430577186
C           34.29303864020721       50.88697953478111       39.92014584516432
C           33.76469921334104       51.55647575254013       41.01839425602414
C           33.28930336353493       52.84881987407795       40.89743745594360
C           33.34176998256322       53.49986264392199       39.67640299431978
C           33.87578193789933       52.84808717117333       38.57851236924061
C           34.34499248679678       51.55244450480244       38.70190945292593
C           36.04218938071237       49.46602757762702       40.98625925204859
C           37.19386108120227       50.35254784905998       40.48079351423173
C           37.97287774875551       50.87082723878383       41.66437816093663
C           37.72160917178034       52.15831333361987       42.12560272831978
C           38.37624083646602       52.66072563494673       43.23447069914744
C           39.30983481642518       51.88235071869638       43.89705120402505
C           39.55855040913111       50.59426297101012       43.45679791476152
C           38.88897816278644       50.08885725267145       42.35631169465192
C           38.06390295653152       49.61065952294930       39.46354043102299
C           39.11565389190353       50.53265215537227       38.82806519039377
C           38.43027062750659       51.58375293598409       37.99590827141336
C           37.77197784443036       51.25926426488802       36.81577409033486
C           37.10962316595347       52.22634844434844       36.08172860822693
C           37.08912665016664       53.53917102728522       36.51995171546692
C           37.73502270070714       53.87476890551583       37.69721364213157
C           38.39821180929739       52.90447565160618       38.42654761359699
C           40.12729416117799       49.70164805685005       38.02982619555876
C           41.27097868493998       50.52742489487474       37.41398980257399
C           41.89259825196269       51.40883163604330       38.46339554274788
C           41.73967946569388       52.78671464153948       38.37862584355217
C           42.22509260985953       53.61673960814105       39.37195757264865
C           42.87982544564148       53.08005663218136       40.46685788689571
C           43.05383707714709       51.71076433322820       40.55329977528500
C           42.56685488935403       50.88304468894406       39.55866540164569
C           42.27719342467002       49.56997212697498       36.75831555384909
C           43.58764536944440       50.21581567205636       36.29182713654699
C           43.33889143764888       51.40452193556108       35.40198196582104
C           43.80923973043738       52.66015080928309       35.76491157222214
C           43.59321426463941       53.76157345461571       34.95583444414714
C           42.90195866138131       53.62338351719883       33.76474482124019
C           42.43127770579996       52.37602578430126       33.39006022266273
C           42.64951333747346       51.27746732315277       34.20159669976416
C           44.45118861581400       49.16457426967858       35.56824122368194
C           45.22047672306491       48.24870062828637       36.54000744703660
C           45.35715791649100       46.84872274065628       35.99634008125778
C           45.90266583681793       46.62350706048125       34.73705588806452
C           46.06264114870714       45.33782098926422       34.25297316882794
C           45.67779823385204       44.25141359382715       35.02108330227556
C           45.12666262007002       44.46251215372229       36.27228464446714
C           44.97023343989942       45.75060563067707       36.75339683004439
C           46.61167665555032       48.83225241924739       36.81796884356900
C           47.33776106013564       48.16162619943447       37.99676657116392
C           46.72084661918092       48.60461091872130       39.29702337496720
C           45.98645857853551       47.71099090592595       40.06578720773581
C           45.38874995282103       48.11483932880603       41.24659530629204
C           45.53411405185194       49.41695813073045       41.69212395244648
C           46.26268833725939       50.31841075154463       40.93399131295777
C           46.83931251271002       49.91674286108955       39.74268324726251
C           48.83291770655200       48.49797875881774       37.88376149435231
C           49.67493159302041       48.18219472230355       39.12678998657248
C           49.57803955795372       46.72410704005139       39.50540086749965
C           49.99593694611131       45.71873309451694       38.63996324832721
C           49.94624736689334       44.38936138238039       39.01963105642155
C           49.48258952491040       44.03981460267763       40.27745139384418
C           49.05671142888545       45.03061032115915       41.14450668337336
C           49.10391451315901       46.35870503268134       40.75812314968331
C           51.15115540445490       48.56186897209700       38.89137042934304
C           51.58882146285158       49.96715852632430       39.35709681626145
C           51.60458842668032       50.03157586519173       40.86709136371261
C           50.50603104466729       50.42927422493358       41.61887959260982
C           50.57032093285189       50.47579647614019       43.00152282569387
C           51.73867133462537       50.13229275114320       43.65793849564265
C           52.84118099498535       49.73612304039558       42.92194789321843
C           52.76884460878365       49.67967216062069       41.54244064893711
C           50.79331222746814       51.13169884438167       38.75751150117878
C           51.01817355327906       51.33391680294014       37.24749779355770
H           33.93831595732957       52.89327054277598       47.18425582009417
H           31.81615204856887       52.14519192803704       48.34043299160671
H           32.02751577344616       50.55863843849041       47.61097754589228
H           34.23504386632776       50.32538265025302       48.72018544727077
H           33.29169244381711       50.50476629783743       51.18563042557682
H           31.78021697911649       50.93559044106341       50.39702585242433
H           32.02624933671873       48.79414834381279       49.01874083419445
H           34.51032858616244       48.68637828927131       50.48419502460339
H           33.53207446375017       47.33239150714152       51.02344236896384
H           33.83205280565824       47.86214514779799       48.06418960011234
H           33.30861381413708       45.45128952872430       49.82218680631886
H           31.41875680264623       46.67715148658310       48.61335811224718
H           32.56146267656220       47.18782277899987       46.52039639438201
H           32.86599349379470       45.48469993276951       46.20811368378061
H           30.46267566289509       45.04848338279889       45.98125760727395
H           31.50637108715807       47.38328582397526       44.33401119793868
H           31.84201411186010       45.67565099868080       44.04180268002334
H           29.21230750893411       47.17743047950060       43.73500665318003
H           30.79912985554031       45.42945366222835       41.80658615068032
H           29.29930425956202       46.25544867246121       41.43807260664531
H           31.90243986144261       47.61322680851956       42.24363857424048
H           31.98699438168764       49.48859798493213       39.83066156238455
H           33.50657971137550       48.80450317797353       41.58162362595601
H           34.17761462368978       47.51127854990235       40.58736379556260
H           35.14619474613990       49.15376821537091       39.04865967855463
H           35.72708365601133       49.82858139269325       41.96681252359832
H           36.39954576997309       48.44132389807094       41.11134293019640
H           36.75115521835924       51.21892962591969       39.97580303482998
H           38.56848413091262       48.77199057786322       39.94620157614895
H           37.42370098295110       49.20632851949638       38.67732552973232
H           39.65442789561952       51.03584006033056       39.63883196836709
H           40.55406108501167       48.96301248579348       38.71047366463581
H           39.61607794301529       49.15652238024330       37.23381025886875
H           40.85151402016619       51.17767649803121       36.63685251009134
H           42.53496701911298       48.77955161692677       37.46145160658590
H           41.78585658679116       49.09917232205084       35.90345003313172
H           44.13355776649937       50.56719759310059       37.17427418349840
H           43.80807740418498       48.55689435534988       34.92796409120994
H           45.16485124372131       49.67822102238388       34.91982116698186
H           44.67406413000176       48.19393732922135       37.48645974064258
H           47.22088441084692       48.72128368256657       35.91813235862816
H           46.51779059103154       49.90256505264060       37.01739749901046
H           47.21917545867656       47.07516370097667       37.91155113916724
H           49.22957851291694       47.94069064794957       37.03101412834461
H           48.92939642440439       49.55587188036132       37.64583184987349
H           49.29011437535027       48.76187875033762       39.96934659992539
H           51.78218759420604       47.84635110006402       39.42589622785889
H           51.37628374958550       48.45393513765976       37.82802321449143
H           35.99686252635004       52.07137183038038       46.57732814234483
H           37.41211880293908       50.49594677835243       45.32429009958459
H           36.39543575003456       48.62336579211216       44.09415626886869
H           33.93562448803662       48.35498658063916       44.09085950796489
H           32.52441736284037       49.94083001517396       45.32320896253886
H           32.50059000263126       53.35113217913140       50.15814990662813
H           33.72235237973171       55.27747010350985       51.02552192112321
H           36.19975682133560       55.28018545095784       51.04413091093067
H           37.42209144085220       53.33610451080866       50.14910380144065
H           36.19500152904646       51.40780443552234       49.25480158832259
H           32.48807378106699       48.84808898239667       52.75074084747529
H           30.70060049305022       48.22208438937788       54.31015542082586
H           28.50185548714131       47.49375539555331       53.45487383201721
H           28.09377360310549       47.45992539045638       51.01627705560396
H           29.86005012552355       48.12328999016160       49.46242651722817
H           35.65704667927317       45.87897112878375       50.70228534530992
H           38.07419308661704       45.45264591684472       50.56129816502123
H           39.39397208413394       46.39954440162319       48.70843226833261
H           38.27190703245726       47.77310444609266       46.97800557422104
H           35.86340458426541       48.18360038076930       47.11315495035329
H           34.05513340709039       45.21775448992467       48.24364276479372
H           32.62199917512113       43.40673289792684       47.15708282124425
H           31.50593282274952       41.28209810277161       47.65414405831079
H           29.59686223178291       41.21260321467267       49.21255123352070
H           28.80361041730892       43.29981010755565       50.26726640578783
H           29.91059424469350       45.43345106266528       49.75917252178856
H           30.84915027203520       48.80109882308899       46.07575454909198
H           29.12812354107323       50.27141725824795       47.01804806622245
H           27.05278547834641       49.31112670207543       47.94531673041668
H           26.72324827745665       46.86315675837893       47.92316857492520
H           28.45387844662929       45.39289863580527       46.98482677057213
H           30.69633497027181       43.71432427560747       43.71238802528391
H           29.36310908312679       41.71013834616733       44.14575917724397
H           26.91770616450432       41.88533624831476       44.45471623139625
H           25.82823760096743       44.09627876056945       44.32661914091089
H           27.17301419369851       46.11228021659077       43.91748483159047
H           31.68814730369046       49.77263750973235       43.03667924749026
H           30.44301206278890       51.86994363530001       43.27563620960017
H           28.25686511609704       52.14689582501202       42.16408662592343
H           27.34062944752137       50.30671733475975       40.79920711457837
H           28.59119878368703       48.21706512783646       40.54435857211668
H           31.97926021756025       46.44451198252070       40.04079578664849
H           30.63551103950367       47.42920507477913       39.48626278660350
H           31.74624012706288       50.07623534582674       37.62425496221829
H           32.25231547850941       49.77458663821589       35.23799583848009
H           33.61004172926347       47.85193099021666       34.49203445133796
H           34.44289928693649       46.22584369869300       36.15647182362169
H           33.92232736226303       46.51689182370489       38.52601990120063
H           33.72818901613687       51.07256101107292       41.98311014338822
H           32.87781566742775       53.35465089867576       41.75974307100891
H           32.97123798434036       54.51088571130641       39.58204642306855
H           33.93127123622292       53.34994904418338       37.62279501233851
H           34.76256469764321       51.05439012019500       37.83754103288876
H           36.99794531514447       52.77367503542099       41.60603428436422
H           38.16209553874811       53.66380557825301       43.57668925691665
H           39.82776521667272       52.28040990063585       44.75776423229154
H           40.27168825890685       49.97144035522399       43.97714715256347
H           39.08747481500207       49.07409064728216       42.04465406212381
H           37.77098477771465       50.23881340528487       36.46042240245198
H           36.60306229377778       51.95534159597069       35.16570811501970
H           36.57139342113962       54.29585547127040       35.94760462716031
H           37.71995707359580       54.89716604328260       38.04857715175730
H           38.89702533400737       53.17225575789264       39.34817866875684
H           41.22251626700172       53.21177162532445       37.52820912552907
H           42.07511941541184       54.68507886723611       39.29075337770650
H           43.25112009593004       53.72318400621355       41.25007366152576
H           43.56329194418484       51.28697643547857       41.40484474185239
H           42.71220419728805       49.81648793501045       39.64519810594446
H           44.34982035123680       52.77712550610391       36.69375157396659
H           43.96592624819932       54.73171620657153       35.25455490855627
H           42.73119872569434       54.48155445319509       33.13052741916962
H           41.89214135416849       52.26064146590410       32.46028513668031
H           42.27905976440181       50.31049655665605       33.89411985151259
H           46.20500999130954       47.46174576482194       34.12563165160824
H           46.49143726036220       45.18110656980205       33.27288721817799
H           45.80680973188075       43.24636765575479       34.64558013978613
H           44.81731260393084       43.62144821741487       36.87551790602645
H           44.53509092286988       45.90277049150122       37.72996781634117
H           45.88541945036143       46.68677456519433       39.73379193256400
H           44.81164208635884       47.40935352428523       41.82681662829269
H           45.08428062228639       49.72884793522693       42.62522692262107
H           46.36811438216036       51.34075035060617       41.26938710006070
H           47.38681455882404       50.63440006070268       39.14649584761570
H           50.37088638219662       45.97296125998228       37.65859584551492
H           50.28028473157877       43.62091532150172       38.33546036131967
H           49.46177730307889       43.00155626353359       40.57942650177347
H           48.69168157862176       44.77493708143802       42.12895319545418
H           48.77080625384255       47.12277288713097       41.44497301291504
H           53.63125114396633       49.36156469735349       40.97041172068290
H           53.76108142003031       49.48451231641464       43.42728193507436
H           51.79598102138532       50.17494979811389       44.73577483512542
H           49.70181969892237       50.79047433014144       43.56305507046207
H           49.58370848221727       50.71134683471966       41.13321192188374
H           31.54261915938176       52.03459616436342       45.49565424299772
H           31.76624110729567       53.57057615177804       46.33156640385450
H           32.79412096358168       53.15959921579177       44.95801094115708
H           52.62990216423934       50.07821935713203       39.02850301640211
H           49.73031677694024       50.98864487476447       38.94540555505300
H           51.10134921596797       52.04224529372402       39.27772315125414
C           52.24130379884662       52.22545186608168       37.00245908012816
C           49.79193668668359       51.92647843313414       36.59893768663348
C           49.24625480789549       53.12290245643384       37.04988683560858
C           48.10822965083833       53.64859675395558       36.46543050254275
C           47.48958358400270       52.98236115971613       35.42098936381724
C           48.02895864478651       51.79541484850162       34.95619464769973
C           49.17233471782504       51.27644887769235       35.53791963058437
H           49.71215415983826       53.65374663249716       37.86593759903276
H           47.69838054386144       54.57910041781402       36.83180841590143
H           46.59265147622731       53.38297688548328       34.97046090010559
H           47.55474131725835       51.27399787730890       34.13612884843251
H           49.59150640714686       50.35352965145038       35.16004715101936
C           52.56156977654359       52.40303452580203       35.51924969101530
H           52.05920801651416       53.21446025535741       37.42862313128601
H           53.10457786028555       51.81349502652385       37.52607163695263
C           52.88169708159816       51.14408989249578       34.75739457071814
C           52.63703651311075       51.09949643862822       33.38873100556140
C           52.98250502240030       49.99189877382227       32.63529084389930
C           53.58053358103513       48.89883817273741       33.23837525470341
C           53.81192552117506       48.92143945359495       34.60154954872417
C           53.46790387087496       50.03265613132606       35.35178466655258
H           52.17316051599434       51.95018198455957       32.90677858097497
H           52.79026837538723       49.98250632194443       31.57126356599776
H           53.86057107581369       48.03803857886539       32.64897878205714
H           54.27355445566326       48.06964618019438       35.07987271053973
H           53.65895938463355       50.02903101217592       36.41365896785992
H           51.20212450181607       50.36385139992617       36.77752849570487
H           51.71978676771938       52.90094148943303       35.03001804999268
H           53.42319185955608       53.07557422948005       35.43709542446630
C           65.98429078062375       38.94392792061968       44.58502839477905
C           65.38041597005176       37.73399067223414       44.25927083565276
C           65.35863746492367       37.34974093680684       42.92384237704729
C           65.92902603430461       38.14284230985407       41.94267654928828
C           66.52612201671856       39.34489955383518       42.28164599122830
C           66.54640559751577       39.74541507725808       43.60729216926694
C           64.81343766137162       36.82249638142886       45.32070507914727
C           65.96503359094065       36.19557288774708       46.11383381704901
C           63.84674402862260       37.54555220225927       46.26423773266163
C           62.59521266288913       38.04843573523569       45.53866340048579
C           61.64909097019000       36.93560938392694       45.16012883793366
C           61.22668790559705       35.98825248184248       46.08692390316985
C           60.30049255247503       35.02001489988933       45.74122193410782
C           59.77027801308023       34.98620084603406       44.46228698013734
C           60.18011677910447       35.92482762972323       43.53090444025525
C           61.11084058481215       36.88860048452359       43.87929821687239
C           61.82344417584537       39.05618105564046       46.40595690607670
C           62.52939399332814       40.41938025437626       46.54585765238907
C           62.81987010211461       40.74006458854427       47.99092206473399
C           61.80487149084406       40.76517571016184       48.94187481244822
C           62.08414142317688       41.02749306453060       50.27106220017134
C           63.38784083709442       41.26873276677534       50.67226224998490
C           64.40357502132204       41.27240510194292       49.73278941003830
C           64.11786291008193       41.01413435358600       48.40336931795850
C           61.70079213151159       41.54707232176783       45.90939424090799
C           61.74612995857206       41.53059798971305       44.37066964309210
C           60.59629989358293       42.32836934429562       43.80882459969536
C           60.34945659790824       43.63515313968175       44.21060824235606
C           59.25444178667352       44.32922127929648       43.72710451253791
C           58.38866479616335       43.72721270915364       42.82982718395118
C           58.63714203198269       42.43647390186321       42.39943795897060
C           59.73335138260180       41.74757930388581       42.88638650660447
C           63.10411838108039       42.05259566631165       43.87195744014964
C           63.14108982847975       42.40884980933027       42.38020601700288
C           62.58001737637083       41.32352320880471       41.49606941937810
C           61.66267847622824       41.64071663649958       40.50082359721767
C           61.15159449040615       40.66542531626384       39.66359685378594
C           61.54787723035922       39.34743275769390       39.81184304606271
C           62.46252583320399       39.01854414384436       40.79866218005187
C           62.97511704235345       39.99822429496722       41.63047193128974
C           64.58126001274481       42.71406812886414       41.92528911228263
C           65.29209978502494       43.81561051971526       42.72806625211309
C           66.70297275963826       44.00300854415896       42.22631870013998
C           66.96205889399774       44.49210062360270       40.95093382098450
C           68.25960538635286       44.70653098098432       40.52369788690881
C           69.32530292856545       44.43187805589886       41.36398506783821
C           69.08243560105451       43.93383097103140       42.63216002387200
C           67.78226600740039       43.72084001671946       43.05476509863520
C           64.53902928070717       45.15167224281640       42.68501983155699
C           65.23387210128101       46.21678339995598       43.54262502901454
C           65.40636277495877       45.72825248884626       44.96218885731655
C           64.31200221333067       45.31244455725685       45.71564022813643
C           64.46827616022217       44.86996759977650       47.01612974321159
C           65.72388005482733       44.85703934101431       47.59980373085322
C           66.81905157430685       45.27961788251326       46.86709536758607
C           66.66074747834084       45.70197827953126       45.55782824689969
C           64.45580843051388       47.54034780410345       43.58171668657571
C           64.18964699218405       48.18805365358333       42.21752464185894
C           65.47152968898268       48.53843090404346       41.50638531538772
C           65.79042104039060       47.95119543885895       40.28920001962083
C           66.96515553321602       48.27358235009726       39.63228487746882