3864
 energy: -5104.079525542958 gnorm: 0.000908210748 xtb: 6.6.1 (8d0f1dd)
C           35.57677104429629       51.25679071053759       46.03616407877341
C           34.19491308836992       51.11760568690084       46.05257720267982
C           33.63066161786801       50.05786189965396       45.35233625659234
C           34.42174729547646       49.16307242575248       44.65544385533018
C           35.79919412550070       49.31127993127494       44.64784445971380
C           36.37261024275534       50.36318451323267       45.34054196035127
C           33.32941008707684       52.10674773163354       46.79131614984302
C           32.32757965752062       52.76229801795776       45.83620741182633
C           32.59219508711528       51.44868296930721       47.96718897189933
C           33.53097435289725       51.05161648081980       49.11420401040777
C           34.28177008253807       52.24805580215504       49.64278210953172
C           33.60123529074825       53.35069865114169       50.14653953529131
C           34.28947358741462       54.44187009088850       50.64305664747937
C           35.67373883988360       54.44592667037896       50.65691419271081
C           36.36268749811594       53.34996016939549       50.16760453870503
C           35.67073933637135       52.26248644089163       49.66214546841653
C           32.74444778128694       50.40162402580252       50.26735829962552
C           32.44039260883036       48.91065369841117       50.04252075237282
C           31.34669683414548       48.49544784390988       50.99460981511128
C           31.55666110468526       48.52764191992288       52.36883960258207
C           30.55243588932174       48.15969467621327       53.24523985819665
C           29.32100714037648       47.74651171869918       52.76467877105849
C           29.09488159429234       47.73050435526466       51.39986010856681
C           30.09776632793043       48.11123012868001       50.52414148510276
C           33.71011082378451       48.04523979409603       50.20966267836766
C           34.12074018334417       47.26175133726849       48.94935955860559
C           35.61562377610593       47.05136107386859       48.91657135043403
C           36.25815683370215       46.29396715766519       49.89119645052550
C           37.61829234586926       46.05467186812707       49.81208992613335
C           38.35878604890750       46.57881021047067       48.76440876859161
C           37.73416084463443       47.34943772257091       47.80093437422921
C           36.37144882376955       47.58067964344688       47.87881301830924
C           33.43690302899415       45.88598284409817       48.83786425078816
C           32.05396083638306       45.89726509567668       48.16771833818947
C           31.37759254618988       44.57461070369046       48.42616112838824
C           31.80416950634079       43.40236033451143       47.81232452657842
C           31.17856093235326       42.19804759974788       48.08130374727444
C           30.12348959088401       42.14150221303056       48.97531457083016
C           29.69456414194771       43.30133017332555       49.59708644828522
C           30.31643654268079       44.50638164314157       49.32079774605593
C           32.17945878036090       46.19891307938024       46.67088539669660
C           30.85206763458824       46.08203641705121       45.90974203191133
C           29.79757359420755       46.99192248055512       46.48173935892929
C           29.95422116172561       48.37269772823387       46.48192153150641
C           28.98125136684136       49.20116705346044       47.01031324987247
C           27.82759790364791       48.65774192850122       47.54988104498218
C           27.65839762685882       47.28367870597464       47.55485082460390
C           28.63562215483071       46.45931952684820       47.02548442869463
C           31.11002987559085       46.37985324180047       44.42668582215406
C           29.85666474614642       46.29563620731077       43.54628827962935
C           29.05689461182271       45.04753481804275       43.82125974556007
C           29.66756907437639       43.80151848049697       43.90551858675505
C           28.92439558342656       42.66437727780335       44.16254638533609
C           27.55226062100785       42.75134353159956       44.32394321369459
C           26.93117271058721       43.98436934709698       44.22754610701626
C           27.68023028964797       45.12166594306454       43.98202353025039
C           30.22229017585642       46.31634689880062       42.05140421426294
C           31.02924594842025       47.55169340346546       41.62918818027435
C           30.25122630749881       48.82911482227024       41.81146407876321
C           30.76305389806406       49.86715059030803       42.57913547947005
C           30.07157873905611       51.05639263865199       42.72436573403948
C           28.84609026344501       51.22443712232444       42.10584932303846
C           28.32256588886312       50.19698055207942       41.33955781918531
C           29.02098360829156       49.01293881826892       41.19139074357179
C           31.50197731247652       47.41075355870587       40.17487078927255
C           32.48337515215113       48.50959673646642       39.73142580998279
C           32.81202690963489       48.31193559266411       38.27223038868195
C           32.37150769376876       49.22424485417354       37.32291701763376
C           32.67467020775224       49.05604116940463       35.98295151767316
C           33.42762645896809       47.97008922718739       35.57104176362296
C           33.86786575506992       47.04983674453887       36.50719960064965
C           33.55772595069199       47.21887324860765       37.84418040868022
C           33.75727521119966       48.51666494754442       40.58779914594963
C           34.83316949142743       49.47736080638145       40.06817029681656
C           34.30370461732754       50.88301968173187       39.93659002262953
C           33.78524759180524       51.56359881779880       41.03255795517073
C           33.32638438297911       52.86151890094710       40.90525721698184
C           33.38640178701587       53.50504883902470       39.68080432523240
C           33.90809207921892       52.84048905699431       38.58492157180478
C           34.36070618501071       51.53962890814056       38.71386221716318
C           36.04364711986359       49.46074171207155       41.01308320110994
C           37.19299218216000       50.34869313910151       40.50576219946304
C           37.97359477216811       50.87343795391494       41.68558482735257
C           37.69942975732159       52.15303684329953       42.15663631700542
C           38.35762857660741       52.66444734977755       43.25899116230291
C           39.31738179445846       51.90374482706966       43.90512422523873
C           39.58810764572952       50.62325598171979       43.45572548727357
C           38.91499999035354       50.10810634829497       42.36161953139730
C           38.06017751431627       49.60881387864500       39.48503457197173
C           39.10831618549129       50.53540716179621       38.85105405880274
C           38.41714517536349       51.59930041665204       38.03915686150410
C           37.74693318354910       51.29132170016597       36.86166812546969
C           37.07573789071087       52.26938176471758       36.15049432981702
C           37.05837617724730       53.57461959374213       36.61019333828236
C           37.71709627634672       53.89303728943995       37.78487703464129
C           38.39000801557507       52.91276747698321       38.49145781629986
C           40.11072698398939       49.71149326150591       38.03455411419907
C           41.26074220741652       50.54164083565553       37.43694676275151
C           41.87910133500531       51.40552890123602       38.50312551056789
C           41.74248419190577       52.78585023884636       38.42930227306993
C           42.22175243967988       53.60055818887847       39.43799623832896
C           42.85164883881537       53.04604900415936       40.53882937218138
C           43.00627981871510       51.67376680139283       40.61640473903011
C           42.52799918798556       50.86130079929742       39.60482355128392
C           42.26598872703911       49.59005618991602       36.77188744539244
C           43.57912291613778       50.23867100448521       36.31650488856840
C           43.33689346886646       51.44242188659897       35.44478335267090
C           43.81481812277245       52.68886694449617       35.82814346043747
C           43.60653169906027       53.80381214219670       35.03558182669838
C           42.91540472399161       53.68756359270535       33.84232150099739
C           42.43687728782191       52.44943564040631       33.44829243691732
C           42.64742748002335       51.33705585488583       34.24266448895126
C           44.43840074689847       49.19394964266285       35.57870748672259
C           45.20461155466199       48.26436553563153       36.53970869524379
C           45.32736616043668       46.86532345383004       35.99018940087857
C           45.85022899714181       46.64284546627204       34.72112466204623
C           45.99902075445323       45.35806151436557       34.23176236805276
C           45.62672551773552       44.27090782793942       35.00453134505031
C           45.09942747797503       44.47942823129451       36.26622274105895
C           44.95317790821839       45.76674914817825       36.75273833209171
C           46.60305931197475       48.83412250175164       36.81062869566465
C           47.32656891850012       48.15588521161249       37.98633283782102
C           46.71277204057918       48.59480972756604       39.28952063130338
C           45.99824882439577       47.69282471576507       40.06753947179521
C           45.40452905871790       48.09172337490728       41.25201020822134
C           45.53295596229692       49.39765933255094       41.69174390738529
C           46.24128235943960       50.30748891672577       40.92442641875647
C           46.81521979742719       49.91018534079662       39.73026994753074
C           48.82283110829950       48.48860994536535       37.87492730478936
C           49.66077127894624       48.17772110220110       39.12216553891479
C           49.56836671997293       46.71952877130078       39.50285004563496
C           49.99956427550428       45.71546357283598       38.64264755563898
C           49.95337207254436       44.38659201712736       39.02390850799581
C           49.47941782005419       44.03665158185178       40.27780442209166
C           49.03964232171165       45.02639814918943       41.13914898789650
C           49.08430013445913       46.35444381064101       40.75172912022077
C           51.13670054769807       48.56166622282623       38.89194676982381
C           51.56588446391497       49.97106553012926       39.35409444649540
C           51.58297882682036       50.03607537810834       40.86368930732063
C           50.48506452723447       50.43377589886864       41.61654414575894
C           50.55106845293887       50.48282330129015       42.99898970743256
C           51.72057835982456       50.14165215858936       43.65467843947913
C           52.82160746238524       49.74264411691923       42.91789467234819
C           52.74770286373850       49.68383482738618       41.53864508302397
C           50.76262090312627       51.12941486513897       38.75247380409616
C           50.98939110737137       51.32880308693161       37.24220602619458
H           33.97685274104457       52.89290607471987       47.19575227777437
H           31.84577079684179       52.15174114647591       48.34267169982481
H           32.05837061784200       50.56374850200259       47.61618342159263
H           34.26299833504007       50.33228199374078       48.73240438202861
H           33.31148573892992       50.51182057899796       51.19502830944251
H           31.80106717914584       50.93728097383557       50.40011266362378
H           32.05865895172514       48.79791518299565       49.02365494403199
H           34.54159920358304       48.69814885549237       50.48579714683274
H           33.56822377460342       47.34392241458413       51.03429243762675
H           33.86276784126361       47.86292518318156       48.07210799841769
H           33.33800994441463       45.45748002709878       49.83773121389713
H           31.44529737222093       46.67347833005243       48.63506423209470
H           32.57524455285292       47.20831855972639       46.54321743570363
H           32.89897123849042       45.51162872421182       46.21920725434824
H           30.49427672660741       45.05247297890068       46.00439662490094
H           31.52215270192073       47.38616946215609       44.34719296557386
H           31.86529869674714       45.68038347657484       44.05995476681863
H           29.22536807881662       47.16536722481002       43.76188921995593
H           30.80183652627906       45.41947612472585       41.82423545897653
H           29.30347715012649       46.25419224661773       41.46598609799997
H           31.91882234417619       47.59386171466418       42.26064038237485
H           31.99036973748485       49.48122284363406       39.84681799990509
H           33.50320001591938       48.81049368540315       41.60562501956510
H           34.17703582188482       47.50893890097607       40.62579359058498
H           35.15113936645116       49.13883710404266       39.07652535194723
H           35.72743930842316       49.82364166624630       41.99329927899939
H           36.40234919553210       48.43598341514529       41.14168742840236
H           36.74630808670600       51.21223534816597       40.00110141180689
H           38.56552216353801       48.76709296445873       39.96314524053030
H           37.41764965325155       49.20598391211274       38.69972568343169
H           39.65546528178283       51.02462034235358       39.66440654782160
H           40.53051373468379       48.95330736288238       38.69874016799182
H           39.59463354256944       49.18763755765293       37.22738460785167
H           40.84769024085108       51.20410855022305       36.66807452648187
H           42.52029303077796       48.78970896332406       37.46560390304821
H           41.77537594652573       49.13087655875643       35.91030904394454
H           44.12525879945591       50.57283185863195       37.20568494318603
H           43.79271446453420       48.59527400760696       34.93292625179986
H           45.15377693106513       49.71292043851234       34.93686221133461
H           44.66520047328640       48.21041958297000       37.49044085920370
H           47.20833134222011       48.71540485689966       35.90948214587694
H           46.52183261800787       49.90502321322442       37.01113600164167
H           47.20524096253759       47.07056562492168       37.89830586721788
H           49.22140200915251       47.92537876379055       37.02771523307108
H           48.92267446981592       49.54508433522642       37.63244663476697
H           49.27175662346851       48.75745865863266       39.96301410342705
H           51.76849336891225       47.85106022118696       39.43253142080069
H           51.36689693639751       48.45236556337191       37.82996730750119
H           36.03388955445216       52.07228560090316       46.57815488781300
H           37.44431730740748       50.48901488664796       45.32855502839020
H           36.42346293144274       48.61102432282330       44.11216225530362
H           33.96290142893360       48.34526982698624       44.11595457658286
H           32.55683308138855       49.93646542831366       45.34542497163479
H           32.52117459863899       53.36001403242621       50.15421782252823
H           33.73838161305999       55.29160790521622       51.01834782808329
H           36.21594402520038       55.29171547755729       51.05305254592425
H           37.44206259091634       53.34413934177601       50.17512478730666
H           36.22006441853519       51.41370106655116       49.27754174878289
H           32.51213645665109       48.85047829984896       52.75571281699749
H           30.72983374130795       48.19915056656244       54.31078166087218
H           28.54132637471093       47.44694535097968       53.44985166420879
H           28.13430366205456       47.42487993209730       51.01002050118587
H           29.89518239876917       48.11613516955882       49.46200207175420
H           35.68899939540138       45.88741086778913       50.71470047088490
H           38.10444825196941       45.45594704153726       50.56921996745976
H           39.42157637775525       46.39356423742672       48.70912885260879
H           38.29820508017956       47.76685628378362       46.97895031559919
H           35.89153726930131       48.18194768261064       47.11925463009857
H           34.08357402565624       45.21952360535381       48.25888924502168
H           32.62752943714026       43.42569789585529       47.11348507538288
H           31.51236844935897       41.29628078871060       47.58696650429015
H           29.63673700787201       41.19998982750684       49.18376823645698
H           28.87296891368430       43.26786860008992       50.29823761818477
H           29.97519929277982       45.40903067648973       49.80727965931941
H           30.84759720355025       48.80884247031331       46.06069106319367
H           29.12254329815380       50.27273789093476       47.00322385378892
H           27.06710774923522       49.30257172764311       47.96506130384883
H           26.76054606890384       46.85116900757661       47.97218270287044
H           28.49694753872245       45.38741927236994       47.03161888263878
H           30.73599314065726       43.71460841881876       43.77665171318753
H           29.41961129881052       41.70660670830434       44.23677885191444
H           26.96975843076613       41.86349419477315       44.52349099632698
H           25.86036452509252       44.06161938755660       44.34975019528910
H           27.19099881381910       46.08390654728607       43.92118647883319
H           31.72181992550106       49.75079614085679       43.06421782311856
H           30.49233149559456       51.85624766778066       43.31643124854923
H           28.30277029517185       52.15126363268065       42.21701325163883
H           27.36676623215899       50.32124170862132       40.85109958730423
H           28.60318189211744       48.22376132935030       40.58334781156908
H           31.98015571698581       46.43692559939026       40.05512837191136
H           30.63650912148979       47.42800308718412       39.50958124619928
H           31.79180728968939       50.07988104890623       37.63988783818948
H           32.32523855117491       49.77786615645962       35.25886591935916
H           33.66986572952614       47.84059870603973       34.52625768315170
H           34.46007008800341       46.20003568648800       36.19729029549875
H           33.91129187034085       46.49236566130094       38.56012800561130
H           33.74525354786491       51.08419633832198       41.99973896917221
H           32.92307104639105       53.37569452696424       41.76613006965329
H           33.03030685373236       54.52030186662019       39.58292668364384
H           33.96798931289909       53.33522217831415       37.62664745195801
H           34.76980321936703       51.02956929965247       37.85306942424602
H           36.95588937534552       52.75303532243817       41.64975064031687
H           38.12753566128034       53.66037345489983       43.60879380341804
H           39.83938976716986       52.30791809970875       44.76038389932494
H           40.32021906929713       50.01254874291183       43.96434144897304
H           39.13126234022143       49.09878049368944       42.04340663303698
H           37.74311199990294       50.27579630974922       36.49196869545241
H           36.56037237995487       52.01102453688173       35.23616834404896
H           36.53353211654473       54.33882124485890       36.05557899336646
H           37.70521073455595       54.90875062752571       38.15330232066194
H           38.89883903726419       53.16445705278078       39.41151983636806
H           41.24288884270931       53.22330312022281       37.57626734594917
H           42.08471105171839       54.67033643066124       39.36607341245985
H           43.21847633997616       53.67534113165225       41.33518048089329
H           43.49334341597624       51.23531223216563       41.47404733270261
H           42.65876198104084       49.79210258281569       39.68501151936080
H           44.35521180227823       52.78640630665071       36.75910239232759
H           43.98623205880513       54.76591450662811       35.34973761784269
H           42.75101059604138       54.55590151180132       33.22115458287686
H           41.89788070656567       52.35089670476923       32.51691978288164
H           42.27195004321495       50.37654921888942       33.92148345066761
H           46.14331058986946       47.48304210297334       34.10825276526793
H           46.40980036952648       45.20324689016977       33.24427417627154
H           45.74723281852874       43.26668381841169       34.62554638426722
H           44.80133678306548       43.63807976657183       36.87454161535150
H           44.53723298778072       45.91859293928621       37.73783494633999
H           45.91041255360261       46.66598260690088       39.74115935560554
H           44.84376116758857       47.37939736227616       41.83991862132120
H           45.08648170395143       49.70613889033511       42.62733797997322
H           46.33285114191371       51.33236913015212       41.25605243817007
H           47.34913017299723       50.63363726952079       39.12894959900780
H           50.38243985740014       45.97176676787600       37.66534301127136
H           50.29806824327501       43.61986800605917       38.34462947837886
H           49.46071813248436       42.99973345294799       40.58260901548708
H           48.66582161778557       44.77153489402414       42.12057292192536
H           48.74205267754692       47.11835433762388       41.43425705151617
H           53.60973169188225       49.36465747431192       40.96724865032434
H           53.74106773401119       49.49039076116075       43.42404551459004
H           51.78031851526827       50.18657377979841       44.73243355689046
H           49.68314912406654       50.79690505765908       43.56201396092095
H           49.56183209337168       50.71395410701175       41.13219103776446
H           31.58280858102247       52.04406576937188       45.50069714504090
H           31.81235384191731       53.58064307810382       46.33478051855023
H           32.84178311770122       53.16203741044287       44.96433403143782
H           52.60619682366142       50.08965158761509       39.02620942096934
H           49.70079342857542       50.97924790091918       38.94184541990763
H           51.06497561229861       52.04198997196866       39.27311642523953
C           52.18912146741379       52.25264879064194       36.99828111798541
C           49.75214137503288       51.88004413599062       36.57727114602438
C           49.14559186778185       53.04346606427753       37.03606207576190
C           47.99881062198494       53.52925108197025       36.43375819075734
C           47.43504292399711       52.85649407668585       35.36294677668941
C           48.03758081400122       51.70394713980853       34.88938151521236
C           49.18812091901376       51.22359563517539       35.48955382546492
H           49.57007926138589       53.57854582758895       37.87234143573368
H           47.54230093441176       54.43405325240362       36.80768909703582
H           46.53244343146384       53.22655333499458       34.89967639708892
H           47.60889164542142       51.17819699955475       34.04826376753725
H           49.65789593743232       50.32721286142750       35.10790252407054
C           52.51702154154813       52.42241491491605       35.51548319172483
H           51.97491135014386       53.23986886906583       37.41430701929072
H           53.05841116784381       51.86987104274772       37.53529385470600
C           52.85267652123972       51.15907840591044       34.76698379669499
C           52.59225200080183       51.08964641473783       33.40246989503508
C           52.95052361296575       49.97796817112420       32.66144152014327
C           53.57429939862598       48.90447819570011       33.27325620471737
C           53.81943927655340       48.95059920369433       34.63338655983716
C           53.46610029764894       50.06769224520653       35.37088198175190
H           52.10648641558833       51.92450002660627       32.91623323022412
H           52.74754731762116       49.94962963602210       31.60086232248289
H           53.86450054795149       48.04038700891039       32.69519461995729
H           54.29994770050007       48.11451374952438       35.12150019321162
H           53.67258145774755       50.08465840521873       36.43038378199752
H           51.20650038292796       50.36073675211415       36.78227256674713
H           51.67183075764299       52.90665332164315       35.01957745156254
H           53.37223164930858       53.10323598574684       35.43519202146037
C           65.96510463877844       38.95545096905541       44.60587525279158
C           65.34714476872544       37.75415298799576       44.27461624913592
C           65.30725098115785       37.38302427637035       42.93603887220498
C           65.87453121166041       38.18042470150569       41.95666536631492
C           66.48669349401548       39.37327351314549       42.30082925762859
C           66.52445390227116       39.76102113332567       43.62984498591035
C           64.78325958193578       36.83770281388975       45.33356007958915
C           65.93609396166384       36.20229566428162       46.11714407201226
C           63.82448858050069       37.56005288198365       46.28566387330061
C           62.56948036876753       38.06643225641164       45.56875065673561
C           61.61110067206706       36.96101885255532       45.19653223209607
C           61.21223798473386       35.99564503388518       46.11482401714661
C           60.27236194103551       35.03819086628879       45.77501484722990
C           59.70294869275817       35.03581718341560       44.51267614356815
C           60.08803508152785       35.99408131771693       43.59077383254608
C           61.03440146847858       36.94513786501864       43.93156912771447
C           61.80903641246186       39.07832683440932       46.44170234766022
C           62.51890569264365       40.44053105540129       46.57086084078622
C           62.81634775125217       40.77127829232410       48.01237154861380
C           61.80805009538531       40.78988585172579       48.97056282679763
C           62.09517080223843       41.05775684676068       50.29713593864308
C           63.39979548749098       41.31262014236349       50.68729614818666
C           64.40772266208229       41.32641920512285       49.73949600262266
C           64.11450090048321       41.06137259826891       48.41319535148193
C           61.69087477886492       41.56694616127405       45.93093773782926
C           61.73094646354576       41.54074596089906       44.39209712393084
C           60.58141959943502       42.33737449828596       43.82824295304727
C           60.33247820423239       43.64399051240876       44.22933855067360
C           59.23684653779006       44.33617816790202       43.74418172317538
C           58.37298544207040       43.73280403000916       42.84583709304516
C           58.62440647595459       42.44260407428812       42.41520745224387
C           59.72080764597604       41.75557276343487       42.90396566214235
C           63.08853423379067       42.05628358589476       43.88518194579450
C           63.12105228149545       42.40767791064845       42.39181260757061
C           62.55026074435991       41.32264180408284       41.51310554386590
C           61.64012745354382       41.64452770862290       40.51289242209044
C           61.11983754138286       40.66944902425714       39.68099173884394
C           61.49872849559161       39.34778103811966       39.84128442672631
C           62.40586436273300       39.01452422803943       40.83337352807243
C           62.92910527464591       39.99394305084662       41.65886728293999
C           64.56137304534779       42.70518406349487       41.93212184240024
C           65.28001750612438       43.80221858882445       42.73316899419997
C           66.69059800387174       43.99244252801672       42.22970066750744
C           66.94596588920668       44.48254906746818       40.95419220867799
C           68.24212917222681       44.71291005361329       40.53083270940930
C           69.30816579923339       44.45323243689935       41.37510087713922
C           69.06859221316864       43.95184160336642       42.64242507513922
C           67.77013926732596       43.72210588618823       43.06159394474722
C           64.53047437768176       45.14106952323935       42.69346262840646
C           65.23763319983064       46.20477150181993       43.54235963489692
C           65.41644624015770       45.72092512197986       44.96319359927238
C           64.32472175783919       45.31539153170594       45.72629323634128
C           64.48749832459434       44.87838090594072       47.02820518899686
C           65.74726273421456       44.86098343503497       47.60285463517038
C           66.83966715268885       45.27324086145740       46.86010805429374
C           66.67507046417299       45.68963761433128       45.54986727304610
C           64.47192475030913       47.53548718383051       43.58156916808956
C           64.19695209342973       48.17947571373841       42.21711708612941
C           65.47416479483773       48.52553924553458       41.49381529257843
C           65.78226973129422       47.93062310039862       40.27777060967093
C           66.95314394580146       48.24713131082483       39.61107608898755