      -----------------------------------------------------------      
     |                   =====================                   |     
     |                           x T B                           |     
     |                   =====================                   |     
     |                         S. Grimme                         |     
     |          Mulliken Center for Theoretical Chemistry        |     
     |                    University of Bonn                     |     
      -----------------------------------------------------------      

   * xtb version 6.6.1 (8d0f1dd) compiled by 'stahn@M-Bot' on 2023-08-01

   xtb is free software: you can redistribute it and/or modify it under
   the terms of the GNU Lesser General Public License as published by
   the Free Software Foundation, either version 3 of the License, or
   (at your option) any later version.
   
   xtb is distributed in the hope that it will be useful,
   but WITHOUT ANY WARRANTY; without even the implied warranty of
   MERCHANTABILITY or FITNESS FOR A PARTICULAR PURPOSE.  See the
   GNU Lesser General Public License for more details.
   
   Cite this work as:
   * C. Bannwarth, E. Caldeweyher, S. Ehlert, A. Hansen, P. Pracht,
     J. Seibert, S. Spicher, S. Grimme, WIREs Comput. Mol. Sci., 2020, 11,
     e01493. DOI: 10.1002/wcms.1493
   
   for GFN2-xTB:
   * C. Bannwarth, S. Ehlert and S. Grimme., J. Chem. Theory Comput., 2019,
     15, 1652-1671. DOI: 10.1021/acs.jctc.8b01176
   for GFN1-xTB:
   * S. Grimme, C. Bannwarth, P. Shushkov, J. Chem. Theory Comput., 2017,
     13, 1989-2009. DOI: 10.1021/acs.jctc.7b00118
   for GFN0-xTB:
   * P. Pracht, E. Caldeweyher, S. Ehlert, S. Grimme, ChemRxiv, 2019, preprint.
     DOI: 10.26434/chemrxiv.8326202.v1
   for GFN-FF:
   * S. Spicher and S. Grimme, Angew. Chem. Int. Ed., 2020, 59, 15665-15673.
     DOI: 10.1002/anie.202004239
   
   for ALPB and GBSA implicit solvation:
   * S. Ehlert, M. Stahn, S. Spicher, S. Grimme, J. Chem. Theory Comput.,
     2021, 17, 4250-4261. DOI: 10.1021/acs.jctc.1c00471
   
   for DFT-D4:
   * E. Caldeweyher, C. Bannwarth and S. Grimme, J. Chem. Phys., 2017,
     147, 034112. DOI: 10.1063/1.4993215
   * E. Caldeweyher, S. Ehlert, A. Hansen, H. Neugebauer, S. Spicher,
     C. Bannwarth and S. Grimme, J. Chem. Phys., 2019, 150, 154122.
     DOI: 10.1063/1.5090222
   * E. Caldeweyher, J.-M. Mewes, S. Ehlert and S. Grimme, Phys. Chem. Chem. Phys.
     2020, 22, 8499-8512. DOI: 10.1039/D0CP00502A
   
   for sTDA-xTB:
   * S. Grimme and C. Bannwarth, J. Chem. Phys., 2016, 145, 054103.
     DOI: 10.1063/1.4959605
   
   in the mass-spec context:
   * V. Asgeirsson, C. Bauer and S. Grimme, Chem. Sci., 2017, 8, 4879.
     DOI: 10.1039/c7sc00601b
   * J. Koopman and S. Grimme, ACS Omega 2019, 4, 12, 15120-15133.
     DOI: 10.1021/acsomega.9b02011
   
   for metadynamics refer to:
   * S. Grimme, J. Chem. Theory Comput., 2019, 155, 2847-2862
     DOI: 10.1021/acs.jctc.9b00143
   
   for SPH calculations refer to:
   * S. Spicher and S. Grimme, J. Chem. Theory Comput., 2021, 17, 1701-1714
     DOI: 10.1021/acs.jctc.0c01306
   
   with help from (in alphabetical order)
   P. Atkinson, C. Bannwarth, F. Bohle, G. Brandenburg, E. Caldeweyher
   M. Checinski, S. Dohm, S. Ehlert, S. Ehrlich, I. Gerasimov, C. Hölzer
   A. Katbashev, J. Koopman, C. Lavigne, S. Lehtola, F. März, M. Müller,
   F. Musil, H. Neugebauer, J. Pisarek, C. Plett, P. Pracht, F. Pultar,
   J. Seibert, P. Shushkov, S. Spicher, M. Stahn, M. Steiner, T. Strunk,
   J. Stückrath, T. Rose, and J. Unsleber
   
 * started run on 2024/10/04 at 20:27:02.238     

           -------------------------------------------------
          |                Calculation Setup                |
           -------------------------------------------------

          program call               : /home/abt-grimme/AK-bin/xtb input.xyz --input input.inp --opt
          hostname                   : boar082.thch.uni-bonn.de
          coordinate file            : input.xyz
          omp threads                :                     8

   ID    Z sym.   atoms
    1    6 C      1-146, 294-300, 306, 309-314, 323-468, 616-622, 628,
                  631-636, 645-790, 938-944, 950, 953-958, 967-1112,
                  1260-1266, 1272, 1275-1280, 1289-1434, 1582-1588, 1594,
                  1597-1602, 1611-1756, 1904-1910, 1916, 1919-1924,
                  1933-2078, 2226-2232, 2238, 2241-2246, 2255-2400,
                  2548-2554, 2560, 2563-2568, 2577-2722, 2870-2876, 2882,
                  2885-2890, 2899-3044, 3192-3198, 3204, 3207-3212,
                  3221-3366, 3514-3520, 3526, 3529-3534, 3543-3688,
                  3836-3842, 3848, 3851-3856
    2    1 H      147-293, 301-305, 307, 308, 315-322, 469-615, 623-627, 629,
                  630, 637-644, 791-937, 945-949, 951, 952, 959-966,
                  1113-1259, 1267-1271, 1273, 1274, 1281-1288, 1435-1581,
                  1589-1593, 1595, 1596, 1603-1610, 1757-1903, 1911-1915,
                  1917, 1918, 1925-1932, 2079-2225, 2233-2237, 2239, 2240,
                  2247-2254, 2401-2547, 2555-2559, 2561, 2562, 2569-2576,
                  2723-2869, 2877-2881, 2883, 2884, 2891-2898, 3045-3191,
                  3199-3203, 3205, 3206, 3213-3220, 3367-3513, 3521-3525,
                  3527, 3528, 3535-3542, 3689-3835, 3843-3847, 3849, 3850,
                  3857-3864

molecular fragmentation (1/2 indicates fragments):
111111111111111111111111111111111111111111111111111111111111111111111111
111111111111111111111111111111111111111111111111111111111111111111111111
111111111111111111111111111111111111111111111111111111111111111111111111
111111111111111111111111111111111111111111111111111111111111111111111111
111111111111111111111111111111111122222222222222222222222222222222222222
222222222222222222222222222222222222222222222222222222222222222222222222
222222222222222222222222222222222222222222222222222222222222222222222222
222222222222222222222222222222222222222222222222222222222222222222222222
222222222222222222222222222222222222222222222222222222222222222222222222
222222222222222222222222222222222222222222222222222222222222222222222222
222222222222222222222222222222222222222222222222222222222222222222222222
222222222222222222222222222222222222222222222222222222222222222222222222
222222222222222222222222222222222222222222222222222222222222222222222222
222222222222222222222222222222222222222222222222222222222222222222222222
222222222222222222222222222222222222222222222222222222222222222222222222
222222222222222222222222222222222222222222222222222222222222222222222222
222222222222222222222222222222222222222222222222222222222222222222222222
222222222222222222222222222222222222222222222222222222222222222222222222
222222222222222222222222222222222222222222222222222222222222222222222222
222222222222222222222222222222222222222222222222222222222222222222222222
222222222222222222222222222222222222222222222222222222222222222222222222
222222222222222222222222222222222222222222222222222222222222222222222222
222222222222222222222222222222222222222222222222222222222222222222222222
222222222222222222222222222222222222222222222222222222222222222222222222
222222222222222222222222222222222222222222222222222222222222222222222222
222222222222222222222222222222222222222222222222222222222222222222222222
222222222222222222222222222222222222222222222222222222222222222222222222
222222222222222222222222222222222222222222222222222222222222222222222222
222222222222222222222222222222222222222222222222222222222222222222222222
222222222222222222222222222222222222222222222222222222222222222222222222
222222222222222222222222222222222222222222222222222222222222222222222222
222222222222222222222222222222222222222222222222222222222222222222222222
222222222222222222222222222222222222222222222222222222222222222222222222
222222222222222222222222222222222222222222222222222222222222222222222222
222222222222222222222222222222222222222222222222222222222222222222222222
222222222222222222222222222222222222222222222222222222222222222222222222
222222222222222222222222222222222222222222222222222222222222222222222222
222222222222222222222222222222222222222222222222222222222222222222222222
222222222222222222222222222222222222222222222222222222222222222222222222
222222222222222222222222222222222222222222222222222222222222222222222222
222222222222222222222222222222222222222222222222222222222222222222222222
222222222222222222222222222222222222222222222222222222222222222222222222
222222222222222222222222222222222222222222222222222222222222222222222222
222222222222222222222222222222222222222222222222222222222222222222222222
222222222222222222222222222222222222222222222222222222222222222222222222
222222222222222222222222222222222222222222222222222222222222222222222222
222222222222222222222222222222222222222222222222222222222222222222222222
222222222222222222222222222222222222222222222222222222222222222222222222
222222222222222222222222222222222222222222222222222222222222222222222222
222222222222222222222222222222222222222222222222222222222222222222222222
222222222222222222222222222222222222222222222222222222222222222222222222
222222222222222222222222222222222222222222222222222222222222222222222222
222222222222222222222222222222222222222222222222222222222222222222222222
222222222222222222222222222222222222222222222222
# atoms in fragment 1/2:   322  3542
 fragment masses (1/2) :     2085.00    22935.05
CMA distance (Bohr)    :  18.740
constraining FC (au)   :  0.0500

           -------------------------------------------------
          |                 G F N 2 - x T B                 |
           -------------------------------------------------

        Reference                      10.1021/acs.jctc.8b01176
      * Hamiltonian:
        H0-scaling (s, p, d)           1.850000    2.230000    2.230000
        zeta-weighting                 0.500000
      * Dispersion:
        s8                             2.700000
        a1                             0.520000
        a2                             5.000000
        s9                             5.000000
      * Repulsion:
        kExp                           1.500000    1.000000
        rExp                           1.000000
      * Coulomb:
        alpha                          2.000000
        third order                    shell-resolved
        anisotropic                    true
        a3                             3.000000
        a5                             4.000000
        cn-shift                       1.200000
        cn-exp                         4.000000
        max-rad                        5.000000


          ...................................................
          :                      SETUP                      :
          :.................................................:
          :  # basis functions                9624          :
          :  # atomic orbitals                9624          :
          :  # shells                         5784          :
          :  # electrons                      9624          :
          :  max. iterations                   250          :
          :  Hamiltonian                  GFN2-xTB          :
          :  restarted?                      false          :
          :  GBSA solvation                  false          :
          :  PC potential                    false          :
          :  electronic temp.          300.0000000     K    :
          :  accuracy                    1.0000000          :
          :  -> integral cutoff          0.2500000E+02      :
          :  -> integral neglect         0.1000000E-07      :
          :  -> SCF convergence          0.1000000E-05 Eh   :
          :  -> wf. convergence          0.1000000E-03 e    :
          :  Broyden damping             0.4000000          :
          ...................................................

 iter      E             dE          RMSdq      gap      omega  full diag
   1  -5195.7183175 -0.519572E+04  0.368E+00    4.32       0.0  T
   2  -5198.2928569 -0.257454E+01  0.217E+00    4.27       1.0  T
   3  -5198.2120647  0.807922E-01  0.496E-01    4.14       1.0  T
   4  -5198.4181525 -0.206088E+00  0.244E-01    3.97       1.0  T
   5  -5198.5788831 -0.160731E+00  0.474E-02    4.09       1.0  T
   6  -5198.5815841 -0.270099E-02  0.295E-02    4.07       1.0  T
   7  -5198.5830209 -0.143672E-02  0.114E-02    4.09       1.0  T
   8  -5198.5833249 -0.304035E-03  0.296E-03    4.08       1.0  T
   9  -5198.5833426 -0.177133E-04  0.127E-03    4.08       1.3  T
  10  -5198.5833444 -0.177529E-05  0.569E-04    4.08       2.8  T
  11  -5198.5833448 -0.432303E-06  0.296E-04    4.08       5.4  T
  12  -5198.5833450 -0.169188E-06  0.102E-04    4.08      15.8  T

   *** convergence criteria satisfied after 12 iterations ***

         #    Occupation            Energy/Eh            Energy/eV
      -------------------------------------------------------------
         1        2.0000           -0.6519217             -17.7397
       ...           ...                  ...                  ...
      4806        2.0000           -0.3825306             -10.4092
      4807        2.0000           -0.3821241             -10.3981
      4808        2.0000           -0.3821240             -10.3981
      4809        2.0000           -0.3812704             -10.3749
      4810        2.0000           -0.3808676             -10.3639
      4811        2.0000           -0.3807346             -10.3603
      4812        2.0000           -0.3791716             -10.3178 (HOMO)
      4813                         -0.2290883              -6.2338 (LUMO)
      4814                         -0.2282382              -6.2107
      4815                         -0.2278818              -6.2010
      4816                         -0.2278376              -6.1998
      4817                         -0.2273494              -6.1865
       ...                                ...                  ...
      9624                          0.6832616              18.5925
      -------------------------------------------------------------
                  HL-Gap            0.1500833 Eh            4.0840 eV
             Fermi-level           -0.3041300 Eh           -8.2758 eV

 SCC (total)                   0 d,  0 h, 48 min, 10.354 sec
 SCC setup                      ...        0 min,  0.720 sec (  0.025%)
 Dispersion                     ...        0 min,  6.852 sec (  0.237%)
 classical contributions        ...        0 min,  0.165 sec (  0.006%)
 integral evaluation            ...        0 min, 12.479 sec (  0.432%)
 iterations                     ...       42 min, 12.285 sec ( 87.612%)
 molecular gradient             ...        5 min, 10.802 sec ( 10.753%)
 printout                       ...        0 min, 27.051 sec (  0.936%)

         :::::::::::::::::::::::::::::::::::::::::::::::::::::
         ::                     SUMMARY                     ::
         :::::::::::::::::::::::::::::::::::::::::::::::::::::
         :: total energy           -5104.085322255495 Eh    ::
         :: gradient norm              0.026924669168 Eh/a0 ::
         :: HOMO-LUMO gap              4.083975522443 eV    ::
         ::.................................................::
         :: SCC energy             -5198.583344978569 Eh    ::
         :: -> isotropic ES            0.265539206973 Eh    ::
         :: -> anisotropic ES          0.771114293360 Eh    ::
         :: -> anisotropic XC          3.255383437320 Eh    ::
         :: -> dispersion             -7.021227251140 Eh    ::
         :: repulsion energy          93.353733136605 Eh    ::
         :: add. restraining           0.000000000000 Eh    ::
         :: total charge              -0.000000000030 e     ::
         :::::::::::::::::::::::::::::::::::::::::::::::::::::

      ----------------------------------------------------------- 
     |              Fast Inertial Relaxation Engine              |
      ----------------------------------------------------------- 

          ...................................................
          :                      SETUP                      :
          :.................................................:
          :   energy convergence        0.5000000E-05 Eh    :
          :   grad. convergence         0.1000000E-02 Eh/a0 :
          :   optimization log               true           :
          :   writing optlog all                1     steps :
          :   Hessian reset                    20     steps :
          :   time step scaling                 5     steps :
          :   maximium step len.        1.0000000     a0    :
          :   initial time step         0.2500000     fs    :
          :   maximum time step         1.2500000     fs    :
          :   power reset thr           0.0000000     au    :
          :   alpha parameter           0.1000000           :
          :   BFGS update                   false           :
          :   preconditioning               false           :
          ...................................................

........................................................................
.............................. CYCLE    1 ..............................
........................................................................

 iter      E             dE          RMSdq      gap      omega  full diag
   1  -5198.5844375 -0.519858E+04  0.368E-04    4.08       0.0  T
   2  -5198.5844375 -0.200862E-07  0.226E-04    4.08       7.1  T
   3  -5198.5844375  0.405180E-07  0.966E-05    4.08      16.7  T
     SCC iter.                  ...       10 min, 36.286 sec
     gradient                   ...        5 min,  6.356 sec
 * total energy  : -5104.0854047 Eh     change    :  -0.8240828E-04 Eh
   gradient norm :     0.0253137 Eh/a0  converged?    E=F G=F D=F
   time step     :     0.2500000 fs     power     :   0.4236328E-08
   step length   :     0.0031555 a0     speed     :   0.3053129E-03

........................................................................
.............................. CYCLE    2 ..............................
........................................................................

 iter      E             dE          RMSdq      gap      omega  full diag
   1  -5198.5860620 -0.519859E+04  0.542E-04    4.08       0.0  T
   2  -5198.5860620 -0.385544E-07  0.331E-04    4.08       4.9  T
   3  -5198.5860619  0.537202E-07  0.115E-04    4.08      14.0  T
     SCC iter.                  ...       10 min, 38.119 sec
     gradient                   ...        5 min,  7.004 sec
 * total energy  : -5104.0855165 Eh     change    :  -0.1118781E-03 Eh
   gradient norm :     0.0230354 Eh/a0  converged?    E=F G=F D=F
   time step     :     0.2500000 fs     power     :   0.5647209E-08
   step length   :     0.0046380 a0     speed     :   0.4487495E-03

........................................................................
.............................. CYCLE    3 ..............................
........................................................................

 iter      E             dE          RMSdq      gap      omega  full diag
   1  -5198.5882155 -0.519859E+04  0.698E-04    4.08       0.0  T
   2  -5198.5882155 -0.593254E-07  0.426E-04    4.08       3.8  T
   3  -5198.5882154  0.837836E-07  0.140E-04    4.08      11.5  T
     SCC iter.                  ...       10 min, 38.551 sec
     gradient                   ...        5 min,  8.873 sec
 * total energy  : -5104.0856452 Eh     change    :  -0.1286590E-03 Eh
   gradient norm :     0.0203136 Eh/a0  converged?    E=F G=F D=F
   time step     :     0.2500000 fs     power     :   0.6363548E-08
   step length   :     0.0059826 a0     speed     :   0.5788469E-03

........................................................................
.............................. CYCLE    4 ..............................
........................................................................

 iter      E             dE          RMSdq      gap      omega  full diag
   1  -5198.5908995 -0.519859E+04  0.835E-04    4.08       0.0  T
   2  -5198.5908996 -0.784912E-07  0.511E-04    4.09       3.1  T
   3  -5198.5908995  0.131868E-06  0.168E-04    4.09       9.6  T
     SCC iter.                  ...       10 min, 37.648 sec
     gradient                   ...        5 min,  9.131 sec
 * total energy  : -5104.0857774 Eh     change    :  -0.1321676E-03 Eh
   gradient norm :     0.0174405 Eh/a0  converged?    E=F G=F D=F
   time step     :     0.2500000 fs     power     :   0.6384039E-08
   step length   :     0.0071548 a0     speed     :   0.6922678E-03

........................................................................
.............................. CYCLE    5 ..............................
........................................................................

 iter      E             dE          RMSdq      gap      omega  full diag
   1  -5198.5941181 -0.519859E+04  0.948E-04    4.08       0.0  T
   2  -5198.5941182 -0.929376E-07  0.583E-04    4.09       2.8  T
   3  -5198.5941180  0.204940E-06  0.200E-04    4.09       8.0  T
     SCC iter.                  ...       10 min, 35.002 sec
     gradient                   ...        5 min,  8.473 sec
 * total energy  : -5104.0859014 Eh     change    :  -0.1239838E-03 Eh
   gradient norm :     0.0147736 Eh/a0  converged?    E=F G=F D=F
   time step     :     0.2500000 fs     power     :   0.5829246E-08
   step length   :     0.0081272 a0     speed     :   0.7863547E-03

........................................................................
.............................. CYCLE    6 ..............................
........................................................................

 iter      E             dE          RMSdq      gap      omega  full diag
   1  -5198.5982928 -0.519860E+04  0.115E-03    4.09       0.0  T
   2  -5198.5982929 -0.123951E-06  0.711E-04    4.09       2.3  T
   3  -5198.5982925  0.417747E-06  0.274E-04    4.09       5.9  T
     SCC iter.                  ...       10 min, 37.640 sec
     gradient                   ...        5 min,  5.738 sec
 * total energy  : -5104.0860194 Eh     change    :  -0.1180098E-03 Eh
   gradient norm :     0.0124897 Eh/a0  converged?    E=F G=F D=F
   time step     :     0.2750000 fs     power     :   0.4793155E-08
   step length   :     0.0098531 a0     speed     :   0.8666758E-03

........................................................................
.............................. CYCLE    7 ..............................
........................................................................

 iter      E             dE          RMSdq      gap      omega  full diag
   1  -5198.6035883 -0.519860E+04  0.134E-03    4.09       0.0  T
   2  -5198.6035885 -0.150540E-06  0.841E-04    4.09       1.9  T
   3  -5198.6035877  0.771507E-06  0.363E-04    4.09       4.4  T
     SCC iter.                  ...       10 min, 35.559 sec
     gradient                   ...        5 min,  8.405 sec
 * total energy  : -5104.0861212 Eh     change    :  -0.1018346E-03 Eh
   gradient norm :     0.0110446 Eh/a0  converged?    E=F G=F D=F
   time step     :     0.3025000 fs     power     :   0.3488974E-08
   step length   :     0.0115660 a0     speed     :   0.9248517E-03

........................................................................
.............................. CYCLE    8 ..............................
........................................................................

 iter      E             dE          RMSdq      gap      omega  full diag
   1  -5198.6100612 -0.519861E+04  0.151E-03    4.09       0.0  T
   2  -5198.6100614 -0.175572E-06  0.959E-04    4.09       1.7  T
   3  -5198.6100602  0.121362E-05  0.454E-04    4.09       3.5  T
   4  -5198.6100616 -0.139585E-05  0.525E-05    4.09      30.6  T
   5  -5198.6100616 -0.510772E-08  0.261E-05    4.09      61.7  T
     SCC iter.                  ...       17 min, 36.957 sec
     gradient                   ...        5 min,  7.747 sec
 * total energy  : -5104.0862021 Eh     change    :  -0.8095040E-04 Eh
   gradient norm :     0.0103822 Eh/a0  converged?    E=F G=F D=F
   time step     :     0.3327500 fs     power     :   0.2196570E-08
   step length   :     0.0131005 a0     speed     :   0.9523239E-03

........................................................................
.............................. CYCLE    9 ..............................
........................................................................

 iter      E             dE          RMSdq      gap      omega  full diag
   1  -5198.6174917 -0.519862E+04  0.164E-03    4.09       0.0  T
   2  -5198.6174920 -0.218774E-06  0.105E-03    4.09       1.5  T
   3  -5198.6174904  0.159919E-05  0.538E-04    4.09       3.0  T
   4  -5198.6174923 -0.190015E-05  0.553E-05    4.09      29.1  T
   5  -5198.6174923 -0.701766E-08  0.276E-05    4.09      58.4  T
   6  -5198.6174923 -0.119962E-08  0.130E-05    4.09     123.5  T
     SCC iter.                  ...       21 min,  6.477 sec
     gradient                   ...        5 min, 10.083 sec
 * total energy  : -5104.0862590 Eh     change    :  -0.5689440E-04 Eh
   gradient norm :     0.0100270 Eh/a0  converged?    E=F G=F D=F
   time step     :     0.3660250 fs     power     :   0.1122155E-08
   step length   :     0.0143214 a0     speed     :   0.9464362E-03

........................................................................
.............................. CYCLE   10 ..............................
........................................................................

 iter      E             dE          RMSdq      gap      omega  full diag
   1  -5198.6254092 -0.519863E+04  0.172E-03    4.09       0.0  T
   2  -5198.6254094 -0.244780E-06  0.109E-03    4.09       1.5  T
   3  -5198.6254078  0.164995E-05  0.565E-04    4.09       2.8  T
   4  -5198.6254098 -0.199104E-05  0.607E-05    4.09      26.5  T
   5  -5198.6254098 -0.119935E-07  0.260E-05    4.09      61.8  T
   6  -5198.6254098 -0.682121E-09  0.132E-05    4.09     121.8  T
     SCC iter.                  ...       21 min,  7.678 sec
     gradient                   ...        5 min,  9.043 sec
 * total energy  : -5104.0862935 Eh     change    :  -0.3444792E-04 Eh
   gradient norm :     0.0097592 Eh/a0  converged?    E=F G=F D=F
   time step     :     0.4026275 fs     power     :   0.2553817E-09
   step length   :     0.0151874 a0     speed     :   0.9124217E-03

........................................................................
.............................. CYCLE   11 ..............................
........................................................................

 iter      E             dE          RMSdq      gap      omega  full diag
   1  -5198.6330339 -0.519863E+04  0.174E-03    4.09       0.0  T
   2  -5198.6330342 -0.261412E-06  0.108E-03    4.09       1.5  T
   3  -5198.6330328  0.143268E-05  0.540E-04    4.09       3.0  T
   4  -5198.6330345 -0.171352E-05  0.663E-05    4.09      24.3  T
   5  -5198.6330345 -0.169375E-07  0.252E-05    4.09      63.9  T
   6  -5198.6330345 -0.699401E-09  0.130E-05    4.09     124.2  T
     SCC iter.                  ...       21 min, 11.369 sec
     gradient                   ...        5 min, 16.250 sec
 * total energy  : -5104.0863074 Eh     change    :  -0.1386802E-04 Eh
   gradient norm :     0.0100065 Eh/a0  converged?    E=F G=F D=F
   time step     :     0.4428903 fs     power     :  -0.3883266E-09
   step length   :     0.0156631 a0     speed     :   0.8554547E-03

........................................................................
.............................. CYCLE   12 ..............................
........................................................................
 * reset velocities

 iter      E             dE          RMSdq      gap      omega  full diag
   1  -5198.6328852 -0.519863E+04  0.417E-05    4.09       0.0  T
   2  -5198.6328852 -0.572072E-09  0.311E-05    4.09      51.8  T
   3  -5198.6328852  0.329237E-09  0.141E-05    4.09     114.2  T
     SCC iter.                  ...       10 min, 37.524 sec
     gradient                   ...        5 min,  6.274 sec
 * total energy  : -5104.0863119 Eh     change    :  -0.4557132E-05 Eh
   gradient norm :     0.0098091 Eh/a0  converged?    E=T G=F D=T
   time step     :     0.2214451 fs     power     :   0.2704082E-09
   step length   :     0.0004601 a0     speed     :   0.5025442E-04

........................................................................
.............................. CYCLE   13 ..............................
........................................................................

 iter      E             dE          RMSdq      gap      omega  full diag
   1  -5198.6325869 -0.519863E+04  0.850E-05    4.09       0.0  T
   2  -5198.6325869 -0.187265E-08  0.605E-05    4.09      26.6  T
   3  -5198.6325869  0.310320E-08  0.264E-05    4.09      60.8  T
     SCC iter.                  ...       10 min, 39.638 sec
     gradient                   ...        5 min,  6.310 sec
 * total energy  : -5104.0863207 Eh     change    :  -0.8776570E-05 Eh
   gradient norm :     0.0094222 Eh/a0  converged?    E=F G=F D=T
   time step     :     0.2214451 fs     power     :   0.5142112E-09
   step length   :     0.0009111 a0     speed     :   0.9951594E-04

........................................................................
.............................. CYCLE   14 ..............................
........................................................................

 iter      E             dE          RMSdq      gap      omega  full diag
   1  -5198.6321409 -0.519863E+04  0.126E-04    4.09       0.0  T
   2  -5198.6321409 -0.369073E-08  0.887E-05    4.09      18.1  T
   3  -5198.6321409  0.685668E-08  0.382E-05    4.09      42.1  T
     SCC iter.                  ...       10 min, 40.534 sec
     gradient                   ...        5 min,  6.821 sec
 * total energy  : -5104.0863330 Eh     change    :  -0.1226066E-04 Eh
   gradient norm :     0.0088618 Eh/a0  converged?    E=F G=F D=F
   time step     :     0.2214451 fs     power     :   0.7129037E-09
   step length   :     0.0013442 a0     speed     :   0.1468243E-03

........................................................................
.............................. CYCLE   15 ..............................
........................................................................

 iter      E             dE          RMSdq      gap      omega  full diag
   1  -5198.6315488 -0.519863E+04  0.164E-04    4.09       0.0  T
   2  -5198.6315488 -0.592627E-08  0.115E-04    4.09      14.0  T
   3  -5198.6315488  0.119708E-07  0.492E-05    4.09      32.7  T
     SCC iter.                  ...       10 min, 37.646 sec
     gradient                   ...        5 min,  6.501 sec
 * total energy  : -5104.0863478 Eh     change    :  -0.1482304E-04 Eh
   gradient norm :     0.0081532 Eh/a0  converged?    E=F G=F D=F
   time step     :     0.2214451 fs     power     :   0.8525842E-09
   step length   :     0.0017511 a0     speed     :   0.1912799E-03

........................................................................
.............................. CYCLE   16 ..............................
........................................................................

 iter      E             dE          RMSdq      gap      omega  full diag
   1  -5198.6308125 -0.519863E+04  0.198E-04    4.09       0.0  T
   2  -5198.6308125 -0.817454E-08  0.139E-04    4.09      11.6  T
   3  -5198.6308125  0.180398E-07  0.593E-05    4.09      27.1  T
     SCC iter.                  ...       10 min, 36.975 sec
     gradient                   ...        5 min,  6.028 sec
 * total energy  : -5104.0863641 Eh     change    :  -0.1632043E-04 Eh
   gradient norm :     0.0073315 Eh/a0  converged?    E=F G=F D=F
   time step     :     0.2214451 fs     power     :   0.9254598E-09
   step length   :     0.0021246 a0     speed     :   0.2320730E-03

........................................................................
.............................. CYCLE   17 ..............................
........................................................................

 iter      E             dE          RMSdq      gap      omega  full diag
   1  -5198.6299337 -0.519863E+04  0.228E-04    4.09       0.0  T
   2  -5198.6299337 -0.105829E-07  0.159E-04    4.09      10.1  T
   3  -5198.6299337  0.248438E-07  0.682E-05    4.09      23.6  T
     SCC iter.                  ...       10 min, 35.990 sec
     gradient                   ...        5 min,  7.496 sec
 * total energy  : -5104.0863808 Eh     change    :  -0.1669861E-04 Eh
   gradient norm :     0.0064428 Eh/a0  converged?    E=F G=F D=F
   time step     :     0.2214451 fs     power     :   0.9307482E-09
   step length   :     0.0024581 a0     speed     :   0.2684972E-03

........................................................................
.............................. CYCLE   18 ..............................
........................................................................

 iter      E             dE          RMSdq      gap      omega  full diag
   1  -5198.6287984 -0.519863E+04  0.278E-04    4.09       0.0  T
   2  -5198.6287984 -0.154478E-07  0.196E-04    4.09       8.2  T
   3  -5198.6287984  0.401014E-07  0.849E-05    4.09      18.9  T
     SCC iter.                  ...       10 min, 36.862 sec
     gradient                   ...        5 min,  7.438 sec
 * total energy  : -5104.0863984 Eh     change    :  -0.1762071E-04 Eh
   gradient norm :     0.0054551 Eh/a0  converged?    E=F G=F D=F
   time step     :     0.2435896 fs     power     :   0.8656255E-09
   step length   :     0.0030527 a0     speed     :   0.3031352E-03

........................................................................
.............................. CYCLE   19 ..............................
........................................................................

 iter      E             dE          RMSdq      gap      omega  full diag
   1  -5198.6273528 -0.519863E+04  0.331E-04    4.09       0.0  T
   2  -5198.6273528 -0.205491E-07  0.234E-04    4.09       6.9  T
   3  -5198.6273528  0.609107E-07  0.102E-04    4.09      15.7  T
     SCC iter.                  ...       10 min, 36.355 sec
     gradient                   ...        5 min,  5.462 sec
 * total energy  : -5104.0864154 Eh     change    :  -0.1702472E-04 Eh
   gradient norm :     0.0044820 Eh/a0  converged?    E=F G=F D=F
   time step     :     0.2679486 fs     power     :   0.7272448E-09
   step length   :     0.0036990 a0     speed     :   0.3339286E-03

........................................................................
.............................. CYCLE   20 ..............................
........................................................................

 iter      E             dE          RMSdq      gap      omega  full diag
   1  -5198.6255431 -0.519863E+04  0.381E-04    4.09       0.0  T
   2  -5198.6255431 -0.246700E-07  0.269E-04    4.09       6.0  T
   3  -5198.6255430  0.885366E-07  0.120E-04    4.09      13.4  T
     SCC iter.                  ...       10 min, 36.281 sec
     gradient                   ...        5 min,  7.100 sec
 * total energy  : -5104.0864302 Eh     change    :  -0.1480546E-04 Eh
   gradient norm :     0.0037563 Eh/a0  converged?    E=F G=F D=F
   time step     :     0.2947435 fs     power     :   0.5322222E-09
   step length   :     0.0043612 a0     speed     :   0.3579114E-03
 * RMSD in coord.:     0.0015344 a0     energy gain  -0.1107989E-02 Eh

........................................................................
.............................. CYCLE   21 ..............................
........................................................................

 iter      E             dE          RMSdq      gap      omega  full diag
   1  -5198.6238771 -0.519862E+04  0.323E-04    4.09       0.0  T
   2  -5198.6238771 -0.144400E-07  0.224E-04    4.09       7.2  T
   3  -5198.6238771  0.654527E-07  0.100E-04    4.09      16.0  T
     SCC iter.                  ...       10 min, 35.346 sec
     gradient                   ...        5 min,  6.228 sec
 * total energy  : -5104.0864395 Eh     change    :  -0.9230383E-05 Eh
   gradient norm :     0.0035435 Eh/a0  converged?    E=F G=F D=F
   time step     :     0.2500000 fs     power     :   0.3812990E-09
   step length   :     0.0037772 a0     speed     :   0.3654602E-03

........................................................................
.............................. CYCLE   22 ..............................
........................................................................

 iter      E             dE          RMSdq      gap      omega  full diag
   1  -5198.6221439 -0.519862E+04  0.307E-04    4.09       0.0  T
   2  -5198.6221439 -0.109158E-07  0.211E-04    4.09       7.6  T
   3  -5198.6221438  0.632735E-07  0.978E-05    4.09      16.4  T
     SCC iter.                  ...       10 min, 38.895 sec
     gradient                   ...        5 min,  6.529 sec
 * total energy  : -5104.0864463 Eh     change    :  -0.6856294E-05 Eh
   gradient norm :     0.0036188 Eh/a0  converged?    E=F G=F D=F
   time step     :     0.2500000 fs     power     :   0.2764270E-09
   step length   :     0.0037463 a0     speed     :   0.3624765E-03

........................................................................
.............................. CYCLE   23 ..............................
........................................................................

 iter      E             dE          RMSdq      gap      omega  full diag
   1  -5198.6204215 -0.519862E+04  0.289E-04    4.09       0.0  T
   2  -5198.6204215 -0.767159E-08  0.194E-04    4.09       8.3  T
   3  -5198.6204215  0.499376E-07  0.874E-05    4.09      18.4  T
     SCC iter.                  ...       10 min, 36.503 sec
     gradient                   ...        5 min,  6.623 sec
 * total energy  : -5104.0864518 Eh     change    :  -0.5514854E-05 Eh
   gradient norm :     0.0038075 Eh/a0  converged?    E=F G=F D=F
   time step     :     0.2500000 fs     power     :   0.2273185E-09
   step length   :     0.0036376 a0     speed     :   0.3519589E-03

........................................................................
.............................. CYCLE   24 ..............................
........................................................................

 iter      E             dE          RMSdq      gap      omega  full diag
   1  -5198.6187823 -0.519862E+04  0.273E-04    4.09       0.0  T
   2  -5198.6187823 -0.482760E-08  0.176E-04    4.09       9.2  T
   3  -5198.6187823  0.279397E-07  0.674E-05    4.09      23.9  T
     SCC iter.                  ...       10 min, 37.307 sec
     gradient                   ...        5 min,  6.608 sec
 * total energy  : -5104.0864571 Eh     change    :  -0.5216273E-05 Eh
   gradient norm :     0.0039745 Eh/a0  converged?    E=F G=F D=F
   time step     :     0.2500000 fs     power     :   0.2256929E-09
   step length   :     0.0035001 a0     speed     :   0.3386545E-03

........................................................................
.............................. CYCLE   25 ..............................
........................................................................

 iter      E             dE          RMSdq      gap      omega  full diag
   1  -5198.6172821 -0.519862E+04  0.262E-04    4.09       0.0  T
   2  -5198.6172821 -0.339878E-08  0.161E-04    4.09      10.0  T
   3  -5198.6172821  0.765704E-08  0.387E-05    4.09      41.5  T
     SCC iter.                  ...       10 min, 37.186 sec
     gradient                   ...        5 min,  7.390 sec
 * total energy  : -5104.0864625 Eh     change    :  -0.5479698E-05 Eh
   gradient norm :     0.0040524 Eh/a0  converged?    E=F G=F D=F
   time step     :     0.2500000 fs     power     :   0.2544262E-09
   step length   :     0.0033742 a0     speed     :   0.3264751E-03

........................................................................
.............................. CYCLE   26 ..............................
........................................................................

 iter      E             dE          RMSdq      gap      omega  full diag
   1  -5198.6158301 -0.519862E+04  0.284E-04    4.09       0.0  T
   2  -5198.6158301 -0.314958E-08  0.169E-04    4.09       9.5  T
   3  -5198.6158301  0.174168E-08  0.260E-05    4.09      61.8  T
     SCC iter.                  ...       10 min, 40.360 sec
     gradient                   ...        5 min,  6.551 sec
 * total energy  : -5104.0864693 Eh     change    :  -0.6767733E-05 Eh
   gradient norm :     0.0040124 Eh/a0  converged?    E=F G=F D=F
   time step     :     0.2750000 fs     power     :   0.2950606E-09
   step length   :     0.0036242 a0     speed     :   0.3187816E-03

........................................................................
.............................. CYCLE   27 ..............................
........................................................................

 iter      E             dE          RMSdq      gap      omega  full diag
   1  -5198.6144945 -0.519861E+04  0.314E-04    4.09       0.0  T
   2  -5198.6144945 -0.355794E-08  0.185E-04    4.09       8.7  T
   3  -5198.6144945  0.412547E-08  0.334E-05    4.09      48.2  T
     SCC iter.                  ...       10 min, 37.759 sec
     gradient                   ...        5 min,  7.924 sec
 * total energy  : -5104.0864776 Eh     change    :  -0.8315819E-05 Eh
   gradient norm :     0.0038365 Eh/a0  converged?    E=F G=F D=F
   time step     :     0.3025000 fs     power     :   0.3326677E-09
   step length   :     0.0039598 a0     speed     :   0.3166394E-03

........................................................................
.............................. CYCLE   28 ..............................
........................................................................

 iter      E             dE          RMSdq      gap      omega  full diag
   1  -5198.6133574 -0.519861E+04  0.356E-04    4.09       0.0  T
   2  -5198.6133574 -0.473574E-08  0.210E-04    4.09       7.7  T
   3  -5198.6133574  0.187893E-07  0.619E-05    4.09      26.0  T
     SCC iter.                  ...       10 min, 40.048 sec
     gradient                   ...        5 min,  8.021 sec
 * total energy  : -5104.0864873 Eh     change    :  -0.9713590E-05 Eh
   gradient norm :     0.0035349 Eh/a0  converged?    E=F G=F D=F
   time step     :     0.3327500 fs     power     :   0.3535520E-09
   step length   :     0.0043993 a0     speed     :   0.3198023E-03

........................................................................
.............................. CYCLE   29 ..............................
........................................................................

 iter      E             dE          RMSdq      gap      omega  full diag
   1  -5198.6125180 -0.519861E+04  0.407E-04    4.09       0.0  T
   2  -5198.6125180 -0.721593E-08  0.243E-04    4.09       6.6  T
   3  -5198.6125179  0.511982E-07  0.992E-05    4.09      16.2  T
     SCC iter.                  ...       10 min, 37.247 sec
     gradient                   ...        5 min,  9.251 sec
 * total energy  : -5104.0864981 Eh     change    :  -0.1071914E-04 Eh
   gradient norm :     0.0031517 Eh/a0  converged?    E=F G=F D=F
   time step     :     0.3660250 fs     power     :   0.3474549E-09
   step length   :     0.0049478 a0     speed     :   0.3269756E-03

........................................................................
.............................. CYCLE   30 ..............................
........................................................................

 iter      E             dE          RMSdq      gap      omega  full diag
   1  -5198.6120881 -0.519861E+04  0.459E-04    4.09       0.0  T
   2  -5198.6120881 -0.993805E-08  0.279E-04    4.09       5.8  T
   3  -5198.6120880  0.913560E-07  0.132E-04    4.09      12.2  T
     SCC iter.                  ...       10 min, 36.934 sec
     gradient                   ...        5 min,  7.409 sec
 * total energy  : -5104.0865091 Eh     change    :  -0.1099378E-04 Eh
   gradient norm :     0.0027817 Eh/a0  converged?    E=F G=F D=F
   time step     :     0.4026275 fs     power     :   0.3118654E-09
   step length   :     0.0055916 a0     speed     :   0.3359304E-03

........................................................................
.............................. CYCLE   31 ..............................
........................................................................

 iter      E             dE          RMSdq      gap      omega  full diag
   1  -5198.6121686 -0.519861E+04  0.506E-04    4.09       0.0  T
   2  -5198.6121686 -0.123910E-07  0.310E-04    4.09       5.2  T
   3  -5198.6121685  0.122513E-06  0.151E-04    4.09      10.6  T
     SCC iter.                  ...       10 min, 37.337 sec
     gradient                   ...        5 min,  9.697 sec
 * total energy  : -5104.0865195 Eh     change    :  -0.1042596E-04 Eh
   gradient norm :     0.0025465 Eh/a0  converged?    E=F G=F D=F
   time step     :     0.4428903 fs     power     :   0.2563854E-09
   step length   :     0.0062934 a0     speed     :   0.3437192E-03

........................................................................
.............................. CYCLE   32 ..............................
........................................................................

 iter      E             dE          RMSdq      gap      omega  full diag
   1  -5198.6127957 -0.519861E+04  0.537E-04    4.09       0.0  T
   2  -5198.6127957 -0.138734E-07  0.328E-04    4.09       4.9  T
   3  -5198.6127956  0.125924E-06  0.152E-04    4.09      10.6  T
     SCC iter.                  ...       10 min, 35.041 sec
     gradient                   ...        5 min,  7.035 sec
 * total energy  : -5104.0865289 Eh     change    :  -0.9451160E-05 Eh
   gradient norm :     0.0024972 Eh/a0  converged?    E=F G=F D=F
   time step     :     0.4871793 fs     power     :   0.2009461E-09
   step length   :     0.0069978 a0     speed     :   0.3474467E-03

........................................................................
.............................. CYCLE   33 ..............................
........................................................................

 iter      E             dE          RMSdq      gap      omega  full diag
   1  -5198.6138849 -0.519861E+04  0.544E-04    4.09       0.0  T
   2  -5198.6138849 -0.148593E-07  0.328E-04    4.09       4.9  T
   3  -5198.6138848  0.835535E-07  0.124E-04    4.09      13.0  T
     SCC iter.                  ...       10 min, 36.736 sec
     gradient                   ...        5 min,  8.906 sec
 * total energy  : -5104.0865376 Eh     change    :  -0.8717074E-05 Eh
   gradient norm :     0.0025749 Eh/a0  converged?    E=F G=F D=F
   time step     :     0.5358972 fs     power     :   0.1646841E-09
   step length   :     0.0076711 a0     speed     :   0.3462496E-03

........................................................................
.............................. CYCLE   34 ..............................
........................................................................

 iter      E             dE          RMSdq      gap      omega  full diag
   1  -5198.6152317 -0.519862E+04  0.527E-04    4.09       0.0  T
   2  -5198.6152318 -0.142227E-07  0.314E-04    4.09       5.1  T
   3  -5198.6152317  0.194032E-07  0.686E-05    4.09      23.4  T
     SCC iter.                  ...       10 min, 37.018 sec
     gradient                   ...        5 min,  7.649 sec
 * total energy  : -5104.0865465 Eh     change    :  -0.8885052E-05 Eh
   gradient norm :     0.0026799 Eh/a0  converged?    E=F G=F D=F
   time step     :     0.5894869 fs     power     :   0.1554413E-09
   step length   :     0.0083444 a0     speed     :   0.3424008E-03

........................................................................
.............................. CYCLE   35 ..............................
........................................................................

 iter      E             dE          RMSdq      gap      omega  full diag
   1  -5198.6165577 -0.519862E+04  0.493E-04    4.09       0.0  T
   2  -5198.6165578 -0.110213E-07  0.299E-04    4.09       5.4  T
   3  -5198.6165577  0.196715E-07  0.642E-05    4.09      25.1  T
     SCC iter.                  ...       10 min, 36.765 sec
     gradient                   ...        5 min,  7.884 sec
 * total energy  : -5104.0865567 Eh     change    :  -0.1012506E-04 Eh
   gradient norm :     0.0026951 Eh/a0  converged?    E=F G=F D=F
   time step     :     0.6484356 fs     power     :   0.1709008E-09
   step length   :     0.0091056 a0     speed     :   0.3396712E-03

........................................................................
.............................. CYCLE   36 ..............................
........................................................................

 iter      E             dE          RMSdq      gap      omega  full diag
   1  -5198.6175653 -0.519862E+04  0.469E-04    4.09       0.0  T
   2  -5198.6175653 -0.830369E-08  0.290E-04    4.09       5.5  T
   3  -5198.6175653  0.304344E-07  0.753E-05    4.09      21.4  T
     SCC iter.                  ...       10 min, 35.315 sec
     gradient                   ...        5 min,  9.031 sec
 * total energy  : -5104.0865688 Eh     change    :  -0.1215043E-04 Eh
   gradient norm :     0.0025309 Eh/a0  converged?    E=F G=F D=F
   time step     :     0.7132792 fs     power     :   0.1900549E-09
   step length   :     0.0100692 a0     speed     :   0.3414693E-03

........................................................................
.............................. CYCLE   37 ..............................
........................................................................

 iter      E             dE          RMSdq      gap      omega  full diag
   1  -5198.6180134 -0.519862E+04  0.465E-04    4.09       0.0  T
   2  -5198.6180134 -0.128766E-07  0.299E-04    4.09       5.4  T
   3  -5198.6180133  0.834634E-07  0.116E-04    4.09      13.8  T
     SCC iter.                  ...       10 min, 36.719 sec
     gradient                   ...        5 min,  7.938 sec
 * total energy  : -5104.0865827 Eh     change    :  -0.1390986E-04 Eh
   gradient norm :     0.0024263 Eh/a0  converged?    E=F G=F D=F
   time step     :     0.7846071 fs     power     :   0.1925490E-09
   step length   :     0.0112934 a0     speed     :   0.3481658E-03

........................................................................
.............................. CYCLE   38 ..............................
........................................................................

 iter      E             dE          RMSdq      gap      omega  full diag
   1  -5198.6178086 -0.519862E+04  0.494E-04    4.09       0.0  T
   2  -5198.6178086 -0.187529E-07  0.312E-04    4.09       5.2  T
   3  -5198.6178085  0.716445E-07  0.112E-04    4.09      14.3  T
     SCC iter.                  ...       10 min, 35.876 sec
     gradient                   ...        5 min,  8.425 sec
 * total energy  : -5104.0865985 Eh     change    :  -0.1576529E-04 Eh
   gradient norm :     0.0025861 Eh/a0  converged?    E=F G=F D=F
   time step     :     0.8630678 fs     power     :   0.2046177E-09
   step length   :     0.0127395 a0     speed     :   0.3570454E-03

........................................................................
.............................. CYCLE   39 ..............................
........................................................................

 iter      E             dE          RMSdq      gap      omega  full diag
   1  -5198.6171737 -0.519862E+04  0.572E-04    4.09       0.0  T
   2  -5198.6171738 -0.172759E-07  0.346E-04    4.09       4.7  T
   3  -5198.6171737  0.286082E-07  0.805E-05    4.09      20.0  T
     SCC iter.                  ...       10 min, 36.598 sec
     gradient                   ...        5 min,  6.229 sec
 * total energy  : -5104.0866187 Eh     change    :  -0.2019958E-04 Eh
   gradient norm :     0.0025353 Eh/a0  converged?    E=F G=F D=F
   time step     :     0.9493746 fs     power     :   0.2507350E-09
   step length   :     0.0145038 a0     speed     :   0.3695375E-03

........................................................................
.............................. CYCLE   40 ..............................
........................................................................

 iter      E             dE          RMSdq      gap      omega  full diag
   1  -5198.6166983 -0.519862E+04  0.666E-04    4.09       0.0  T
   2  -5198.6166983 -0.187501E-07  0.404E-04    4.09       4.0  T
   3  -5198.6166983  0.529963E-07  0.103E-04    4.09      15.6  T
     SCC iter.                  ...       10 min, 38.599 sec
     gradient                   ...        5 min,  8.562 sec
 * total energy  : -5104.0866435 Eh     change    :  -0.2477145E-04 Eh
   gradient norm :     0.0022252 Eh/a0  converged?    E=F G=F D=F
   time step     :     1.0443120 fs     power     :   0.2744795E-09
   step length   :     0.0168703 a0     speed     :   0.3907584E-03

........................................................................
.............................. CYCLE   41 ..............................
........................................................................

 iter      E             dE          RMSdq      gap      omega  full diag
   1  -5198.6172379 -0.519862E+04  0.718E-04    4.09       0.0  T
   2  -5198.6172379 -0.235359E-07  0.443E-04    4.09       3.6  T
   3  -5198.6172378  0.897035E-07  0.129E-04    4.09      12.5  T
     SCC iter.                  ...       10 min, 36.213 sec
     gradient                   ...        5 min, 10.575 sec
 * total energy  : -5104.0866700 Eh     change    :  -0.2653519E-04 Eh
   gradient norm :     0.0022699 Eh/a0  converged?    E=F G=F D=F
   time step     :     1.1487432 fs     power     :   0.2562669E-09
   step length   :     0.0197863 a0     speed     :   0.4166358E-03

........................................................................
.............................. CYCLE   42 ..............................
........................................................................

 iter      E             dE          RMSdq      gap      omega  full diag
   1  -5198.6191016 -0.519862E+04  0.773E-04    4.09       0.0  T
   2  -5198.6191016 -0.175169E-07  0.461E-04    4.09       3.5  T
   3  -5198.6191016  0.202090E-07  0.740E-05    4.09      21.7  T
     SCC iter.                  ...       10 min, 36.538 sec
     gradient                   ...        5 min, 11.498 sec
 * total energy  : -5104.0867008 Eh     change    :  -0.3079783E-04 Eh
   gradient norm :     0.0024387 Eh/a0  converged?    E=F G=F D=F
   time step     :     1.2500000 fs     power     :   0.2938016E-09
   step length   :     0.0226929 a0     speed     :   0.4391328E-03
 * RMSD in coord.:     0.0025549 a0     energy gain  -0.2705415E-03 Eh

........................................................................
.............................. CYCLE   43 ..............................
........................................................................

 iter      E             dE          RMSdq      gap      omega  full diag
   1  -5198.6194642 -0.519862E+04  0.151E-04    4.09       0.0  T
   2  -5198.6194642 -0.816726E-09  0.882E-05    4.09      18.2  T
   3  -5198.6194642  0.365617E-08  0.289E-05    4.09      55.6  T
     SCC iter.                  ...       10 min, 36.918 sec
     gradient                   ...        5 min,  7.699 sec
 * total energy  : -5104.0867072 Eh     change    :  -0.6364758E-05 Eh
   gradient norm :     0.0023807 Eh/a0  converged?    E=F G=F D=F
   time step     :     0.2500000 fs     power     :   0.3322634E-09
   step length   :     0.0044135 a0     speed     :   0.4270327E-03

........................................................................
.............................. CYCLE   44 ..............................
........................................................................

 iter      E             dE          RMSdq      gap      omega  full diag
   1  -5198.6197967 -0.519862E+04  0.157E-04    4.09       0.0  T
   2  -5198.6197967 -0.105865E-08  0.937E-05    4.09      17.2  T
   3  -5198.6197967  0.307682E-08  0.260E-05    4.09      61.9  T
     SCC iter.                  ...       10 min, 38.211 sec
     gradient                   ...        5 min, 10.933 sec
 * total energy  : -5104.0867141 Eh     change    :  -0.6900864E-05 Eh
   gradient norm :     0.0021797 Eh/a0  converged?    E=F G=F D=F
   time step     :     0.2500000 fs     power     :   0.3567760E-09
   step length   :     0.0043434 a0     speed     :   0.4202436E-03

........................................................................
.............................. CYCLE   45 ..............................
........................................................................

 iter      E             dE          RMSdq      gap      omega  full diag
   1  -5198.6200854 -0.519862E+04  0.173E-04    4.09       0.0  T
   2  -5198.6200854 -0.157888E-08  0.105E-04    4.09      15.4  T
   3  -5198.6200854  0.566251E-08  0.337E-05    4.09      47.7  T
     SCC iter.                  ...       10 min, 39.265 sec
     gradient                   ...        5 min, 10.761 sec
 * total energy  : -5104.0867211 Eh     change    :  -0.7007666E-05 Eh
   gradient norm :     0.0019044 Eh/a0  converged?    E=F G=F D=F
   time step     :     0.2500000 fs     power     :   0.3592788E-09
   step length   :     0.0043262 a0     speed     :   0.4185870E-03

........................................................................
.............................. CYCLE   46 ..............................
........................................................................

 iter      E             dE          RMSdq      gap      omega  full diag
   1  -5198.6203200 -0.519862E+04  0.189E-04    4.09       0.0  T
   2  -5198.6203200 -0.210184E-08  0.115E-04    4.09      14.0  T
   3  -5198.6203200  0.719865E-08  0.377E-05    4.09      42.6  T
     SCC iter.                  ...       10 min, 37.614 sec
     gradient                   ...        5 min,  7.615 sec
 * total energy  : -5104.0867278 Eh     change    :  -0.6746473E-05 Eh
   gradient norm :     0.0016552 Eh/a0  converged?    E=F G=F D=F
   time step     :     0.2500000 fs     power     :   0.3413408E-09
   step length   :     0.0043518 a0     speed     :   0.4210606E-03

........................................................................
.............................. CYCLE   47 ..............................
........................................................................

 iter      E             dE          RMSdq      gap      omega  full diag
   1  -5198.6204956 -0.519862E+04  0.198E-04    4.09       0.0  T
   2  -5198.6204956 -0.223645E-08  0.121E-04    4.09      13.3  T
   3  -5198.6204956  0.762793E-08  0.379E-05    4.09      42.5  T
     SCC iter.                  ...       10 min, 38.793 sec
     gradient                   ...        5 min,  8.246 sec
 * total energy  : -5104.0867341 Eh     change    :  -0.6265655E-05 Eh
   gradient norm :     0.0015373 Eh/a0  converged?    E=F G=F D=F
   time step     :     0.2500000 fs     power     :   0.3135143E-09
   step length   :     0.0043983 a0     speed     :   0.4255572E-03

........................................................................
.............................. CYCLE   48 ..............................
........................................................................

 iter      E             dE          RMSdq      gap      omega  full diag
   1  -5198.6206262 -0.519862E+04  0.214E-04    4.09       0.0  T
   2  -5198.6206262 -0.219461E-08  0.130E-04    4.09      12.4  T
   3  -5198.6206262  0.759155E-08  0.375E-05    4.09      42.9  T
     SCC iter.                  ...       10 min, 35.518 sec
     gradient                   ...        5 min,  7.908 sec
 * total energy  : -5104.0867405 Eh     change    :  -0.6406360E-05 Eh
   gradient norm :     0.0015833 Eh/a0  converged?    E=F G=F D=F
   time step     :     0.2750000 fs     power     :   0.2879785E-09
   step length   :     0.0048807 a0     speed     :   0.4293032E-03

........................................................................
.............................. CYCLE   49 ..............................
........................................................................

 iter      E             dE          RMSdq      gap      omega  full diag
   1  -5198.6207127 -0.519862E+04  0.216E-04    4.09       0.0  T
   2  -5198.6207127 -0.189721E-08  0.130E-04    4.09      12.4  T
   3  -5198.6207127  0.484033E-08  0.307E-05    4.09      52.4  T
     SCC iter.                  ...       10 min, 38.553 sec
     gradient                   ...        5 min, 10.597 sec
 * total energy  : -5104.0867472 Eh     change    :  -0.6682735E-05 Eh
   gradient norm :     0.0017255 Eh/a0  converged?    E=F G=F D=F
   time step     :     0.3025000 fs     power     :   0.2780902E-09
   step length   :     0.0053694 a0     speed     :   0.4293559E-03

........................................................................
.............................. CYCLE   50 ..............................
........................................................................

 iter      E             dE          RMSdq      gap      omega  full diag
   1  -5198.6207593 -0.519862E+04  0.209E-04    4.09       0.0  T
   2  -5198.6207593 -0.112868E-08  0.124E-04    4.09      13.0  T
   3  -5198.6207593  0.178898E-08  0.209E-05    4.09      76.9  T
     SCC iter.                  ...       10 min, 38.705 sec
     gradient                   ...        5 min,  9.159 sec
 * total energy  : -5104.0867546 Eh     change    :  -0.7407534E-05 Eh
   gradient norm :     0.0018397 Eh/a0  converged?    E=F G=F D=F
   time step     :     0.3327500 fs     power     :   0.2866728E-09
   step length   :     0.0058722 a0     speed     :   0.4268747E-03

........................................................................
.............................. CYCLE   51 ..............................
........................................................................

 iter      E             dE          RMSdq      gap      omega  full diag
   1  -5198.6207648 -0.519862E+04  0.204E-04    4.09       0.0  T
   2  -5198.6207648 -0.694854E-09  0.120E-04    4.09      13.4  T
   3  -5198.6207648  0.914042E-09  0.167E-05    4.09      96.2  T
     SCC iter.                  ...       10 min, 38.245 sec
     gradient                   ...        5 min,  9.270 sec
 * total energy  : -5104.0867631 Eh     change    :  -0.8538555E-05 Eh
   gradient norm :     0.0018375 Eh/a0  converged?    E=F G=F D=F
   time step     :     0.3660250 fs     power     :   0.3051757E-09
   step length   :     0.0064355 a0     speed     :   0.4252896E-03

........................................................................
.............................. CYCLE   52 ..............................
........................................................................

 iter      E             dE          RMSdq      gap      omega  full diag
   1  -5198.6207158 -0.519862E+04  0.213E-04    4.09       0.0  T
   2  -5198.6207158 -0.109958E-08  0.127E-04    4.09      12.7  T
   3  -5198.6207158  0.292766E-08  0.248E-05    4.09      64.8  T
     SCC iter.                  ...       10 min, 34.355 sec
     gradient                   ...        5 min, 10.735 sec
 * total energy  : -5104.0867730 Eh     change    :  -0.9897107E-05 Eh
   gradient norm :     0.0017014 Eh/a0  converged?    E=F G=F D=F
   time step     :     0.4026275 fs     power     :   0.3193527E-09
   step length   :     0.0071139 a0     speed     :   0.4273831E-03

........................................................................
.............................. CYCLE   53 ..............................
........................................................................

 iter      E             dE          RMSdq      gap      omega  full diag
   1  -5198.6205813 -0.519862E+04  0.240E-04    4.09       0.0  T
   2  -5198.6205813 -0.220916E-08  0.146E-04    4.09      11.0  T
   3  -5198.6205813  0.888394E-08  0.412E-05    4.09      39.0  T
     SCC iter.                  ...       10 min, 35.936 sec
     gradient                   ...        5 min,  7.886 sec
 * total energy  : -5104.0867840 Eh     change    :  -0.1101819E-04 Eh
   gradient norm :     0.0015271 Eh/a0  converged?    E=F G=F D=F
   time step     :     0.4428903 fs     power     :   0.3183308E-09
   step length   :     0.0079526 a0     speed     :   0.4343396E-03

........................................................................
.............................. CYCLE   54 ..............................
........................................................................

 iter      E             dE          RMSdq      gap      omega  full diag
   1  -5198.6203179 -0.519862E+04  0.272E-04    4.09       0.0  T
   2  -5198.6203179 -0.307773E-08  0.168E-04    4.09       9.6  T
   3  -5198.6203179  0.135487E-07  0.503E-05    4.09      32.0  T
     SCC iter.                  ...       10 min, 35.252 sec
     gradient                   ...        5 min,  8.753 sec
 * total energy  : -5104.0867958 Eh     change    :  -0.1176484E-04 Eh
   gradient norm :     0.0014935 Eh/a0  converged?    E=F G=F D=F
   time step     :     0.4871793 fs     power     :   0.3065429E-09
   step length   :     0.0089599 a0     speed     :   0.4448639E-03

........................................................................
.............................. CYCLE   55 ..............................
........................................................................

 iter      E             dE          RMSdq      gap      omega  full diag
   1  -5198.6199070 -0.519862E+04  0.295E-04    4.09       0.0  T
   2  -5198.6199070 -0.283489E-08  0.179E-04    4.09       9.0  T
   3  -5198.6199070  0.103291E-07  0.446E-05    4.09      36.1  T
     SCC iter.                  ...       10 min, 35.746 sec
     gradient                   ...        5 min, 20.865 sec
 * total energy  : -5104.0868085 Eh     change    :  -0.1275110E-04 Eh
   gradient norm :     0.0015943 Eh/a0  converged?    E=F G=F D=F
   time step     :     0.5358972 fs     power     :   0.3028301E-09
   step length   :     0.0100734 a0     speed     :   0.4546834E-03

........................................................................
.............................. CYCLE   56 ..............................
........................................................................

 iter      E             dE          RMSdq      gap      omega  full diag
   1  -5198.6194072 -0.519862E+04  0.310E-04    4.09       0.0  T
   2  -5198.6194072 -0.217915E-08  0.184E-04    4.09       8.8  T
   3  -5198.6194072  0.335331E-08  0.295E-05    4.09      54.6  T
     SCC iter.                  ...       10 min, 38.680 sec
     gradient                   ...        5 min,  7.139 sec
 * total energy  : -5104.0868229 Eh     change    :  -0.1435630E-04 Eh
   gradient norm :     0.0016576 Eh/a0  converged?    E=F G=F D=F
   time step     :     0.5894869 fs     power     :   0.3151015E-09
   step length   :     0.0112768 a0     speed     :   0.4627292E-03

........................................................................
.............................. CYCLE   57 ..............................
........................................................................

 iter      E             dE          RMSdq      gap      omega  full diag
   1  -5198.6189742 -0.519862E+04  0.333E-04    4.09       0.0  T
   2  -5198.6189742 -0.230375E-08  0.198E-04    4.09       8.1  T
   3  -5198.6189742  0.827549E-08  0.413E-05    4.09      38.9  T
     SCC iter.                  ...       10 min, 35.996 sec
     gradient                   ...        5 min, 10.433 sec
 * total energy  : -5104.0868394 Eh     change    :  -0.1654073E-04 Eh
   gradient norm :     0.0016025 Eh/a0  converged?    E=F G=F D=F
   time step     :     0.6484356 fs     power     :   0.3333375E-09
   step length   :     0.0126647 a0     speed     :   0.4724379E-03

........................................................................
.............................. CYCLE   58 ..............................
........................................................................

 iter      E             dE          RMSdq      gap      omega  full diag
   1  -5198.6188531 -0.519862E+04  0.381E-04    4.09       0.0  T
   2  -5198.6188531 -0.382624E-08  0.230E-04    4.09       7.0  T
   3  -5198.6188531  0.255732E-07  0.668E-05    4.09      24.1  T
     SCC iter.                  ...       10 min, 36.226 sec
     gradient                   ...        5 min,  9.750 sec
 * total energy  : -5104.0868584 Eh     change    :  -0.1892862E-04 Eh
   gradient norm :     0.0014669 Eh/a0  converged?    E=F G=F D=F
   time step     :     0.7132792 fs     power     :   0.3420094E-09
   step length   :     0.0143470 a0     speed     :   0.4865366E-03

........................................................................
.............................. CYCLE   59 ..............................
........................................................................

 iter      E             dE          RMSdq      gap      omega  full diag
   1  -5198.6192867 -0.519862E+04  0.433E-04    4.09       0.0  T
   2  -5198.6192867 -0.494038E-08  0.262E-04    4.09       6.2  T
   3  -5198.6192866  0.319606E-07  0.758E-05    4.09      21.2  T
     SCC iter.                  ...       10 min, 37.311 sec
     gradient                   ...        5 min,  8.357 sec
 * total energy  : -5104.0868793 Eh     change    :  -0.2089152E-04 Eh
   gradient norm :     0.0015022 Eh/a0  converged?    E=F G=F D=F
   time step     :     0.7846071 fs     power     :   0.3410012E-09
   step length   :     0.0163796 a0     speed     :   0.5049694E-03

........................................................................
.............................. CYCLE   60 ..............................
........................................................................

 iter      E             dE          RMSdq      gap      omega  full diag
   1  -5198.6202180 -0.519862E+04  0.462E-04    4.09       0.0  T
   2  -5198.6202180 -0.383170E-08  0.274E-04    4.09       5.9  T
   3  -5198.6202180  0.873479E-08  0.451E-05    4.09      35.6  T
     SCC iter.                  ...       10 min, 36.822 sec
     gradient                   ...        5 min, 16.291 sec
 * total energy  : -5104.0869029 Eh     change    :  -0.2367290E-04 Eh
   gradient norm :     0.0015670 Eh/a0  converged?    E=F G=F D=F
   time step     :     0.8630678 fs     power     :   0.3559988E-09
   step length   :     0.0186506 a0     speed     :   0.5227132E-03

........................................................................
.............................. CYCLE   61 ..............................
........................................................................

 iter      E             dE          RMSdq      gap      omega  full diag
   1  -5198.6212158 -0.519862E+04  0.519E-04    4.09       0.0  T
   2  -5198.6212158 -0.557611E-08  0.308E-04    4.09       5.2  T
   3  -5198.6212157  0.316622E-07  0.769E-05    4.09      20.9  T
     SCC iter.                  ...       10 min, 37.233 sec
     gradient                   ...        5 min,  8.139 sec
 * total energy  : -5104.0869304 Eh     change    :  -0.2746312E-04 Eh
   gradient norm :     0.0014541 Eh/a0  converged?    E=F G=F D=F
   time step     :     0.9493746 fs     power     :   0.3738622E-09
   step length   :     0.0212764 a0     speed     :   0.5420963E-03

........................................................................
.............................. CYCLE   62 ..............................
........................................................................

 iter      E             dE          RMSdq      gap      omega  full diag
   1  -5198.6216915 -0.519862E+04  0.596E-04    4.09       0.0  T
   2  -5198.6216915 -0.813270E-08  0.355E-04    4.09       4.5  T
   3  -5198.6216915  0.359114E-07  0.809E-05    4.09      19.9  T
     SCC iter.                  ...       10 min, 35.476 sec
     gradient                   ...        5 min,  8.771 sec
 * total energy  : -5104.0869613 Eh     change    :  -0.3093577E-04 Eh
   gradient norm :     0.0014614 Eh/a0  converged?    E=F G=F D=F
   time step     :     1.0443120 fs     power     :   0.3780304E-09
   step length   :     0.0244782 a0     speed     :   0.5669748E-03

........................................................................
.............................. CYCLE   63 ..............................
........................................................................

 iter      E             dE          RMSdq      gap      omega  full diag
   1  -5198.6214565 -0.519862E+04  0.645E-04    4.09       0.0  T
   2  -5198.6214565 -0.792352E-08  0.381E-04    4.09       4.2  T
   3  -5198.6214565  0.297832E-07  0.793E-05    4.09      20.3  T
     SCC iter.                  ...       10 min, 33.002 sec
     gradient                   ...        5 min,  9.916 sec
 * total energy  : -5104.0869967 Eh     change    :  -0.3534953E-04 Eh
   gradient norm :     0.0015155 Eh/a0  converged?    E=F G=F D=F
   time step     :     1.1487432 fs     power     :   0.3988797E-09
   step length   :     0.0281333 a0     speed     :   0.5923966E-03

........................................................................
.............................. CYCLE   64 ..............................
........................................................................

 iter      E             dE          RMSdq      gap      omega  full diag
   1  -5198.6210021 -0.519862E+04  0.731E-04    4.09       0.0  T
   2  -5198.6210021 -0.113387E-07  0.437E-04    4.09       3.7  T
   3  -5198.6210020  0.725850E-07  0.114E-04    4.09      14.1  T
     SCC iter.                  ...       10 min, 36.859 sec
     gradient                   ...        5 min,  8.911 sec
 * total energy  : -5104.0870371 Eh     change    :  -0.4037556E-04 Eh
   gradient norm :     0.0013981 Eh/a0  converged?    E=F G=F D=F
   time step     :     1.2500000 fs     power     :   0.4165191E-09
   step length   :     0.0320410 a0     speed     :   0.6200284E-03

........................................................................
.............................. CYCLE   65 ..............................
........................................................................

 iter      E             dE          RMSdq      gap      omega  full diag
   1  -5198.6211613 -0.519862E+04  0.765E-04    4.09       0.0  T
   2  -5198.6211613 -0.144064E-07  0.456E-04    4.09       3.5  T
   3  -5198.6211612  0.581540E-07  0.110E-04    4.09      14.6  T
     SCC iter.                  ...       10 min, 33.875 sec
     gradient                   ...        5 min,  9.298 sec
 * total energy  : -5104.0870782 Eh     change    :  -0.4110215E-04 Eh
   gradient norm :     0.0015275 Eh/a0  converged?    E=F G=F D=F
   time step     :     1.2500000 fs     power     :   0.4229700E-09
   step length   :     0.0335780 a0     speed     :   0.6497702E-03

........................................................................
.............................. CYCLE   66 ..............................
........................................................................

 iter      E             dE          RMSdq      gap      omega  full diag
   1  -5198.6217726 -0.519862E+04  0.807E-04    4.09       0.0  T
   2  -5198.6217726 -0.125065E-07  0.478E-04    4.09       3.4  T
   3  -5198.6217725  0.953660E-07  0.133E-04    4.09      12.1  T
     SCC iter.                  ...       10 min, 36.726 sec
     gradient                   ...        5 min,  9.003 sec
 * total energy  : -5104.0871210 Eh     change    :  -0.4287132E-04 Eh
   gradient norm :     0.0015016 Eh/a0  converged?    E=F G=F D=F
   time step     :     1.2500000 fs     power     :   0.4424426E-09
   step length   :     0.0348359 a0     speed     :   0.6741116E-03

........................................................................
.............................. CYCLE   67 ..............................
........................................................................

 iter      E             dE          RMSdq      gap      omega  full diag
   1  -5198.6220567 -0.519862E+04  0.819E-04    4.09       0.0  T
   2  -5198.6220567 -0.208329E-07  0.485E-04    4.09       3.3  T
   3  -5198.6220566  0.561267E-07  0.122E-04    4.09      13.2  T
     SCC iter.                  ...       10 min, 37.238 sec
     gradient                   ...        5 min,  8.368 sec
 * total energy  : -5104.0871646 Eh     change    :  -0.4360445E-04 Eh
   gradient norm :     0.0016413 Eh/a0  converged?    E=F G=F D=F
   time step     :     1.2500000 fs     power     :   0.4386531E-09
   step length   :     0.0361342 a0     speed     :   0.6992358E-03
 * RMSD in coord.:     0.0057389 a0     energy gain  -0.4638438E-03 Eh

........................................................................
.............................. CYCLE   68 ..............................
........................................................................

 iter      E             dE          RMSdq      gap      omega  full diag
   1  -5198.6221049 -0.519862E+04  0.160E-04    4.09       0.0  T
   2  -5198.6221049 -0.565706E-09  0.939E-05    4.09      17.1  T
   3  -5198.6221049  0.279215E-08  0.252E-05    4.09      63.8  T
     SCC iter.                  ...       10 min, 37.011 sec
     gradient                   ...        5 min,  9.071 sec
 * total energy  : -5104.0871734 Eh     change    :  -0.8817733E-05 Eh
   gradient norm :     0.0015267 Eh/a0  converged?    E=F G=F D=F
   time step     :     0.2500000 fs     power     :   0.4611101E-09
   step length   :     0.0070990 a0     speed     :   0.6868708E-03

........................................................................
.............................. CYCLE   69 ..............................
........................................................................

 iter      E             dE          RMSdq      gap      omega  full diag
   1  -5198.6221497 -0.519862E+04  0.171E-04    4.09       0.0  T
   2  -5198.6221497 -0.246564E-08  0.101E-04    4.09      15.9  T
   3  -5198.6221497  0.263844E-08  0.358E-05    4.09      44.9  T
     SCC iter.                  ...       10 min, 37.551 sec
     gradient                   ...        5 min,  6.946 sec
 * total energy  : -5104.0871823 Eh     change    :  -0.8887195E-05 Eh
   gradient norm :     0.0013293 Eh/a0  converged?    E=F G=F D=F
   time step     :     0.2500000 fs     power     :   0.4579762E-09
   step length   :     0.0070461 a0     speed     :   0.6817482E-03

........................................................................
.............................. CYCLE   70 ..............................
........................................................................

 iter      E             dE          RMSdq      gap      omega  full diag
   1  -5198.6221931 -0.519862E+04  0.173E-04    4.09       0.0  T
   2  -5198.6221931 -0.223281E-08  0.103E-04    4.09      15.6  T
   3  -5198.6221931  0.345244E-08  0.351E-05    4.09      45.9  T
     SCC iter.                  ...       10 min, 40.004 sec
     gradient                   ...        5 min,  8.161 sec
[...]
  3617   6 C     3618   6 C                                       1.3882756
  3618   6 C     3619   6 C                                       1.3851434
  3619   6 C     3620   6 C                                       1.3821109
  3620   6 C     3621   6 C                                       1.3834004
  3617   6 C     3622   6 C                                       1.3925287
  3621   6 C     3622   6 C                                       1.3821826
  3616   6 C     3623   6 C                                       1.5402255
  3625   6 C     3626   6 C                                       1.3899919
  3626   6 C     3627   6 C                                       1.3827661
  3627   6 C     3628   6 C                                       1.3842010
  3628   6 C     3629   6 C                                       1.3837844
  3625   6 C     3630   6 C                                       1.3896742
  3629   6 C     3630   6 C                                       1.3837735
  3624   6 C     3631   6 C                                       1.5369660
  3631   6 C     3632   6 C                                       1.5321587
  3633   6 C     3634   6 C                                       1.3883543
  3634   6 C     3635   6 C                                       1.3847674
  3635   6 C     3636   6 C                                       1.3838102
  3636   6 C     3637   6 C                                       1.3845246
  3633   6 C     3638   6 C                                       1.3910564
  3637   6 C     3638   6 C                                       1.3826495
  3632   6 C     3639   6 C                                       1.5406830
  3639   6 C     3640   6 C                                       1.5371154
  3641   6 C     3642   6 C                                       1.3903932
  3642   6 C     3643   6 C                                       1.3829555
  3643   6 C     3644   6 C                                       1.3841519
  3644   6 C     3645   6 C                                       1.3835950
  3641   6 C     3646   6 C                                       1.3898297
  3645   6 C     3646   6 C                                       1.3841444
  3640   6 C     3647   6 C                                       1.5333613
  3647   6 C     3648   6 C                                       1.5361667
  3649   6 C     3650   6 C                                       1.3904654
  3650   6 C     3651   6 C                                       1.3836153
  3651   6 C     3652   6 C                                       1.3845248
  3652   6 C     3653   6 C                                       1.3842535
  3649   6 C     3654   6 C                                       1.3898618
  3653   6 C     3654   6 C                                       1.3838512
  3648   6 C     3655   6 C                                       1.5363882
  3655   6 C     3656   6 C                                       1.5327223
  3657   6 C     3658   6 C                                       1.3887676
  3658   6 C     3659   6 C                                       1.3838968
  3659   6 C     3660   6 C                                       1.3838923
  3660   6 C     3661   6 C                                       1.3843210
  3657   6 C     3662   6 C                                       1.3901807
  3661   6 C     3662   6 C                                       1.3826019
  3656   6 C     3663   6 C                                       1.5400542
  3663   6 C     3664   6 C                                       1.5378315
  3665   6 C     3666   6 C                                       1.3899918
  3666   6 C     3667   6 C                                       1.3834525
  3667   6 C     3668   6 C                                       1.3841989
  3668   6 C     3669   6 C                                       1.3838514
  3665   6 C     3670   6 C                                       1.3894783
  3669   6 C     3670   6 C                                       1.3834627
  3664   6 C     3671   6 C                                       1.5337155
  3671   6 C     3672   6 C                                       1.5364643
  3673   6 C     3674   6 C                                       1.3911604
  3674   6 C     3675   6 C                                       1.3841002
  3675   6 C     3676   6 C                                       1.3851746
  3676   6 C     3677   6 C                                       1.3845966
  3673   6 C     3678   6 C                                       1.3905461
  3677   6 C     3678   6 C                                       1.3841538
  3672   6 C     3679   6 C                                       1.5362984
  3679   6 C     3680   6 C                                       1.5348480
  3681   6 C     3682   6 C                                       1.3895551
  3682   6 C     3683   6 C                                       1.3837976
  3683   6 C     3684   6 C                                       1.3840808
  3684   6 C     3685   6 C                                       1.3831195
  3681   6 C     3686   6 C                                       1.3897458
  3685   6 C     3686   6 C                                       1.3831297
  3680   6 C     3687   6 C                                       1.5395353
  3687   6 C     3688   6 C                                       1.5382190
  3549   6 C     3689   1 H                                       1.0956611
  3551   6 C     3690   1 H                                       1.0916882
  3551   6 C     3691   1 H                                       1.0908547
  3552   6 C     3692   1 H                                       1.0947243
  3559   6 C     3693   1 H                                       1.0930980
  3559   6 C     3694   1 H                                       1.0929321
  3560   6 C     3695   1 H                                       1.0942615
  3567   6 C     3696   1 H                                       1.0902654
  3567   6 C     3697   1 H                                       1.0900011
  3568   6 C     3698   1 H                                       1.0926919
  3575   6 C     3699   1 H                                       1.0922897
  3576   6 C     3700   1 H                                       1.0967004
  3583   6 C     3701   1 H                                       1.0887388
  3583   6 C     3702   1 H                                       1.0907125
  3584   6 C     3703   1 H                                       1.0940501
  3591   6 C     3704   1 H                                       1.0903168
  3591   6 C     3705   1 H                                       1.0916922
  3592   6 C     3706   1 H                                       1.0963526
  3599   6 C     3707   1 H                                       1.0935780
  3599   6 C     3708   1 H                                       1.0924153
  3600   6 C     3709   1 H                                       1.0922912
  3608   6 C     3710   1 H                                       1.0967309
  3615   6 C     3711   1 H                                       1.0901312
  3615   6 C     3712   1 H                                       1.0877413
  3616   6 C     3713   1 H                                       1.0958891
  3623   6 C     3714   1 H                                       1.0928776
  3623   6 C     3715   1 H                                       1.0914245
  3624   6 C     3716   1 H                                       1.0937025
  3631   6 C     3717   1 H                                       1.0912736
  3631   6 C     3718   1 H                                       1.0922808
  3632   6 C     3719   1 H                                       1.0946616
  3639   6 C     3720   1 H                                       1.0925469
  3639   6 C     3721   1 H                                       1.0926339
  3640   6 C     3722   1 H                                       1.0943060
  3647   6 C     3723   1 H                                       1.0926555
  3647   6 C     3724   1 H                                       1.0919570
  3648   6 C     3725   1 H                                       1.0952835
  3655   6 C     3726   1 H                                       1.0918244
  3655   6 C     3727   1 H                                       1.0912234
  3656   6 C     3728   1 H                                       1.0952208
  3663   6 C     3729   1 H                                       1.0923591
  3663   6 C     3730   1 H                                       1.0928554
  3664   6 C     3731   1 H                                       1.0929738
  3671   6 C     3732   1 H                                       1.0912664
  3671   6 C     3733   1 H                                       1.0917271
  3672   6 C     3734   1 H                                       1.0963003
  3679   6 C     3735   1 H                                       1.0916140
  3679   6 C     3736   1 H                                       1.0911080
  3543   6 C     3737   1 H                                       1.0804865
  3548   6 C     3738   1 H                                       1.0802867
  3547   6 C     3739   1 H                                       1.0801592
  3546   6 C     3740   1 H                                       1.0808248
  3545   6 C     3741   1 H                                       1.0814463
  3554   6 C     3742   1 H                                       1.0807967
  3555   6 C     3743   1 H                                       1.0806499
  3556   6 C     3744   1 H                                       1.0799824
  3557   6 C     3745   1 H                                       1.0794914
  3558   6 C     3746   1 H                                       1.0798182
  3562   6 C     3747   1 H                                       1.0812240
  3563   6 C     3748   1 H                                       1.0801013
  3564   6 C     3749   1 H                                       1.0804540
  3565   6 C     3750   1 H                                       1.0803430
  3566   6 C     3751   1 H                                       1.0812082
  3570   6 C     3752   1 H                                       1.0814746
  3571   6 C     3753   1 H                                       1.0806547
  3572   6 C     3754   1 H                                       1.0802920
  3573   6 C     3755   1 H                                       1.0806903
  3574   6 C     3756   1 H                                       1.0803821
  3575   6 C     3757   1 H                                       1.0938277
  3578   6 C     3758   1 H                                       1.0796289
  3579   6 C     3759   1 H                                       1.0793814
  3580   6 C     3760   1 H                                       1.0798140
  3581   6 C     3761   1 H                                       1.0820044
  3582   6 C     3762   1 H                                       1.0815810
  3586   6 C     3763   1 H                                       1.0805940
  3587   6 C     3764   1 H                                       1.0796604
  3588   6 C     3765   1 H                                       1.0798634
  3589   6 C     3766   1 H                                       1.0817802
  3590   6 C     3767   1 H                                       1.0818393
  3594   6 C     3768   1 H                                       1.0814266
  3595   6 C     3769   1 H                                       1.0791418
  3596   6 C     3770   1 H                                       1.0811182
  3597   6 C     3771   1 H                                       1.0810321
  3598   6 C     3772   1 H                                       1.0792586
  3602   6 C     3773   1 H                                       1.0809677
  3603   6 C     3774   1 H                                       1.0802756
  3604   6 C     3775   1 H                                       1.0798989
  3605   6 C     3776   1 H                                       1.0806387
  3606   6 C     3777   1 H                                       1.0813303
  3607   6 C     3778   1 H                                       1.0915385
  3607   6 C     3779   1 H                                       1.0922475
  3610   6 C     3780   1 H                                       1.0810960
  3611   6 C     3781   1 H                                       1.0806890
  3612   6 C     3782   1 H                                       1.0817452
  3613   6 C     3783   1 H                                       1.0807598
  3614   6 C     3784   1 H                                       1.0788314
  3618   6 C     3785   1 H                                       1.0817261
  3619   6 C     3786   1 H                                       1.0784101
  3620   6 C     3787   1 H                                       1.0795920
  3621   6 C     3788   1 H                                       1.0812829
  3622   6 C     3789   1 H                                       1.0813571
  3626   6 C     3790   1 H                                       1.0802234
  3627   6 C     3791   1 H                                       1.0809266
  3628   6 C     3792   1 H                                       1.0796486
  3629   6 C     3793   1 H                                       1.0802044
  3630   6 C     3794   1 H                                       1.0813652
  3634   6 C     3795   1 H                                       1.0813707
  3635   6 C     3796   1 H                                       1.0805463
  3636   6 C     3797   1 H                                       1.0784570
  3637   6 C     3798   1 H                                       1.0809743
  3638   6 C     3799   1 H                                       1.0800487
  3642   6 C     3800   1 H                                       1.0805971
  3643   6 C     3801   1 H                                       1.0806807
  3644   6 C     3802   1 H                                       1.0798479
  3645   6 C     3803   1 H                                       1.0811420
  3646   6 C     3804   1 H                                       1.0798890
  3650   6 C     3805   1 H                                       1.0801572
  3651   6 C     3806   1 H                                       1.0800131
  3652   6 C     3807   1 H                                       1.0805637
  3653   6 C     3808   1 H                                       1.0804835
  3654   6 C     3809   1 H                                       1.0806971
  3658   6 C     3810   1 H                                       1.0813440
  3659   6 C     3811   1 H                                       1.0805989
  3660   6 C     3812   1 H                                       1.0801793
  3661   6 C     3813   1 H                                       1.0806481
  3662   6 C     3814   1 H                                       1.0794941
  3666   6 C     3815   1 H                                       1.0802030
  3667   6 C     3816   1 H                                       1.0802249
  3668   6 C     3817   1 H                                       1.0787922
  3669   6 C     3818   1 H                                       1.0813398
  3670   6 C     3819   1 H                                       1.0808601
  3674   6 C     3820   1 H                                       1.0807045
  3675   6 C     3821   1 H                                       1.0820106
  3676   6 C     3822   1 H                                       1.0797981
  3677   6 C     3823   1 H                                       1.0809714
  3678   6 C     3824   1 H                                       1.0809489
  3686   6 C     3825   1 H                                       1.0815258
  3685   6 C     3826   1 H                                       1.0795623
  3684   6 C     3827   1 H                                       1.0791036
  3683   6 C     3828   1 H                                       1.0806196
  3682   6 C     3829   1 H                                       1.0803936
  3550   6 C     3830   1 H                                       1.0878985
  3550   6 C     3831   1 H                                       1.0879068
  3550   6 C     3832   1 H                                       1.0875712
  3680   6 C     3833   1 H                                       1.0918057
  3687   6 C     3834   1 H                                       1.0925385
  3687   6 C     3835   1 H                                       1.0917649
  3688   6 C     3836   6 C                                       1.5379747
  3837   6 C     3838   6 C                                       1.3900940
  3838   6 C     3839   6 C                                       1.3826821
  3839   6 C     3840   6 C                                       1.3843020
  3840   6 C     3841   6 C                                       1.3829858
  3837   6 C     3842   6 C                                       1.3878966
  3841   6 C     3842   6 C                                       1.3833985
  3838   6 C     3843   1 H                                       1.0803282
  3839   6 C     3844   1 H                                       1.0808028
  3840   6 C     3845   1 H                                       1.0798554
  3841   6 C     3846   1 H                                       1.0803850
  3842   6 C     3847   1 H                                       1.0807482
  3836   6 C     3848   6 C                                       1.5309613
  3836   6 C     3849   1 H                                       1.0939191
  3836   6 C     3850   1 H                                       1.0914063
  3851   6 C     3852   6 C                                       1.3894396
  3852   6 C     3853   6 C                                       1.3850913
  3853   6 C     3854   6 C                                       1.3837723
  3854   6 C     3855   6 C                                       1.3845673
  3851   6 C     3856   6 C                                       1.3903363
  3855   6 C     3856   6 C                                       1.3834984
  3852   6 C     3857   1 H                                       1.0815848
  3853   6 C     3858   1 H                                       1.0811889
  3854   6 C     3859   1 H                                       1.0803709
  3855   6 C     3860   1 H                                       1.0805564
  3856   6 C     3861   1 H                                       1.0801804
  3688   6 C     3862   1 H                                       1.0957118
  3848   6 C     3863   1 H                                       1.0938299
  3848   6 C     3864   1 H                                       1.0934676

 * 2 distinct bonds (by element types)

   Z      Z             #   av. dist./Å        max./Å        min./Å
   1 H    6 C        1944     1.0851226     1.0973345     1.0771930
   6 C    6 C        1854     1.4192271     1.5407849     1.3807442


optimized geometry written to: xtbopt.xyz


           -------------------------------------------------
          | TOTAL ENERGY            -5104.091792844422 Eh   |
          | GRADIENT NORM               0.000747344242 Eh/α |
          | HOMO-LUMO GAP               4.093693053376 eV   |
           -------------------------------------------------

------------------------------------------------------------------------
 * finished run on 2024/10/08 at 03:59:39.138     
------------------------------------------------------------------------
 total:
 * wall-time:     3 d,  7 h, 32 min, 36.898 sec
 *  cpu-time:    20 d, 23 h,  0 min, 40.072 sec
 * ratio c/w:     6.324 speedup
 SCF:
 * wall-time:     0 d,  0 h, 48 min, 10.539 sec
 *  cpu-time:     0 d,  5 h, 46 min, 19.600 sec
 * ratio c/w:     7.189 speedup
 ANC optimizer:
 * wall-time:     3 d,  6 h, 43 min, 16.084 sec
 *  cpu-time:    20 d, 17 h, 12 min, 48.476 sec
 * ratio c/w:     6.316 speedup

