3864
 energy: -5104.221726103748 gnorm: 0.000832146541 xtb: 6.6.1 (8d0f1dd)
C           36.27946727793552       44.14776292081304       45.64197399132046
C           37.29067203792580       43.76757166616516       44.76693627362964
C           37.56567253446320       42.41365363667332       44.62689556466593
C           36.85107131647732       41.46283878493949       45.33394915746780
C           35.83741880549043       41.85385604383670       46.19096598061312
C           35.55512114408987       43.20124058633590       46.34438737876411
C           38.04692036718003       44.78561389089195       43.95207062301245
C           37.07911797495245       45.57355403725986       43.06477982028017
C           38.85573148249630       45.75143069977850       44.82733969793163
C           40.03372470004484       45.09072634157708       45.55948789849537
C           40.92831441887369       44.35227617060892       44.59592808232894
C           41.53435686161555       45.01038016338829       43.53207641553613
C           42.34176069641791       44.32879687367537       42.64054360949844
C           42.58145148671925       42.97521859133240       42.80609031826437
C           41.99331786585862       42.30957557181598       43.86740926703257
C           41.16497039194243       42.99053332149634       44.74396259869238
C           40.81233513361735       46.17776438691410       46.31794610765492
C           42.02709102371981       45.65101309303930       47.09398151048840
C           41.58788908205542       44.79330597631228       48.25449269731563
C           41.79283858743899       43.42023611302459       48.22755274607508
C           41.38085802520637       42.61495263867513       49.27468941963908
C           40.78537949757092       43.17620873131803       50.38984746835172
C           40.59757545921011       44.54673807319470       50.44083102814525
C           40.97971434737842       45.34521481440567       49.37703189997053
C           42.90045403034173       46.81570847104935       47.58974914283442
C           43.81677049176338       47.42417858037462       46.51459788664748
C           44.22897415633254       48.82050096596654       46.90843588702164
C           44.11846959648641       49.87283133145304       46.00763154034665
C           44.49638418492918       51.15444319404165       46.36358586684025
C           44.98903810246303       51.40870561783370       47.63194705829068
C           45.09135564596634       50.37297110277523       48.54143471828221
C           44.71171306021211       49.09373028533688       48.18094256360700
C           45.04386737302881       46.52643813092901       46.26984925681744
C           46.12506012221696       47.14880223830067       45.37423644673251
C           45.58069535692085       47.82806584938628       44.14445734351741
C           46.14621024337288       49.01461898230965       43.69459330796691
C           45.70889335520606       49.61715825422767       42.52815831374495
C           44.68486991684494       49.04296108796282       41.79589749945220
C           44.11190349029268       47.86296982901491       42.23834745513479
C           44.56599771317476       47.25132599373122       43.39188284339774
C           47.12820292220740       46.10220534632091       44.85528259711389
C           47.98117215546368       45.40395393003958       45.92012386768161
C           47.21826801703156       44.32208855975379       46.64129290340581
C           46.54609484102372       43.31935642463341       45.95129192291482
C           45.83909752780772       42.34520666197617       46.63147076813065
C           45.79401836224933       42.35326455583871       48.01514710927839
C           46.48427690217207       43.32781308070785       48.71375561849926
C           47.19519125729342       44.29701127421418       48.02956579785251
C           49.24107030168733       44.79190755428335       45.27642368571867
C           50.31809859118661       45.83960524920334       44.95199949312553
C           51.20877467866128       45.36783059854420       43.83024424614854
C           51.87530824605052       44.15077698045232       43.90776420693962
C           52.65740652001156       43.70010603471456       42.86072807855338
C           52.78392122283737       44.46272807512749       41.71098092261087
C           52.14691977711241       45.68834511097934       41.62766772549457
C           51.37024757751550       46.13457619972065       42.68298265047783
C           51.13749836065375       46.19729156819746       46.20176065129733
C           51.79783910828533       47.58303291948214       46.09045450756835
C           52.93283894889814       47.67815228181180       47.08056277969367
C           54.21981158704247       47.37447530633693       46.65009152014105
C           55.28908508529631       47.39690794361550       47.52660193449233
C           55.09620956394511       47.74977314653026       48.85172824899781
C           53.82234814569377       48.06409139288021       49.29222595107729
C           52.75063276595515       48.01562383746863       48.41662763643015
C           50.74860809116381       48.68410071372753       46.26464654406729
C           51.31552864589556       50.10302538854080       46.11475314309739
C           50.28270014583760       51.07954545572895       46.61320790152507
C           50.50388242285205       51.81295011030401       47.77075584679493
C           49.54496206124017       52.68578845882353       48.25415192821372
C           48.34650496866178       52.83316121191153       47.57924707304760
C           48.10897969146631       52.10555134216441       46.42634194236020
C           49.06993706871653       51.23346672783170       45.95076963458407
C           51.74916219537454       50.38994101760620       44.66432365056711
C           53.20244626489912       50.88612896792525       44.56445863417631
C           53.74428380799048       50.53437614494148       43.20252932235715
C           54.86605461825696       49.72442230415906       43.07821922859576
C           55.30295300417581       49.29894835351050       41.83611957205895
C           54.60363966145186       49.65749905203831       40.69784752971037
C           53.49013480701710       50.47384597337097       40.80660322491882
C           53.07725572874942       50.92394752752392       42.04631510653534
C           53.30396276002367       52.38884880522890       44.89314618723467
C           54.56634275820044       52.74280218603158       45.69825697608572
C           54.82678402355906       54.22967302439238       45.68732057479078
C           53.95372572544734       55.12373625688970       46.29890043985189
C           54.23035854512614       56.47905391332556       46.32311754656445
C           55.38042127995573       56.97269142001893       45.73123050299969
C           56.25069593458638       56.09382370955156       45.11110355643400
C           55.97347446529736       54.73770269243035       45.08829570194108
C           54.42906778416580       52.23669436399828       47.14053503674069
C           55.66419186777603       52.49879467472713       48.00994857663657
C           56.89715866332843       51.91648834246541       47.36431961303761
C           57.96024777882569       52.73266555476688       46.99981568795713
C           59.08682024583920       52.20423233497408       46.39370596258305
C           59.17310134519279       50.84705434785988       46.14201988691186
C           58.12004469282901       50.02385466936124       46.50039184618907
C           56.99509371545282       50.55295543214255       47.10634390064121
C           55.47423491184267       51.88573077236425       49.40665203031565
C           54.46857955047653       52.62026540022489       50.31504566333475
C           53.97190870059791       51.62469641208801       51.33314499925999
C           54.83340995209831       51.09893833721815       52.28938794095492
C           54.42129897332974       50.08503530741015       53.13215115838999
C           53.13974148853877       49.57327871157190       53.03038428410762
C           52.25734759173189       50.11903614795810       52.11501128538752
C           52.67123881249508       51.14058508326417       51.27683627253884
C           55.11421906969774       53.84854930317728       50.96153917429569
C           54.16952979877694       54.60195672905436       51.90970575784223
C           52.91791000441820       55.06123690733445       51.20734146328750
C           51.66894595705735       54.73822904951363       51.72508908080940
C           50.50472859543837       55.14365107446915       51.09552534967916
C           50.57305797093771       55.87331039343035       49.92140410513174
C           51.81148183935640       56.19959913123301       49.39351160263758
C           52.97314193398159       55.80455181711380       50.03258992441699
C           54.93992805009185       55.76768647510050       52.54819952184535
C           54.17412703945890       56.52092511389348       53.65485772742390
C           55.14495208339518       56.91829245825038       54.74105022131283
C           55.10832425310482       56.29610541881083       55.98189167478196
C           56.01487013844927       56.62926145204514       56.97340355647142
C           56.96520040841374       57.60841229108512       56.74417016006721
C           57.01022596606688       58.24156908753403       55.51315675220716
C           56.11383554776456       57.89146596288015       54.52060007863562
C           53.43868270084336       57.74269177256723       53.09201272709002
C           52.80515233573055       58.60904417742378       54.18991055540903
C           51.67443016422599       57.89055051068073       54.87511650946163
C           51.74989425350964       57.60647929285333       56.23250706684848
C           50.72808270758549       56.93201618409527       56.87714455460074
C           49.60425966545085       56.53986948259198       56.17038255634026
C           49.51264905366988       56.82627353928779       54.81840661181289
C           50.54058640211486       57.49187017623663       54.17646948540423
C           52.35235522988139       59.94920998947590       53.59989001053550
C           51.93656320914761       60.97571804755015       54.66035767899857
C           52.97630289087781       61.17388566612576       55.73566188535456
C           54.32380370020748       61.34457246513914       55.43814941447432
C           55.25029749573016       61.57255857461671       56.43889884389228
C           54.84348104504161       61.64422732220615       57.75992185705256
C           53.50587942227062       61.47145779556588       58.07189869183772
C           52.58436660267604       61.23484572929442       57.06747391528946
C           51.62414305715515       62.33111965871467       53.98427223301078
C           50.13752856825871       62.73067466752172       54.01049296860963
C           49.69897845417374       63.02426166014700       55.42631103949797
C           50.04501650364276       64.25026091231192       55.98637599765715
C           49.66670097315067       64.58559343301179       57.27289810031407
C           48.91350936877708       63.70085944756746       58.02612864689601
C           48.56262286618666       62.47745199736146       57.48489901520912
C           48.96318138709260       62.13819445607528       56.20397571941861
C           49.26653796933039       61.70039998101553       53.29113591357844
C           47.79616767156299       62.14860217090956       53.20290927961069
H           38.74397470937121       44.24715035003280       43.29897417700154
H           39.23832924863650       46.54910212640075       44.18824605458592
H           38.19945322732485       46.21715874537006       45.56489760898450
H           39.63758782920277       44.36849372214836       46.28342881917114
H           41.15179183689308       46.92926814273533       45.60385363784128
H           40.13135390447493       46.67937342659918       47.00987878786525
H           42.62398795493417       45.02658237424718       46.42041366049552
H           42.24924962673528       47.60383234601494       47.97616739562461
H           43.51511631486312       46.45173011898233       48.41669727907409
H           43.25280972007132       47.49935754151716       45.58047410814115
H           44.70805817732786       45.58368030523322       45.83214181953500
H           46.67080952426366       47.89731440611450       45.96195029617725
H           46.58275661681311       45.35651940629217       44.27563432730121
H           47.79354833227669       46.61120762292220       44.15331706939830
H           48.29766376771360       46.14814705945607       46.65916653134400
H           49.65987338134177       44.04649736673888       45.95763206612791
H           48.94697284934173       44.28581798574650       44.35339572183700
H           49.80748602648453       46.73994628325524       44.60120200535672
H           50.49257239055147       46.18178731471257       47.08199909031039
H           51.90983023977064       45.43951891213137       46.35576375937557
H           52.23386949440030       47.65791776039691       45.08745361142240
H           52.18985858293735       50.17656503275390       46.76827236368222
H           51.65835315097763       49.47822923262604       44.07009955588275
H           51.08688415894911       51.13214387988468       44.21591715754668
H           53.79500781213970       50.32242768194290       45.29137924059965
H           53.29682915942112       52.96504470904055       43.96407971967858
H           52.42744737430937       52.69085323297353       45.46981797028619
H           55.42102062975346       52.24380967648870       45.22733871626709
H           53.56335092041419       52.71686396875236       47.59786534165170
H           54.24049885403205       51.16168594833584       47.12950192730636
H           55.80409114986281       53.58049837234226       48.10832718502410
H           55.14328568853005       50.85005525258804       49.28814972895513
H           56.43923123535946       51.85856337193857       49.91768333510446
H           53.61412757335312       52.95658787209367       49.71992825548971
H           55.99434829267319       53.53418056315288       51.52766460588153
H           55.46431063830455       54.52554780299111       50.18052163713609
H           53.87303344338584       53.91200696708918       52.70935240705172
H           55.85644635398143       55.35949321677586       52.98273008510623
H           55.24402116781765       56.46927750507191       51.76986709915342
H           53.43331472177665       55.84610982607423       54.09735067576603
H           54.14658706697251       58.35830057506217       52.53454640297064
H           52.67304077468356       57.40898703860711       52.39175232364575
H           53.57594940932839       58.81979345863503       54.93950010415452
H           53.17052900830194       60.35975280325461       53.00843701689134
H           51.51509561944469       59.79290435086808       52.91879809355672
H           51.03620617409591       60.60973836446666       55.16100892629278
H           52.19824709077284       63.12090718504001       54.47593495045670
H           51.94385422598631       62.29814360902989       52.94020205985935
H           36.05317383043824       45.19555228705111       45.77657557486434
H           34.76778575169595       43.51495190079641       47.01570803211885
H           35.27494785342766       41.10781049353999       46.73566003191648
H           37.08276065583183       40.41414765623048       45.20535086202493
H           38.34782484236730       42.09814514157270       43.95087154091186
H           41.36916104472136       46.06733391019861       43.38941827975324
H           42.78447987950108       44.85789373897997       41.80841383800011
H           43.20941814297312       42.44187412721931       42.10633664262484
H           42.17649128541451       41.25253211295892       44.00649296244013
H           40.68868680548288       42.45611543743784       45.55521567132251
H           42.28617442037611       42.98047513058484       47.37135393802069
H           41.53222106676380       41.54646070589187       49.22417323717062
H           40.47948922382841       42.54716370457563       51.21360738348778
H           40.15501533869035       44.99360344702324       51.32021171164216
H           40.81223049462577       46.41251076325135       49.42616649870368
H           43.73235425351372       49.69097966821651       45.01470728623057
H           44.40084224842491       51.95500527746462       45.64370852441393
H           45.29215834010086       52.40588606523045       47.90959118528140
H           45.45876680637836       50.55400632391223       49.54164108801119
H           44.78273421424982       48.30449731045472       48.90966490555671
H           45.49973103091585       46.28307752958580       47.23113119525777
H           46.93159608659150       49.47792322890358       44.27550994139094
H           46.16503717485804       50.53655973351761       42.18868780675302
H           44.33382567869061       49.50697582335059       40.88543697470298
H           43.30188132097766       47.41751057576068       41.68052604699940
H           44.12462460966724       46.31754129386594       43.70799563601288
H           46.57152197748265       43.29498964277886       44.87109191795763
H           45.32370465763320       41.57035351190702       46.07970526418205
H           45.23733581945018       41.59311134008465       48.54278582368460
H           46.46780355192805       43.34148386947060       49.79477602953327
H           47.72873435032514       45.05478040344269       48.58597169639614
H           51.77733869474508       43.54676867151007       44.79808072999842
H           53.17314957167770       42.75271439592312       42.94079909634159
H           53.37914610760152       44.10353088648614       40.88239178506491
H           52.24709741493678       46.29256826362043       40.73658262378563
H           50.87556292439697       47.09316213784318       42.60470014899639
H           54.38227832259933       47.11941148016236       45.61152251625959
H           56.27781138730159       47.14135865591921       47.17162873972848
H           55.93182921623687       47.78501217107335       49.53643813131433
H           53.66393310043323       48.34896285742411       50.32318062057793
H           51.76671066126284       48.25181937640340       48.79098049710571
H           49.95147888489234       48.54593876656178       45.53273081968739
H           50.28756160952153       48.59329929328019       47.24998890246104
H           51.44063724415714       51.69402795185343       48.29827367908359
H           49.73428142961879       53.24893414446523       49.15756887011654
H           47.59669462688961       53.51733457066536       47.94209556194892
H           47.17470773986874       52.22309001201501       45.89807118618373
H           48.87957978036644       50.66969381433309       45.04792491389031
H           55.40264448070149       49.41180456536785       43.96377986983267
H           56.17587293209370       48.66663535488120       41.76308811481194
H           54.92366762724235       49.29951588990870       39.72966743071566
H           52.92318372376450       50.74442705639762       39.92681891470327
H           52.21446386357599       51.57039431156299       42.11931185214109
H           53.05136007441970       54.76121053365901       46.77035119943648
H           53.55374332089019       57.16283386364886       46.81452189591973
H           55.59731701212753       58.03197082946623       45.75565030107280
H           57.15606804312480       56.46679502075121       44.65364473033227
H           56.66317520985108       54.06378619543784       44.60050281770386
H           57.89925445895773       53.79761785007880       47.17766060278719
H           59.89743644577501       52.85703634900182       46.10593306184173
H           60.05065873188400       50.43537208754959       45.66502592127740
H           58.17769016454599       48.96371050336305       46.30059558926635
H           56.18358775663442       49.89302957014820       47.37683772893080
H           55.84405911004283       51.46900409894609       52.36692878124737
H           55.10113123291542       49.67800049339621       53.86497062806359
H           52.84747309310446       48.74861801166396       53.66293782949158
H           51.24703989799491       49.73933988357534       52.04222915010261
H           51.97501300739179       51.55964413959608       50.56368182611713
H           51.60131170171402       54.15818609623624       52.63479844181443
H           49.54671160327559       54.87814103465681       51.51973592602998
H           49.66826361038260       56.17857940477829       49.41507167224665
H           51.87176827164830       56.76201521525284       48.47247064639067
H           53.92913812070366       56.07467458342731       49.60731670583314
H           54.36291582618109       55.53773140017783       56.17619178960555
H           55.97330637124482       56.13008646952970       57.93136659527688
H           57.66431839608756       57.88064340438187       57.52334715096853
H           57.74672555481097       59.01210973810164       55.32779712485117
H           56.16780419211994       58.38590948794489       53.56365393563997
H           52.62165771009586       57.91790009753267       56.79180840332338
H           50.81419093387245       56.72208580898706       57.93446802592010
H           48.80315688214132       56.01154488286428       56.66900520086526
H           48.63929488130970       56.52283422464958       54.26004280630619
H           50.46085472524557       57.69786512281783       53.11925272367860
H           54.65952415385695       61.29930949190824       54.41535100638592
H           56.29595616471457       61.69548501834644       56.18946855025999
H           55.56710026305286       61.83499694586941       58.54056345915886
H           53.17831353308382       61.51557135245249       59.10158982410195
H           51.54240831044061       61.10256331793718       57.32419128281938
H           48.67573645964725       61.17440444247215       55.81460425884060
H           47.96965156475331       61.78394076955308       58.06349293171007
H           48.60038071007543       63.96563800347069       59.02639744285912
H           49.94907035360449       65.54437939117824       57.68592354590007
H           50.61601896583253       64.95800203951082       55.39976458033973
H           36.42150703856913       46.19403923616614       43.66872133617739
H           37.63337839604947       46.22069112298589       42.38794028899765
H           36.46999035181263       44.89292624825092       42.47198682947998
H           50.06113066606360       63.67284192570637       53.45115455480749
H           49.66457849511504       61.55663771949168       52.28521620936259
H           49.32257585999048       60.74094182062109       53.80458835889144
C           46.87626702989022       60.92333995286685       53.16035910182911
C           47.60309104762984       63.06882922955320       52.02411056493581
C           47.56163633549153       62.58679642748596       50.72115519974503
C           47.37807959528522       63.44116323505553       49.64830977209572
C           47.23963471798110       64.80233252092550       49.85983720258922
C           47.29828981589857       65.29945426882257       51.15124952590511
C           47.47976550875072       64.43959868426285       52.22126878502798
H           47.66106281922731       61.53026146049617       50.53355236093250
H           47.33736989430694       63.03897295811435       48.64594302807862
H           47.08261477048166       65.47401202167303       49.02732254240548
H           47.19625934281339       66.36228235734394       51.32683117593774
H           47.51909764861299       64.83865294127898       53.22684367275425
C           45.39732987903145       61.30651219633369       53.05837752048782
H           47.14225830705114       60.29077424622412       52.31368241851933
H           47.02974519200880       60.34651811970256       54.07479011554476
C           44.94994747655561       62.12657758263901       54.23296188719619
C           44.79217011145415       63.50293866513314       54.13135008827771
C           44.38719386870037       64.25356750887477       55.22106959899746
C           44.13659298771459       63.63592371559909       56.43422893235684
C           44.29604351799825       62.26537442999926       56.54992759823581
C           44.69674088972586       61.51871756902249       55.45694911297069
H           44.99144542035326       63.99698107597924       53.19063834946531
H           44.26406737204734       65.32393621621605       55.12283243308578
H           43.81740806537365       64.21994291253665       57.28641272635333
H           44.10055624549720       61.78508040167844       57.49798939795501
H           44.81300998133441       60.44745472629253       55.54920110550789
H           47.55051533218673       62.71269557800093       54.10925182631329
H           45.24521072220330       61.86670197974295       52.13626567940809
H           44.80171787189987       60.39157346567274       53.02293159643004
C           36.96815080574349       57.82271376240477       54.52985991194254
C           37.63359837926592       57.06137921382113       55.48598080865558
C           37.30954131052214       57.25425845640319       56.82252575358783
C           36.35442987302175       58.18344663450100       57.19740009560530
C           35.70542122817631       58.93845450043367       56.23610025808718
C           36.01624546805397       58.75558531047443       54.89899029899944
C           38.65807035520716       56.02741469358939       55.09663087143665
C           37.98174165496251       54.92779497271779       54.27280438252101
C           39.84790006146243       56.61814217497850       54.32693729570046
C           40.67699898158891       57.62897574306646       55.14236317825817
C           42.12573570112507       57.56518458031396       54.72601427580997
C           42.50923463395308       57.89997274375868       53.43260578876880
C           43.83774214266046       57.86260677497175       53.05263220751041
C           44.81175478823297       57.48137783176274       53.96061422556281
C           44.44157995347472       57.12653888153180       55.24576384932867
C           43.10872161610698       57.16521920168184       55.62170328287338
C           40.13352872612866       59.05718999246675       54.98026153794989
C           40.94155638291614       60.09346619483200       55.77240217169338
C           41.01549945556707       59.69979133860064       57.22781089168406
C           39.86439417295064       59.53802573122324       57.99108537887639
C           39.94235365760134       59.15557218728308       59.31800672507777
C           41.17388484108555       58.92811642301985       59.90905149431801
C           42.32716428776707       59.08679429003363       59.16095410991360
C           42.24400017174855       59.46852280677430       57.83329656578017
C           40.34643258548336       61.50854833480881       55.66029734054226
C           40.11924237452335       62.02894948042452       54.22898729530151
C           39.45626455595171       63.38087202414012       54.30722874984771
C           38.12150167597829       63.52468676198820       53.94907339299807
C           37.49141885491466       64.75409781313500       54.02477574493103
C           38.18983334315006       65.86522068692723       54.46411440286710
C           39.51886821192985       65.73370517586793       54.83053159115833
C           40.14465682286605       64.50262229832184       54.75500541320390
C           41.42009854601321       62.08118698494960       53.42316401862938
C           41.23319162414025       62.58328085370571       51.97952903730965
C           40.18907707497234       61.76368423419603       51.26706423319126
C           40.35900934736279       60.39972073214812       51.05825336667920
C           39.37096183189271       59.64104554276168       50.45672019239899
C           38.19399965606156       60.24146509125482       50.04357432940925
C           38.02330301987090       61.60437318788161       50.21727464094023
C           39.01259687583688       62.35699355923836       50.82581587523731
C           42.59857218601664       62.52404462103892       51.28084434087630
C           42.57879362938760       62.80929637098801       49.77493664551464
C           42.36584348865242       64.26873820089503       49.47476621874568
C           43.29087745417547       65.22790709851039       49.87092745014832
C           43.10534978825129       66.56147845736028       49.55592835541291
C           41.99414273986563       66.95972582888780       48.83221050447963
C           41.06833462093338       66.01417810963792       48.42791868260358
C           41.25422695026347       64.68197586030675       48.75132888346336
C           43.89189494062317       62.33059550374035       49.12529898302731
C           43.94148699960935       60.80582462057219       48.93836376525913
C           45.35534305443133       60.33458321172567       48.70644398867994
C           46.02587495224634       60.58918676628259       47.51540201718689
C           47.29312661155343       60.07817843011617       47.29980029664806
C           47.92333412217482       59.32235863530877       48.27277661014757
C           47.27913908007516       59.08884267921162       49.47530487420948
C           46.00459432302276       59.58813695450275       49.68270354708243
C           43.02236782940458       60.37917163496238       47.78822995905598
C           43.10260903264983       58.87870098073331       47.46235987018585
C           42.57479489525496       58.68936407355051       46.06282972152003
C           41.23071818376620       58.87774249511432       45.76827542511368
C           40.76404428541999       58.77958451871790       44.47032796057871