3864
 energy: -5104.247542366475 gnorm: 0.000820301791 xtb: 6.6.1 (8d0f1dd)
C           32.29687099598311       42.04269850229544       41.21066272489148
C           31.64340316233367       42.35354257575353       42.39667183809978
C           32.09525950770369       41.76590325888838       43.57307539771480
C           33.17665541823403       40.90477272813302       43.56363316678883
C           33.82605749926533       40.61036279107026       42.37713234716479
C           33.37921842421525       41.17995409561595       41.19792782953530
C           30.47619773422850       43.31104173076260       42.39695017233678
C           29.17803514119881       42.55932368567182       42.70146740356552
C           30.69168269772953       44.44592365082110       43.40646235941556
C           32.01523995562937       45.18165352760025       43.15786655992128
C           31.91917006232171       46.03911942408619       41.92294544624502
C           32.65540373864206       45.71730880273680       40.78932437435285
C           32.54639559263119       46.46606392046625       39.63054313026594
C           31.69622300753502       47.55830771026583       39.58885396217194
C           30.96408777567154       47.89572446193288       40.71495522064187
C           31.07452469976620       47.14228799598985       41.87015691586740
C           32.44904006745767       45.98355062543447       44.39109065277101
C           33.90662293862458       46.43890873595618       44.26990934090784
C           34.83645519793885       45.28212963785751       43.98877177090478
C           34.80002861639895       44.11195714744103       44.73745212828146
C           35.67916953770115       43.07759371046211       44.47556325834873
C           36.61960341517097       43.19431175563363       43.46696304379667
C           36.66837054424902       44.35502574324065       42.71561352153837
C           35.78297797017726       45.38469181340660       42.97772925479303
C           34.40120427302467       47.16949506079096       45.53058776350783
C           33.90425280306954       48.61764146295005       45.63720904486015
C           32.48539574187997       48.71026562409208       46.14404208199643
C           31.51096298709977       49.36570505720294       45.39983357962048
C           30.21475491564260       49.48738717954012       45.87086374160540
C           29.87648876758504       48.97506456791222       47.11191300853796
C           30.83871820405471       48.32519923719811       47.86629413193158
C           32.12566121304523       48.18652960217304       47.38022095522026
C           34.79721368505778       49.47128160089134       46.55749978283186
C           36.25963033540937       49.65252071982008       46.10738585918274
C           36.95753812234658       50.49002683166475       47.15080531817485
C           37.82598100343131       49.88898601212493       48.05255191746548
C           38.42167605836602       50.62234199164999       49.06249267770232
C           38.16541859407592       51.97689961484656       49.18388345362366
C           37.31512239848303       52.59088363424828       48.28156670189639
C           36.71502231528294       51.85275168484272       47.27625621889871
C           36.35575306581497       50.25332280622700       44.70301900376419
C           37.79205104176788       50.56786261177650       44.26207735276916
C           38.71582795237394       49.38966699698103       44.43453552210741
C           38.45845939911290       48.17688977190382       43.80300356393553
C           39.34776650339112       47.12250895148772       43.89773329004833
C           40.51556837965365       47.26117931554607       44.62924014553803
C           40.76665370309628       48.45050848877435       45.29063492679797
C           39.87407479204366       49.50457503192703       45.19199418861913
C           37.76719971618753       50.99368656581559       42.78786288872606
C           39.11076933241209       51.53826100660143       42.27873685246195
C           39.23626687864692       52.99882670101538       42.63147442046527
C           40.17723336877798       53.44502786421702       43.54923370807941
C           40.26892973142458       54.78739073325605       43.87803963871860
C           39.41977064749841       55.70698920600002       43.29042822885290
C           38.48382323100319       55.27503565693625       42.36713570824116
C           38.39240124142160       53.93506616705182       42.04342966053299
C           39.22221420892782       51.34182894022165       40.75808093660759
C           39.56932072907802       49.89466330458673       40.36521259597665
C           41.06242005897153       49.67940318378690       40.37893320185745
C           41.88108792617150       50.23601656938970       39.40217779905434
C           43.24776511918155       50.02573906471691       39.41479619094576
C           43.82268181919911       49.26740739900359       40.42001561675421
C           43.02183064543471       48.72025859255472       41.40641612780590
C           41.65247939510109       48.91673531222185       41.37863191623044
C           38.97390419421772       49.53351414711901       38.99514345377097
C           37.44043142211132       49.34902900506192       39.04445100666086
C           37.06296477356479       47.95183570153915       38.62102603608407
C           37.43063187940851       47.45618300771966       37.37449768711082
C           37.10059741309895       46.16799424068682       36.99586089318569
C           36.40459818515912       45.34411524010224       37.86461396117873
C           36.04153367825771       45.82075663364350       39.11193544039142
C           36.36454072068661       47.11501607477771       39.47981262345898
C           36.71949021041051       50.39788277020492       38.18555241786844
C           35.19867785694665       50.38027901165513       38.38134829337813
C           34.80356496730771       50.72449572697143       39.79580578521185
C           35.05880344401592       51.97940121342221       40.33789797204413
C           34.61538739020623       52.30544037328379       41.60713848924591
C           33.90823947362541       51.38180839829003       42.35892892937376
C           33.66230936145536       50.12505108909357       41.83513836994342
C           34.10890499743046       49.80197551777490       40.56630202637183
C           34.50651499297921       51.36257751489002       37.42186990525876
C           34.44482733898882       50.85171258246159       35.97498556242198
C           33.48954649531121       49.68745059452784       35.90278135555813
C           32.11272128133370       49.87676417290938       35.93235649887875
C           31.24859068065799       48.79659472395350       35.91560196006948
C           31.74655275731178       47.50436251349935       35.88025868075794
C           33.11539978063408       47.30291414350684       35.85520153070765
C           33.97667557248985       48.38590016449479       35.86258939408518
C           34.06390710831332       51.98635629905306       35.01055821931391
C           35.24058760284457       52.93085274314174       34.70094476758293
C           34.73308514103742       54.24159936314742       34.15454334353790
C           34.98729612722061       55.42822171248596       34.83085006129780
C           34.51864597267529       56.63863663030492       34.35147704504390
C           33.78512963388022       56.68028944685762       33.17871482230691
C           33.52525531698732       55.50494134484295       32.49345598607881
C           33.99389311833863       54.29716747569337       32.97860951599311
C           36.23182970928485       52.27292506490755       33.73423269990618
C           37.49068097104821       53.11291601021826       33.45274437231536
C           38.10183605027121       53.64134324592021       34.72383702070812
C           38.50961538270368       52.79250060653743       35.74717074195256
C           39.04194211214435       53.29752205862755       36.91948448330264
C           39.17558400694454       54.66432758457355       37.09349166799861
C           38.77886177809975       55.52000603935749       36.08016402631012
C           38.24723722812902       55.01163075550412       34.90781043040715
C           38.45731984369837       52.24064562218311       32.63620238245543
C           39.72223288880078       52.94772531032945       32.11727210470463
C           40.17143983278985       52.23378854516760       30.86666997727448
C           40.09583358236376       52.86352288753203       29.63106799192617
C           40.46206535969070       52.20289411329215       28.47156017048791
C           40.90182635247858       50.89187807024331       28.52920316042940
C           40.97018151753253       50.24982726362169       29.75398518695987
C           40.61192330837707       50.91610655612367       30.91179460329608
C           40.82738749545855       52.99116155183907       33.18325293643407
C           42.19414163798767       53.43484282004713       32.63817236755308
C           42.06500708046693       54.62225555459201       31.71922553468811
C           42.55520394348567       54.56926706478509       30.42154064524164
C           42.44078008769735       55.65689245650249       29.57274226063302
C           41.83336764803147       56.81921108080113       30.01279900754957
C           41.34415300061676       56.88568389480441       31.30662683697096
C           41.46085599924559       55.79735568356498       32.15054353850538
C           43.16447662815740       53.80767647916421       33.77202303150468
C           43.53897218684961       52.65431546768538       34.71621058351504
C           44.28582199986348       53.21468127453964       35.90083497187940
C           43.76451208857885       53.13713544520784       37.18452000195542
C           44.48104027403503       53.61421249221164       38.26907463950246
C           45.73207353598355       54.17486307199405       38.08296277024874
C           46.24925115629001       54.28318830320509       36.80360047966285
C           45.53005042463285       53.80799126020364       35.72341049988518
C           44.39085681213581       51.57019658095314       34.02319723078284
C           43.69497898271083       50.20692881056324       33.87758062357344
C           44.53609394031135       49.34375142023908       32.97055764209411
C           44.09720397430868       49.04335622037939       31.68743893232156
C           44.86420142459755       48.26974570726546       30.83405516774967
C           46.09276305187454       47.78798481398183       31.25126991649281
C           46.54807314894435       48.09473084986907       32.52226827831322
C           45.77833175536590       48.86615211523215       33.37349765398628
C           43.46372901553933       49.53615293161685       35.23684900289484
C           42.77579100434821       48.16760055480927       35.10800415244724
C           41.42678380137908       48.29708935295467       34.45047985662492
C           40.37711847713381       48.96773762407953       35.06816884698876
C           39.13901786157558       49.05235614675143       34.45640685770124
C           38.92542355383540       48.47682047230454       33.21555833257901
C           39.96761721825904       47.81816178705225       32.58643776414764
C           41.20484619067853       47.73077777681386       33.20076507564973
C           42.67446628967446       47.50477051928910       36.49116613674364
C           41.86730373425873       46.19751541774293       36.48586506816977
H           30.39414054407409       43.75221261716293       41.39625343382460
H           29.85528607442711       45.14498861066468       43.34464298605018
H           30.70195648972376       44.03251324573070       44.41573042364396
H           32.78068577789715       44.41795603607722       42.98089192691749
H           31.80553879535332       46.85319418915888       44.52287818754947
H           32.32995739556513       45.35997630581344       45.27999716172882
H           33.97471603124648       47.13001825841255       43.42039650721438
H           34.10626596835674       46.60216614671757       46.41461460536974
H           35.49216302156324       47.17775366918030       45.49223834536968
H           33.93064110752891       49.06098741228934       44.63787929661939
H           34.79793863504653       49.02922875102247       47.55630548364090
H           36.75211554998252       48.67401649318862       46.08849355631667
H           35.92207756552516       49.55052793686762       43.98953610897225
H           35.76856173485722       51.17207776669807       44.65063294663322
H           38.17074213552451       51.40150332596080       44.86448859666064
H           37.47115961176302       50.13094171681484       42.18828844146799
H           36.99587680873230       51.75411644843367       42.65170140925585
H           39.92371513654316       50.98277589425359       42.75909377507561
H           38.27024340856936       51.62124300126066       40.30687392542043
H           39.99045835789597       52.01316996669095       40.36507810546900
H           39.13714037896444       49.21101055599804       41.10339959880439
H           37.09999614646537       49.48645735319817       40.07566736728634
H           37.09708825802602       51.39125189109890       38.43388156312437
H           36.94684207608412       50.21209765753333       37.13552346765900
H           34.83201959493042       49.36995574047784       38.16685756211703
H           33.48569439201648       51.53788834422653       37.77117214549984
H           35.03116593143357       52.31861946255334       37.44648888278154
H           35.43267074079798       50.48080499461035       35.69245228536651
H           33.69482646952171       51.55374369320315       34.07818215311772
H           33.25312411165664       52.57435195929612       35.44602568011450
H           35.76811540410034       53.14423266649667       35.63513840427010
H           36.53966572378675       51.31088395525286       34.14542567792522
H           35.73310261075583       52.07179620695958       32.78394616895294
H           37.19727988190086       53.97198358904775       32.83776918585529
H           38.75606534870415       51.37335159866429       33.22618358586313
H           37.90164921429579       51.86709165623129       31.77101103741895
H           39.46077461888402       53.97509409152848       31.84180625258328
H           40.51772170304215       53.67178927134913       33.97632984010790
H           40.93100053936162       51.99731445525757       33.62158582546145
H           42.62259651627643       52.60847078968884       32.06101776853332
H           44.07331169451984       54.21778218798163       33.32389262980298
H           42.71589303352376       54.60704918459673       34.36715355002363
H           42.61070580215222       52.20744729918036       35.07996538553078
H           44.67536941384898       51.91420650256246       33.02589924542149
H           45.31518474328070       51.41717175586701       34.58487091497683
H           42.72383088370465       50.36026962498530       33.39414988562323
H           44.42033806168984       49.40393412907243       35.74457742693291
H           42.84973233015036       50.18752216793700       35.85974146235338
H           31.95660698026895       42.48777711190833       40.28513447762426
H           33.87690931180025       40.95491574691343       40.26498141510432
H           34.67485803361549       39.94173619020918       42.36958626981929
H           33.51446107303928       40.46488317646833       44.49050666044275
H           31.60850857983149       41.98827701400514       44.51109827199755
H           33.31598702291853       44.86106455799373       40.82080056652454
H           33.12819404142773       46.20534248478258       38.75709157798862
H           31.61090653709258       48.14304377414513       38.68402905991758
H           30.30375988286901       48.75114733283228       40.69045404608904
H           30.49319731701738       47.41572945833606       42.73978370463675
H           34.06598055688198       43.99567907954903       45.52122332818487
H           35.62248531034546       42.17000573892140       45.05872384653954
H           37.30484356811006       42.38312358999796       43.26335113157058
H           37.39147782666154       44.45795731414786       41.91901693747693
H           35.81965627654610       46.28301027072897       42.37831152410222
H           31.76406341095959       49.78340474855782       44.43467658960603
H           29.46696139757642       49.98762036698540       45.27057573745228
H           28.86831191074766       49.08067556795245       47.48769789395842
H           30.58695799103879       47.92957089891123       48.84052516533703
H           32.85651325498910       47.66567693092977       47.97909533333194
H           34.33858319047111       50.46073673104841       46.64220287784995
H           38.04400961079547       48.83343064504299       47.96078720881218
H           39.08869924386855       50.13186874668585       49.75532779572068
H           38.62841747738970       52.55460513640192       49.96980573876193
H           37.11754930820971       53.64973331703451       48.36407300376620
H           36.05215471336462       52.35046273186848       46.58287858503193
H           37.55364678503263       48.04915556390569       43.22511779424692
H           39.13854264024332       46.19094408925194       43.39132421181524
H           41.21627760374085       46.44087325238887       44.67570289148060
H           41.66571471975259       48.56277188098105       45.87971089289893
H           40.07900929492961       50.43372990636700       45.70682787942989
H           40.84861172618924       52.73487611320191       44.01014858995458
H           41.00076665876223       55.12098215524377       44.59944536913787
H           39.48049602716144       56.75313788683181       43.55290076543341
H           37.81862669170718       55.98467657255059       41.89922935490360
H           37.65133462081133       53.61476779901501       41.32559342678957
H           41.44780567653631       50.84193888722170       38.61881831376770
H           43.86281581674880       50.45975685519628       38.63960734182278
H           44.89159477510933       49.11058722355464       40.43836917293694
H           43.45934780892356       48.13514703842262       42.20111700996124
H           41.03512194878104       48.46964313549187       42.14507878316621
H           39.22508307611605       50.30847345391113       38.26969869020736
H           39.43871788942641       48.60519100412862       38.65758273144314
H           37.99399957074264       48.07405039986961       36.69174567146903
H           37.39256487709568       45.80239577815512       36.02065082079023
H           36.15196520392941       44.33405998455567       37.57277812256502
H           35.51084348515257       45.18130042163531       39.80274890853981
H           36.06950138071459       47.48230272269947       40.45269886637964
H           35.59371051230146       52.71704910657285       39.75751319799605
H           34.81198885405750       53.28868032005781       42.01158916319509
H           33.54734635399997       51.64519423568411       43.34323789956320
H           33.10500748798777       49.38901523295313       42.39874931292386
H           33.89524308133089       48.82288676178939       40.16142646084518
H           31.70802807476725       50.87744024012365       35.96995368189202
H           30.18039265686019       48.96167258689218       35.93724748394506
H           31.07041061894603       46.66153418771750       35.87736051620164
H           33.51599157736467       46.29907787052821       35.83124383409125
H           35.04347791970945       48.21011445822536       35.84377061576850
H           35.56486364638548       55.40977069908898       35.74282379308814
H           34.72620707964010       57.54840717617904       34.89680221967276
H           33.41639143090188       57.62284514434027       32.79996799318455
H           32.95232286671177       55.53037833778755       31.57712774099665
H           33.77726505180216       53.38989113473934       32.43359702568551
H           38.41475712237582       51.72537673991686       35.62491291765409
H           39.35230255413482       52.62636368298683       37.70730018307074
H           39.59129321644456       55.06085018910839       38.00849774225257
H           38.88734797001199       56.58779315450793       36.20311110067529
H           37.93515245728187       55.68835616883984       34.12357965855915
H           39.74757200254558       53.88586889033329       29.57491577009025
H           40.40041873685260       52.71174095334160       27.51994272338533
H           41.18397313831244       50.37199848104056       27.62483431487617
H           41.29867675398918       49.22092503628497       29.80425630325484
H           40.66322319330397       50.39686241088190       31.85730892065395
H           43.02472170238774       53.66156788889202       30.06569709354390
H           42.82382064114819       55.59570264914016       28.56324036196105
H           41.73880529592370       57.66516883454721       29.34625831016985
H           40.86626961219515       57.78907812615874       31.65985263640380
H           41.07220817962168       55.86091723182494       33.15553855607394
H           42.78837892785887       52.69921236253063       37.33906226586871
H           44.06015502476568       53.55396260323331       39.26280627657655
H           46.29288799175242       54.53616788308392       38.93063147483102
H           47.21799950542542       54.73730278336730       36.64398692383182
H           45.93871530371150       53.89362338309105       34.72853260634076
H           43.14276132115877       49.42295533661481       31.35112707609842
H           44.50332332698423       48.04379128071822       29.84002724877492
H           46.69294302168766       47.18172719089747       30.58764171856519
H           47.51060852488461       47.73191756774912       32.85244995508466
H           46.15678552359828       49.09711573637590       34.35796808626754
H           42.01290925745449       47.20943201967574       32.70577886818718
H           39.81414458458719       47.36888613211518       31.61530201306688
H           37.95747890977004       48.54446902020735       32.74014385147042
H           38.32414227317056       49.56494855687672       34.94878084877001
H           40.52424845238944       49.41631042044587       36.03948142220261
H           29.01896774282211       41.76522421048652       41.97479245471651
H           29.22095254621189       42.11431821311106       43.69247242132215
H           28.32928740506874       43.23860246922453       42.66293130639196
H           43.39848971929010       47.53138014934184       34.46832699145796
H           43.68727969791156       47.30360525017131       36.84466118459075
H           42.21454975473941       48.20226631063321       37.19247395483761
C           41.94940498799050       45.48031789938130       37.84302858523854
C           42.34577186086525       45.25554825064106       35.40980970157712
C           43.65493979959671       44.78840117806624       35.39675410548042
C           44.08808192235095       43.92107493970055       34.41134809199253
C           43.21638373622660       43.49807392575187       33.42233138801271
C           41.90644169630173       43.94432266816683       33.43264879034960
C           41.47736148045737       44.81375981689881       34.42023135962719
H           44.34492822561744       45.10104208263328       36.16482011760588
H           45.11046163760199       43.57088160713703       34.41257698761077
H           43.55477655137816       42.82185860057625       32.65012362664230
H           41.21696159608815       43.61468186222281       32.66784771040950
H           40.45215016298872       45.15788023227710       34.41829925571007
C           41.21097677708423       46.20841377245923       38.97022716794072
H           41.52369428669210       44.47819515869821       37.73427834138496
H           42.99807863332657       45.35984407775621       38.11875918936631
C           41.44679267233573       45.53024337281366       40.28912696607461
C           42.70279909456487       45.59292748035972       40.88135355176041
C           42.94537313664767       44.98022032005287       42.09565172897739
C           41.93401263085605       44.28572433711867       42.73710954518407
C           40.68276483856791       44.20660605427901       42.15161495345172
C           40.44189307153769       44.82557362802717       40.93601540210742
H           43.49192325936076       46.13948904636060       40.38625509180343
H           43.92508167366126       45.05157122338493       42.54574006760847
H           42.11314772591292       43.80949547495675       43.68974481597229
H           39.89178797495217       43.66265036771174       42.65027973722286
H           39.46041174116873       44.76692712926745       40.48224264363703
H           40.81666105593511       46.43691421449849       36.28566979017873
H           41.57519412036714       47.23472660151426       39.04070856404948
H           40.14124118858222       46.23266451659114       38.74703833752268
C           60.28839100718665       53.31930455449753       52.84885756528877
C           61.37422559020148       53.04598994965452       52.02637445003646
C           62.49044758141846       53.86977514824817       52.11301346314256
C           62.52979129900917       54.92573595162676       53.00487968581673
C           61.44327822730261       55.18076568237344       53.82322137092773
C           60.31962667501549       54.37812215752700       53.73917927440039
C           61.32312338522149       51.89957320000198       51.04886876690038
C           61.54027605543613       52.39366121521469       49.61638180002652
C           62.35455902859485       50.81348034460635       51.37934929596843
C           62.12395428543107       50.09350675646771       52.71889222794546
C           60.71319110141190       49.57181729437360       52.79420951776899
C           59.85068847642741       50.01697935054128       53.78712906659792
C           58.52741110274446       49.61364762961537       53.81623809074272
C           58.05203649988565       48.73585574012598       52.85723917231243
C           58.90753568210135       48.26379578136104       51.87581145549236
C           60.22528474432758       48.68116372047033       51.84450354565848
C           63.15562802438166       48.96361176587257       52.84241513958109
C           63.07503389978842       48.15082798524604       54.13911136487082
C           63.38578494289160       48.98251303646351       55.35828701270763
C           64.58217078772185       49.68401753970033       55.46093650859242
C           64.89066832015885       50.40345713373203       56.60106548904294
C           64.01410836279129       50.41723604184297       57.67208319401530
C           62.83172500196017       49.70441356018600       57.59130231765293
C           62.51638146191721       49.00203981807010       56.44109309717633
C           64.05205949844651       46.95302036073699       54.09861253260410
C           63.43012240034179       45.66565282040671       53.54654220035053
C           62.95711220622328       45.78339685391843       52.11960276117188
C           63.83667773989028       46.12640262662143       51.09738876148066
C           63.41397138667644       46.14474884638064       49.78000281443507
C           62.10901220618474       45.80494785380759       49.46226047000808
C           61.22327031474366       45.47146952974673       50.47181933931108
C           61.64719547154840       45.46375938363615       51.78842015272600
C           64.42140019748935       44.48827723842270       53.57193738707387
C           64.81636172103076       43.95623348993387       54.95682695310585
C           66.01714406692271       43.05633606108287       54.79476601239004
C           67.23408452252146       43.39372082797968       55.37301180520499
C           68.34932336089726       42.59129915291084       55.20541373190594
C           68.26621847306097       41.43521878217410       54.44828111634325
C           67.05956062734306       41.08779057687637       53.86462440811152
C           65.94772788239869       41.89111479110305       54.03851831886780
C           63.66591165022262       43.21485562989024       55.64724646996368
C           64.02106246852549       42.85350205186852       57.09580404448030
C           64.32271387804995       44.09311194122333       57.90007693913477
C           65.54130599887543       44.22342731556360       58.55460984189609
C           65.84173203973695       45.36422056303394       59.27832480207707
C           64.92756735303270       46.40129961052678       59.35194658196675
C           63.70964176317838       46.28370623783336       58.70540345186051
C           63.41036775813006       45.13798380144912       57.99166620616492
C           62.89349462350098       42.03530373667365       57.74067528674562
C           63.26948843959177       41.52544298814895       59.13759778372479
C           64.54407954745109       40.71921367562881       59.11165639010483
C           65.58475673440208       41.03851299237358       59.97519599127568
C           66.76245828209939       40.31197500264021       59.97189670622458
C           66.91837233124305       39.24626831081274       59.10243758671105
C           65.88372209714142       38.90909529090958       58.24684824163349
C           64.70783897695536       39.63663937076823       58.25507170343905
C           62.14439931021299       40.67973250401576       59.76050160322016
C           60.96481838973945       41.52580697226605       60.26132096816809
C           61.42212307513950       42.41903903932937       61.38813404590423
C           61.60769773744934       43.77912859027182       61.17308655119874
C           62.04228036440433       44.60892439029487       62.19101338929185