3864
 energy: -5104.097969660944 gnorm: 0.000808927941 xtb: 6.6.1 (8d0f1dd)
C           32.34900747992823       42.09331761135495       41.30243873438103
C           31.64477871225822       42.40327094283205       42.45909497395505
C           32.05245157606348       41.82485241085150       43.65581016968047
C           33.13939823773551       40.97173831868723       43.69520135685931
C           33.84039856654552       40.67920918794976       42.53810657407628
C           33.43879022209443       41.24096002742452       41.33922894701115
C           30.47589038427397       43.35776181325051       42.41082017065588
C           29.17025102160221       42.61462002332546       42.70156990589996
C           30.67194879889926       44.51216853161159       43.40234862507201
C           32.00237707396978       45.23909063408595       43.16329304752890
C           31.92310573554363       46.09918855013810       41.92876168135761
C           32.66536111337417       45.77231010673077       40.80053129335945
C           32.57208366799052       46.52461356866813       39.64252965484778
C           31.73276774374342       47.62513532102660       39.59720680533385
C           30.99524107594581       47.96714577674524       40.71837074618013
C           31.08898831767443       47.21006504377212       41.87257448636810
C           32.43411188470700       46.03685061770668       44.39972889918977
C           33.89656389741517       46.47863377435214       44.28646119369942
C           34.81784807397172       45.31304268052713       44.01229426821261
C           34.76972133782522       44.14820111212099       44.76850088432131
C           35.64195874043286       43.10565851789559       44.51625515197997
C           36.58537104688742       43.20829481657992       43.50888983424709
C           36.64423329069685       44.36291648476280       42.74894400413852
C           35.76691970620822       45.40183848549545       43.00232180766375
C           34.39089542263435       47.20315450103310       45.55063622984787
C           33.90051852792214       48.65359725015905       45.65945835705774
C           32.48224398913055       48.74981220141925       46.16907763125173
C           31.50671741553138       49.40177623803063       45.42355018581394
C           30.21077687627270       49.52224237163087       45.89585841756013
C           29.87520203436067       49.01348964726169       47.13898678237545
C           30.83893910737542       48.36760473390470       47.89472839030331
C           32.12542496739251       48.22871155791491       47.40705287943970
C           34.79875641038061       49.50149986367296       46.57950875775619
C           36.26102213026203       49.67503696161913       46.12615719434663
C           36.97222595359099       50.49466892218750       47.17443457149241
C           37.84626034513172       49.87702369328013       48.05953852981646
C           38.45488248051156       50.59434222204043       49.07332032035731
C           38.20545780645131       51.94831830559308       49.21590419787400
C           37.34845617624728       52.57822276331639       48.33095118297913
C           36.73741408376216       51.85674055063681       47.32016078248020
C           36.35742110846718       50.28983867634165       44.72768960089255
C           37.79568646921188       50.60026272495033       44.28928494828913
C           38.71677883396138       49.42066189434852       44.46982585817536
C           38.45803794953469       48.20409724796559       43.84605337101577
C           39.34239666504465       47.14684564512729       43.95441561987005
C           40.50707863911028       47.28700326225582       44.69096045688164
C           40.76043379622399       48.48125687396948       45.34278561451959
C           39.87215258029288       49.53798628022808       45.23145073414563
C           37.77548096499179       51.02071493925674       42.81350567950520
C           39.12207363975056       51.56157914545273       42.30790333386541
C           39.24660007901306       53.02431516392142       42.65167978575251
C           40.18015431833906       53.47538932689842       43.57459082617609
C           40.26879061274137       54.81988801687042       43.89615415707588
C           39.42511559356755       55.73562937897987       43.29474511797297
C           38.49868642422474       55.29843277164068       42.36447998792345
C           38.40920244604829       53.95672201982509       42.04867680955323
C           39.23948062448234       51.35804940017267       40.78880165703616
C           39.58595560169804       49.90897859943009       40.40414964547936
C           41.07845787583494       49.69042357784510       40.42270760822840
C           41.90161572961816       50.24900036593345       39.45085438496061
C           43.26699617345152       50.03139045370895       39.46433093451100
C           43.83594888303256       49.26317639571616       40.46551500741490
C           43.03072928670986       48.71574097708542       41.44832249339021
C           41.66256295096018       48.91990750440593       41.41998854594956
C           38.99445814212377       49.54408744926800       39.03371571814520
C           37.46070242279619       49.36183729836664       39.07770022668216
C           37.08450669797777       47.96506721654984       38.64955956101909
C           37.47078860294547       47.46896966882984       37.40905785889034
C           37.14633284689297       46.18035926396608       37.02686635136675
C           36.43697330766823       45.35842344299837       37.88630388307821
C           36.05399285399941       45.83635900636428       39.12705010825908
C           36.37182725468901       47.13092893786695       39.49892771851401
C           36.74541806242294       50.41408033340895       38.21814971494584
C           35.22446076902983       50.40406133374792       38.41222026653226
C           34.82905168614785       50.76734901432776       39.82215271049915
C           35.09032221144493       52.02709105084634       40.35014999211812
C           34.64423944135620       52.37162420772773       41.61378114202986
C           33.92786036598170       51.46189763046042       42.37382533560159
C           33.67657992149327       50.20029409638452       41.86427449969588
C           34.12623924029769       49.85836931827858       40.60148141495280
C           34.53607762515006       51.37581569051657       37.43955971951372
C           34.49093170231229       50.85588374023853       35.99523535208886
C           33.55906876666051       49.67231646131536       35.92575354139431
C           32.17905856282999       49.83477715889666       35.95077707489791
C           31.33780921221139       48.73662437553210       35.94024375696340
C           31.86246519076098       47.45492902723824       35.91612214252903
C           33.23490704052839       47.28079532518662       35.89444827655527
C           34.07359173399421       48.38134380446134       35.89494079487272
C           34.09678998713083       51.98002716062528       35.02397551759506
C           35.26502518072548       52.93363661314061       34.71018473624147
C           34.75091834711395       54.24414946772198       34.16882083410205
C           35.01500276788638       55.43107140214043       34.84040658437215
C           34.54325415889587       56.64154417616649       34.36406830270827
C           33.79707829367594       56.68137803893973       33.19949111282866
C           33.52734594497489       55.50553582341818       32.51946529233340
C           33.99906293787920       54.29777634327666       33.00116859061391
C           36.25426083354914       52.28262661648301       33.73643259699398
C           37.51404201912523       53.12262106271323       33.45825808332695
C           38.12477114895058       53.64442226108843       34.73231553495140
C           38.53111117105463       52.79097476014584       35.75252427153631
C           39.05633105505938       53.29029810344332       36.93061560056884
C           39.18531036448488       54.65630017517694       37.11415004586260
C           38.79439656439044       55.51659134415478       36.10223844144984
C           38.26895511783386       55.01397315236196       34.92476217695621
C           38.47860451480763       52.25273362928195       32.63674220659528
C           39.74439368869064       52.95758755812924       32.11859510846936
C           40.20002944455628       52.23965129761761       30.87196224130617
C           40.15019742831819       52.87384608956064       29.63767725721587
C           40.52790557775203       52.21145635369317       28.48302477854359
C           40.95124082115942       50.89548749494865       28.54473878372664
C           40.99308764873636       50.24919319378301       29.76824589404458
C           40.62478972327112       50.91718062107442       30.92206503932202
C           40.84736414816157       53.00339773218727       33.18698772924980
C           42.21670370596579       53.43828393622064       32.64124421166628
C           42.09778253757327       54.62559413152020       31.71974474610434
C           42.60716293260764       54.57215028471499       30.42959214085828
C           42.50540890392923       55.66076926571303       29.58043213672581
C           41.89027797901968       56.82208865294683       30.01205350701468
C           41.38082867475481       56.88765595941014       31.29796669503014
C           41.48673089474610       55.79945781308788       32.14374650217130
C           43.18749898513475       53.80889152418729       33.77505342133987
C           43.55131325839661       52.65665355150266       34.72548850848823
C           44.30016374228668       53.21964884973382       35.90684716210222
C           43.77717860701966       53.15713552548215       37.19067877962765
C           44.49411885237517       53.64260791228924       38.27124502180224
C           45.74784822990573       54.19628127587829       38.08123669781022
C           46.26719419926270       54.28922051645834       36.80141746739092
C           45.54736562491436       53.80589897939770       35.72550118132062
C           44.39638827267447       51.56243205074889       34.03973784340828
C           43.69146750076496       50.20354406438455       33.89800764803323
C           44.52586423181247       49.33081123067403       32.99301385424489
C           44.07702818574202       49.01845133945206       31.71651105115271
C           44.83664804919302       48.23304757605817       30.86754320029260
C           46.06658672122970       47.75344947039630       31.28233992451458
C           46.53190148272640       48.07370062482318       32.54607632372593
C           45.76948102587496       48.85608735942902       33.39406889220541
C           43.45604876885791       49.53630349263272       35.25891037136384
C           42.76296337284821       48.16968229811625       35.13280177480920
C           41.41628281651280       48.30203918971331       34.47050990071520
C           40.36556986340775       48.97403145790447       35.08465003660679
C           39.12857698332893       49.05705993787711       34.46978902204550
C           38.91866704214130       48.48042656092887       33.22902936075119
C           39.96294310691629       47.82265098544078       32.60266010417816
C           41.19829659516677       47.73504355624837       33.22029435578493
C           42.65614753312695       47.51008140668096       36.51759562453243
C           41.83774848560496       46.20904701212726       36.51715598148721
H           30.41721992689296       43.77964364363524       41.40072967654401
H           29.83891416531048       45.21192925433273       43.31131192162480
H           30.66355074823156       44.11819371124339       44.41937300143315
H           32.76402366577619       44.47079627868526       42.99286727584582
H           31.79850309495713       46.91249291864983       44.52831019456659
H           32.30632516952142       45.41467854108289       45.28821702512084
H           33.97735257802540       47.16994261612651       43.43850743577714
H           34.08946417482839       46.63615908582531       46.43280680926989
H           35.48234671787095       47.20465843374217       45.51745878089589
H           33.92801240593774       49.09884470792430       44.66093238448044
H           34.80113635089867       49.05720845225671       47.57719029101516
H           36.74547296604939       48.69326921968897       46.09539628695940
H           35.91967114958112       49.59599282875391       44.00840749551598
H           35.77656901668245       51.21284739027927       44.68534620645014
H           38.17485513294523       51.43491574409373       44.88925040813977
H           37.48158150703929       50.15630450324993       42.21576898203922
H           37.00651709170264       51.78242967821581       42.67250125134812
H           39.93266464589864       51.00845790771108       42.79431760826562
H           38.28947948883453       51.63609046216443       40.33250644509274
H           40.00916560995167       52.02739710222498       40.39487080915671
H           39.15082609628658       49.22913036030717       41.14367848549600
H           37.11775535346356       49.49894923920075       40.10830702129879
H           37.12864109298146       51.40660944658169       38.46410472716300
H           36.97511419932287       50.22618790930841       37.16875221765706
H           34.85673787649600       49.39231676688681       38.20900872714932
H           33.51140113126797       51.54591390707669       37.77954532004451
H           35.05436519005180       52.33597216847989       37.46466619489519
H           35.48807016425052       50.50329078803711       35.72003114429963
H           33.73336442350433       51.53722306771289       34.09433155854668
H           33.28016414466774       52.56208960097074       35.45638697678871
H           35.79664218790244       53.14609174766073       35.64300667672359
H           36.56146677988954       51.31584860540084       34.13834229172278
H           35.75314554886690       52.09085188329310       32.78568327399526
H           37.22120347333152       53.98519214647150       32.84909889775439
H           38.77508881448759       51.38197086327231       33.22352443417250
H           37.92092562751595       51.88426594722174       31.77097383954325
H           39.48464599285623       53.98432047164557       31.84104488309999
H           40.54025471964472       53.68841305108205       33.97776598460479
H           40.94612207340118       52.01146931763467       33.63218263211271
H           42.64076475330301       52.60708439475237       32.06862541504784
H           44.10102047629934       54.20912136527170       33.32843405579178
H           42.74446475325126       54.61384673960688       34.36705054204113
H           42.61980606698253       52.21866866358791       35.09281673191781
H           44.68447034392088       51.89981164971864       33.04172509089793
H           45.31804415158127       51.40604802305813       34.60504939437642
H           42.72007448705820       50.36276059126384       33.41729859712557
H           44.41151592433619       49.40216001176949       35.76946521198195
H           42.84451771316284       50.19150959849572       35.88185158448110
H           32.04255178316001       42.53107085713108       40.36209646001630
H           33.97725386441468       41.01714549745879       40.42930928939013
H           34.69409503755124       40.01778954550195       42.56891157815671
H           33.43973683540180       40.53829320050787       44.63802522165813
H           31.52701983832324       42.04841855018739       44.57221242578799
H           33.31755172648477       44.91042142918307       40.83665177492528
H           33.15668700637301       46.25984795173694       38.77270602262714
H           31.65914310281586       48.21255655643427       38.69356018825283
H           30.34309023601467       48.82848614208145       40.69104087562949
H           30.50291008457222       47.48596375885626       42.73826904797378
H           34.03179600080887       44.04374091765726       45.55003886720124
H           35.57574761707421       42.20341162782752       45.10595441051203
H           37.26468247218681       42.39104537404931       43.31272853537910
H           37.36872508163493       44.45490971385172       41.95279378175643
H           35.81191024905591       46.29625302799298       42.39781661219912
H           31.75993653031345       49.81750765140331       44.45769141899635
H           29.46269686282017       50.01982993609863       45.29468141650830
H           28.86810171103648       49.11873582348341       47.51570001448658
H           30.59122734664210       47.97517881267930       48.87066276149243
H           32.85857219649166       47.71061707703605       48.00558019236365
H           34.34632504091860       50.49330483051491       46.66760585310145
H           38.06069355114732       48.82254149655360       47.95085782104909
H           39.12653404019822       50.09174523996509       49.75282318840139
H           38.68043053036500       52.51311207673947       50.00392968839532
H           37.15575071992941       53.63602724555577       48.43212699604707
H           36.07341252406212       52.36644812089769       46.63754110280457
H           37.55570989399205       48.07625509217116       43.26550543705575
H           39.13224106994421       46.21232817497375       43.45598257116914
H           41.20463622801824       46.46503011293245       44.75005209316554
H           41.65736255207019       48.59666312987649       45.93559835984560
H           40.07830330210101       50.46975250771030       45.74042123490261
H           40.84794250782051       52.76780770005270       44.04392016967314
H           40.99361561494678       55.15739457743255       44.62238738184005
H           39.48315039664718       56.78264610675690       43.55173685051967
H           37.83920653437504       56.00482139514649       41.88499774971823
H           37.67587308715542       53.63191050301025       41.32515888000218
H           41.47307045955736       50.86141731033394       38.66990673329479
H           43.88535675683788       50.46632649115338       38.69244452516966
H           44.90366943262097       49.09800714494914       40.48316848918643
H           43.46403993235126       48.12332357934033       42.23971089277496
H           41.04222489190327       48.47222243579759       42.18285772196765
H           39.25140321737447       50.31637979146961       38.30669199573783
H           39.46042440611742       48.61468500132847       38.70150561288965
H           38.04455563447979       48.08793625324508       36.73570792666273
H           37.45446075062853       45.81572877282511       36.05696559221720
H           36.18984657437399       44.34875085995792       37.59223421597085
H           35.51296885085132       45.19937461742399       39.81098333393193
H           36.06332324856852       47.50167658525107       40.46618187750209
H           35.63261207066591       52.75459104495442       39.76295883288322
H           34.84572182238730       53.35889218164542       42.00650048110493
H           33.56490118448419       51.74109980436985       43.35279652434500
H           33.11218965105274       49.47544887846220       42.43420355469814
H           33.90809338974354       48.87662306444915       40.20740335140397
H           31.75561710622639       50.82794555982331       35.98008864321457
H           30.26688356924880       48.88058844826570       35.95797954929477
H           31.20392483206825       46.59893913925628       35.91885524478108
H           33.65770693054609       46.28646081013339       35.87802764947839
H           35.14413371324851       48.22909800829599       35.87791793057880
H           35.60295385984041       55.41148145037556       35.74599093319793
H           34.75899922474836       57.55093815809261       34.90602286582731
H           33.42622163827293       57.62352698724344       32.82338953648134
H           32.94463255933174       55.52943917379885       31.60980977472714
H           33.77566721757879       53.38882801146418       32.46182493473524
H           38.44063506604196       51.72370976877581       35.62508723565954
H           39.36532969951886       52.61446209540909       37.71588937685257
H           39.59335549163793       55.04698154753560       38.03567125517261
H           38.90351313302462       56.58294720002250       36.23234382301182
H           37.95977608408301       55.69433680367657       34.14369939031017
H           39.81357285980837       53.89941121684291       29.58031407385852
H           40.48708909872863       52.72328654861995       27.53247344502138
H           41.24156662851716       50.37410694566763       27.64433873239628
H           41.30758218999735       49.21638538779986       29.82178583963441
H           40.65628170883527       50.39717194568406       31.86829947415345
H           43.08022778060305       53.66379855250278       30.08221924682300
H           42.90390381415069       55.60054112717148       28.57764821609245
H           41.80405170931804       57.66775496841074       29.34494518675300
H           40.89445698337479       57.78832149275325       31.64547926405373
H           41.08428471969114       55.86133232357106       33.14349767144713
H           42.79840192624980       52.72612143296899       37.34950852795226
H           44.07052688091252       53.59657807213392       39.26457230150961
H           46.30849927461322       54.56405155685684       38.92658879478785
H           47.23763714034324       54.73869319840900       36.63891658701260
H           45.95752440260006       53.88072076974898       34.73110516820987
H           43.12237027444281       49.39937921239648       31.38397037526441
H           44.46844387956655       47.99752782968054       29.87929787542246
H           46.66147850970670       47.13883444395712       30.62274456882285
H           47.49640613657926       47.71527742931878       32.87453454809622
H           46.15355488053645       49.09883894040342       34.37367801244686
H           42.00814236688409       47.21390186526069       32.73016488000435
H           39.81195959779809       47.37379209959690       31.63199056426466
H           37.95112082798086       48.54809473105067       32.75358819081974
H           38.31237864816235       49.56933254242807       34.96151791667447
H           40.51072450533493       49.42541805952192       36.05592175008155
H           29.02679345943778       41.80592738375532       41.98805906016130
H           29.18863896201638       42.19018468350554       43.70236386375530
H           28.32356549914451       43.29401753065925       42.62936995924360
H           43.38585008779743       47.52989674308351       34.49788199118927
H           43.66781650207846       47.30250513766366       36.87261618611302
H           42.20415425066493       48.21453584300102       37.21844044411149
C           41.91646939643631       45.49382152482008       37.87514013384892
C           42.30585828650464       45.26134497913635       35.44097728360467
C           43.60418801863542       44.76536689717552       35.44020846856463
C           44.02782316340732       43.89356763506640       34.45447482596846
C           43.15749487191210       43.49821778111117       33.45320008517772
C           41.85794424873184       43.97329437636882       33.45227223428279
C           41.43702019573045       44.84493370121065       34.44118509486104
H           44.29143911824687       45.05792804612465       36.21910741217415
H           45.04126362553658       43.51933002234044       34.46765610894416
H           43.48924567353964       42.81984934813024       32.68092048360089
H           41.16906341169369       43.66440929359524       32.67926060917999
H           40.41979427214505       45.21078514102445       34.43448768052480
C           41.18862211286983       46.23073924545718       39.00342212969876
H           41.48016916956640       44.49678934352458       37.76979062871802
H           42.96456255418434       45.36388060604109       38.14956049881328
C           41.42844807419738       45.55683629930056       40.32349168445000
C           42.69158186123149       45.60572247745286       40.90174494611412
C           42.93901118703673       44.99345561522761       42.11540735501138
C           41.92553452853263       44.31396055184601       42.76947163011358
C           40.66680969744733       44.24967925525538       42.19812485251474
C           40.42100958447076       44.86822453570903       40.98349989017892
H           43.48378451167733       46.13973690425806       40.39707918838277
H           43.92553825119048       45.05287064302687       42.55357570213048
H           42.11087060601970       43.83908162166740       43.72134172077369
H           39.87632894979044       43.71652279946700       42.70733157560563
H           39.43544391279131       44.82245584868453       40.53962257366488
H           40.78922019669199       46.45966973880019       36.32035992133700
H           41.55962522536705       47.25549039331521       39.06838998153749
H           40.11792059599593       46.26072542940562       38.78697220300221
C           60.28005584503316       53.32117708847958       52.86857704832941
C           61.36257990968556       53.04818800830012       52.04160330071416
C           62.48369144549907       53.86510757204233       52.13007895887883
C           62.53153737599847       54.91417100318944       53.02971076464117
C           61.44871922156302       55.16908526756394       53.85299437398097
C           60.31993641486422       54.37403168310417       53.76588913580945
C           61.30466320061047       51.90546371751384       51.05948050264909
C           61.51946267463099       52.40231706657789       49.62722551718939
C           62.33471283999955       50.81632044449048       51.38457682975962
C           62.10389255823407       50.09525856152002       52.72357047647572
C           60.69328868559187       49.57228693801278       52.79820342382874
C           59.83078778508951       50.01525362227955       53.79242918585598
C           58.50749772155027       49.61180031498364       53.82065846546623
C           58.03187874978072       48.73538095079012       52.86030442624050
C           58.88725618638260       48.26526483972699       51.87759618964465
C           60.20496345375127       48.68339268697498       51.84687586886783
C           63.13664313524602       48.96630718085069       52.84570256281392
C           63.05713942657744       48.15330719278869       54.14222309363556
C           63.36570005245591       48.98372233329283       55.36357516153583
C           64.54781753436065       49.70960455362719       55.45835809552904
C           64.85188690945451       50.42797111709994       56.60036270713774
C           63.98779137405787       50.41301506717777       57.68113907310066
C           62.82162050412143       49.67330032694260       57.60869956725833
C           62.50812549418438       48.97426275309489       56.45579680448870
C           64.03591909709286       46.95715586730140       54.10125637392434
C           63.42007410508786       45.67538666191980       53.52964822397411
C           62.96902215497661       45.80416215243066       52.09691829828979
C           63.86376780961209       46.15596239680587       51.09062166746720
C           63.46104163005084       46.18598036721322       49.76729882891069
C           62.16099091360274       45.84873502401161       49.42684092464194
C           61.26044571198944       45.50599286754907       50.42028190473712
C           61.66457140762060       45.48651384644108       51.74301056972525
C           64.40651791254005       44.49405527574194       53.55981451523576
C           64.78625735200713       43.95488855762937       54.94551035887186
C           65.97768322217043       43.04069903461904       54.78952036082659
C           67.19389586356182       43.36351949407191       55.37702300828732
C           68.29995536918905       42.54758771883597       55.21529066814243
C           68.20768089819333       41.39403008839033       54.45577222363571
C           67.00129550125507       41.06085142128655       53.86389366190959
C           65.89795021926194       41.87719637877158       54.03211690976263
C           63.62491303162071       43.22456171440486       55.62951455598781
C           63.97762810916881       42.85888042468666       57.07690018239719
C           64.27250416545621       44.09477103670370       57.88991189135718
C           65.48343830822976       44.21818841160428       58.55977013148743
C           65.77268798343221       45.35070169064294       59.30038830363252
C           64.85565750961014       46.38485442423699       59.37651619378509
C           63.64606519779216       46.27421112183884       58.71378305127183
C           63.35766539117615       45.13719053706055       57.98151466557586
C           62.85527343685811       42.03345232482683       57.72138160064087
C           63.24642546035277       41.51866436224363       59.11249380186069
C           64.52896921745642       40.72450555325609       59.07286834890770
C           65.55434769394921       41.02645604094716       59.96041014357358
C           66.74194691368275       40.31687671421762       59.94347165719338
C           66.92325370454549       39.28835709934293       59.03534883159050
C           65.90383062204462       38.96865018333922       58.15568780741059
C           64.71652815083047       39.67732547902222       58.17856706050517
C           62.13390179351419       40.66381707032799       59.74397094452160
C           60.94870093540174       41.50151487889944       60.24603900285720
C           61.39614928796449       42.40224346323949       61.37148412431976
C           61.59684200361656       43.75810802122091       61.14372165695815
C           62.01453157361873       44.59676700326627       62.16152683243389