      -----------------------------------------------------------      
     |                   =====================                   |     
     |                           x T B                           |     
     |                   =====================                   |     
     |                         S. Grimme                         |     
     |          Mulliken Center for Theoretical Chemistry        |     
     |                    University of Bonn                     |     
      -----------------------------------------------------------      

   * xtb version 6.6.1 (8d0f1dd) compiled by 'stahn@M-Bot' on 2023-08-01

   xtb is free software: you can redistribute it and/or modify it under
   the terms of the GNU Lesser General Public License as published by
   the Free Software Foundation, either version 3 of the License, or
   (at your option) any later version.
   
   xtb is distributed in the hope that it will be useful,
   but WITHOUT ANY WARRANTY; without even the implied warranty of
   MERCHANTABILITY or FITNESS FOR A PARTICULAR PURPOSE.  See the
   GNU Lesser General Public License for more details.
   
   Cite this work as:
   * C. Bannwarth, E. Caldeweyher, S. Ehlert, A. Hansen, P. Pracht,
     J. Seibert, S. Spicher, S. Grimme, WIREs Comput. Mol. Sci., 2020, 11,
     e01493. DOI: 10.1002/wcms.1493
   
   for GFN2-xTB:
   * C. Bannwarth, S. Ehlert and S. Grimme., J. Chem. Theory Comput., 2019,
     15, 1652-1671. DOI: 10.1021/acs.jctc.8b01176
   for GFN1-xTB:
   * S. Grimme, C. Bannwarth, P. Shushkov, J. Chem. Theory Comput., 2017,
     13, 1989-2009. DOI: 10.1021/acs.jctc.7b00118
   for GFN0-xTB:
   * P. Pracht, E. Caldeweyher, S. Ehlert, S. Grimme, ChemRxiv, 2019, preprint.
     DOI: 10.26434/chemrxiv.8326202.v1
   for GFN-FF:
   * S. Spicher and S. Grimme, Angew. Chem. Int. Ed., 2020, 59, 15665-15673.
     DOI: 10.1002/anie.202004239
   
   for ALPB and GBSA implicit solvation:
   * S. Ehlert, M. Stahn, S. Spicher, S. Grimme, J. Chem. Theory Comput.,
     2021, 17, 4250-4261. DOI: 10.1021/acs.jctc.1c00471
   
   for DFT-D4:
   * E. Caldeweyher, C. Bannwarth and S. Grimme, J. Chem. Phys., 2017,
     147, 034112. DOI: 10.1063/1.4993215
   * E. Caldeweyher, S. Ehlert, A. Hansen, H. Neugebauer, S. Spicher,
     C. Bannwarth and S. Grimme, J. Chem. Phys., 2019, 150, 154122.
     DOI: 10.1063/1.5090222
   * E. Caldeweyher, J.-M. Mewes, S. Ehlert and S. Grimme, Phys. Chem. Chem. Phys.
     2020, 22, 8499-8512. DOI: 10.1039/D0CP00502A
   
   for sTDA-xTB:
   * S. Grimme and C. Bannwarth, J. Chem. Phys., 2016, 145, 054103.
     DOI: 10.1063/1.4959605
   
   in the mass-spec context:
   * V. Asgeirsson, C. Bauer and S. Grimme, Chem. Sci., 2017, 8, 4879.
     DOI: 10.1039/c7sc00601b
   * J. Koopman and S. Grimme, ACS Omega 2019, 4, 12, 15120-15133.
     DOI: 10.1021/acsomega.9b02011
   
   for metadynamics refer to:
   * S. Grimme, J. Chem. Theory Comput., 2019, 155, 2847-2862
     DOI: 10.1021/acs.jctc.9b00143
   
   for SPH calculations refer to:
   * S. Spicher and S. Grimme, J. Chem. Theory Comput., 2021, 17, 1701-1714
     DOI: 10.1021/acs.jctc.0c01306
   
   with help from (in alphabetical order)
   P. Atkinson, C. Bannwarth, F. Bohle, G. Brandenburg, E. Caldeweyher
   M. Checinski, S. Dohm, S. Ehlert, S. Ehrlich, I. Gerasimov, C. Hölzer
   A. Katbashev, J. Koopman, C. Lavigne, S. Lehtola, F. März, M. Müller,
   F. Musil, H. Neugebauer, J. Pisarek, C. Plett, P. Pracht, F. Pultar,
   J. Seibert, P. Shushkov, S. Spicher, M. Stahn, M. Steiner, T. Strunk,
   J. Stückrath, T. Rose, and J. Unsleber
   
 * started run on 2024/10/04 at 21:02:40.287     

           -------------------------------------------------
          |                Calculation Setup                |
           -------------------------------------------------

          program call               : /home/abt-grimme/AK-bin/xtb input.xyz --input input.inp --opt
          hostname                   : boar047.thch.uni-bonn.de
          coordinate file            : input.xyz
          omp threads                :                     8

   ID    Z sym.   atoms
    1    6 C      1-146, 294-300, 306, 309-314, 323-468, 616-622, 628,
                  631-636, 645-790, 938-944, 950, 953-958, 967-1112,
                  1260-1266, 1272, 1275-1280, 1289-1434, 1582-1588, 1594,
                  1597-1602, 1611-1756, 1904-1910, 1916, 1919-1924,
                  1933-2078, 2226-2232, 2238, 2241-2246, 2255-2400,
                  2548-2554, 2560, 2563-2568, 2577-2722, 2870-2876, 2882,
                  2885-2890, 2899-3044, 3192-3198, 3204, 3207-3212,
                  3221-3366, 3514-3520, 3526, 3529-3534, 3543-3688,
                  3836-3842, 3848, 3851-3856
    2    1 H      147-293, 301-305, 307, 308, 315-322, 469-615, 623-627, 629,
                  630, 637-644, 791-937, 945-949, 951, 952, 959-966,
                  1113-1259, 1267-1271, 1273, 1274, 1281-1288, 1435-1581,
                  1589-1593, 1595, 1596, 1603-1610, 1757-1903, 1911-1915,
                  1917, 1918, 1925-1932, 2079-2225, 2233-2237, 2239, 2240,
                  2247-2254, 2401-2547, 2555-2559, 2561, 2562, 2569-2576,
                  2723-2869, 2877-2881, 2883, 2884, 2891-2898, 3045-3191,
                  3199-3203, 3205, 3206, 3213-3220, 3367-3513, 3521-3525,
                  3527, 3528, 3535-3542, 3689-3835, 3843-3847, 3849, 3850,
                  3857-3864

molecular fragmentation (1/2 indicates fragments):
111111111111111111111111111111111111111111111111111111111111111111111111
111111111111111111111111111111111111111111111111111111111111111111111111
111111111111111111111111111111111111111111111111111111111111111111111111
111111111111111111111111111111111111111111111111111111111111111111111111
111111111111111111111111111111111122222222222222222222222222222222222222
222222222222222222222222222222222222222222222222222222222222222222222222
222222222222222222222222222222222222222222222222222222222222222222222222
222222222222222222222222222222222222222222222222222222222222222222222222
222222222222222222222222222222222222222222222222222222222222222222222222
222222222222222222222222222222222222222222222222222222222222222222222222
222222222222222222222222222222222222222222222222222222222222222222222222
222222222222222222222222222222222222222222222222222222222222222222222222
222222222222222222222222222222222222222222222222222222222222222222222222
222222222222222222222222222222222222222222222222222222222222222222222222
222222222222222222222222222222222222222222222222222222222222222222222222
222222222222222222222222222222222222222222222222222222222222222222222222
222222222222222222222222222222222222222222222222222222222222222222222222
222222222222222222222222222222222222222222222222222222222222222222222222
222222222222222222222222222222222222222222222222222222222222222222222222
222222222222222222222222222222222222222222222222222222222222222222222222
222222222222222222222222222222222222222222222222222222222222222222222222
222222222222222222222222222222222222222222222222222222222222222222222222
222222222222222222222222222222222222222222222222222222222222222222222222
222222222222222222222222222222222222222222222222222222222222222222222222
222222222222222222222222222222222222222222222222222222222222222222222222
222222222222222222222222222222222222222222222222222222222222222222222222
222222222222222222222222222222222222222222222222222222222222222222222222
222222222222222222222222222222222222222222222222222222222222222222222222
222222222222222222222222222222222222222222222222222222222222222222222222
222222222222222222222222222222222222222222222222222222222222222222222222
222222222222222222222222222222222222222222222222222222222222222222222222
222222222222222222222222222222222222222222222222222222222222222222222222
222222222222222222222222222222222222222222222222222222222222222222222222
222222222222222222222222222222222222222222222222222222222222222222222222
222222222222222222222222222222222222222222222222222222222222222222222222
222222222222222222222222222222222222222222222222222222222222222222222222
222222222222222222222222222222222222222222222222222222222222222222222222
222222222222222222222222222222222222222222222222222222222222222222222222
222222222222222222222222222222222222222222222222222222222222222222222222
222222222222222222222222222222222222222222222222222222222222222222222222
222222222222222222222222222222222222222222222222222222222222222222222222
222222222222222222222222222222222222222222222222222222222222222222222222
222222222222222222222222222222222222222222222222222222222222222222222222
222222222222222222222222222222222222222222222222222222222222222222222222
222222222222222222222222222222222222222222222222222222222222222222222222
222222222222222222222222222222222222222222222222222222222222222222222222
222222222222222222222222222222222222222222222222222222222222222222222222
222222222222222222222222222222222222222222222222222222222222222222222222
222222222222222222222222222222222222222222222222222222222222222222222222
222222222222222222222222222222222222222222222222222222222222222222222222
222222222222222222222222222222222222222222222222222222222222222222222222
222222222222222222222222222222222222222222222222222222222222222222222222
222222222222222222222222222222222222222222222222222222222222222222222222
222222222222222222222222222222222222222222222222
# atoms in fragment 1/2:   322  3542
 fragment masses (1/2) :     2085.00    22935.05
CMA distance (Bohr)    :  32.324
constraining FC (au)   :  0.0500

           -------------------------------------------------
          |                 G F N 2 - x T B                 |
           -------------------------------------------------

        Reference                      10.1021/acs.jctc.8b01176
      * Hamiltonian:
        H0-scaling (s, p, d)           1.850000    2.230000    2.230000
        zeta-weighting                 0.500000
      * Dispersion:
        s8                             2.700000
        a1                             0.520000
        a2                             5.000000
        s9                             5.000000
      * Repulsion:
        kExp                           1.500000    1.000000
        rExp                           1.000000
      * Coulomb:
        alpha                          2.000000
        third order                    shell-resolved
        anisotropic                    true
        a3                             3.000000
        a5                             4.000000
        cn-shift                       1.200000
        cn-exp                         4.000000
        max-rad                        5.000000


          ...................................................
          :                      SETUP                      :
          :.................................................:
          :  # basis functions                9624          :
          :  # atomic orbitals                9624          :
          :  # shells                         5784          :
          :  # electrons                      9624          :
          :  max. iterations                   250          :
          :  Hamiltonian                  GFN2-xTB          :
          :  restarted?                      false          :
          :  GBSA solvation                  false          :
          :  PC potential                    false          :
          :  electronic temp.          300.0000000     K    :
          :  accuracy                    1.0000000          :
          :  -> integral cutoff          0.2500000E+02      :
          :  -> integral neglect         0.1000000E-07      :
          :  -> SCF convergence          0.1000000E-05 Eh   :
          :  -> wf. convergence          0.1000000E-03 e    :
          :  Broyden damping             0.4000000          :
          ...................................................

 iter      E             dE          RMSdq      gap      omega  full diag
   1  -5195.7435146 -0.519574E+04  0.367E+00    4.32       0.0  T
   2  -5198.3077244 -0.256421E+01  0.216E+00    4.31       1.0  T
   3  -5198.2415915  0.661330E-01  0.493E-01    4.14       1.0  T
   4  -5198.4417600 -0.200169E+00  0.241E-01    4.02       1.0  T
   5  -5198.5934810 -0.151721E+00  0.459E-02    4.11       1.0  T
   6  -5198.5954536 -0.197256E-02  0.284E-02    4.09       1.0  T
   7  -5198.5966506 -0.119704E-02  0.111E-02    4.11       1.0  T
   8  -5198.5969726 -0.321971E-03  0.288E-03    4.10       1.0  T
   9  -5198.5969897 -0.171364E-04  0.124E-03    4.10       1.3  T
  10  -5198.5969913 -0.160379E-05  0.543E-04    4.10       3.0  T
  11  -5198.5969916 -0.334024E-06  0.286E-04    4.10       5.6  T
  12  -5198.5969918 -0.174509E-06  0.100E-04    4.10      16.1  T

   *** convergence criteria satisfied after 12 iterations ***

         #    Occupation            Energy/Eh            Energy/eV
      -------------------------------------------------------------
         1        2.0000           -0.6521286             -17.7453
       ...           ...                  ...                  ...
      4806        2.0000           -0.3825674             -10.4102
      4807        2.0000           -0.3823211             -10.4035
      4808        2.0000           -0.3821478             -10.3988
      4809        2.0000           -0.3818722             -10.3913
      4810        2.0000           -0.3812895             -10.3754
      4811        2.0000           -0.3809107             -10.3651
      4812        2.0000           -0.3806113             -10.3570 (HOMO)
      4813                         -0.2297832              -6.2527 (LUMO)
      4814                         -0.2287519              -6.2247
      4815                         -0.2269734              -6.1763
      4816                         -0.2262497              -6.1566
      4817                         -0.2261459              -6.1537
       ...                                ...                  ...
      9624                          0.6806207              18.5206
      -------------------------------------------------------------
                  HL-Gap            0.1508281 Eh            4.1042 eV
             Fermi-level           -0.3051973 Eh           -8.3048 eV

 SCC (total)                   0 d,  0 h, 47 min, 39.464 sec
 SCC setup                      ...        0 min,  0.730 sec (  0.026%)
 Dispersion                     ...        0 min,  7.780 sec (  0.272%)
 classical contributions        ...        0 min,  0.154 sec (  0.005%)
 integral evaluation            ...        0 min, 14.175 sec (  0.496%)
 iterations                     ...       42 min, 11.553 sec ( 88.532%)
 molecular gradient             ...        4 min, 37.476 sec (  9.704%)
 printout                       ...        0 min, 27.596 sec (  0.965%)

         :::::::::::::::::::::::::::::::::::::::::::::::::::::
         ::                     SUMMARY                     ::
         :::::::::::::::::::::::::::::::::::::::::::::::::::::
         :: total energy           -5104.090927123868 Eh    ::
         :: gradient norm              0.023117417123 Eh/a0 ::
         :: HOMO-LUMO gap              4.104241851546 eV    ::
         ::.................................................::
         :: SCC energy             -5198.596991821940 Eh    ::
         :: -> isotropic ES            0.264377589939 Eh    ::
         :: -> anisotropic ES          0.779513623487 Eh    ::
         :: -> anisotropic XC          3.253000462404 Eh    ::
         :: -> dispersion             -7.002173713292 Eh    ::
         :: repulsion energy          93.364625249382 Eh    ::
         :: add. restraining           0.000000000000 Eh    ::
         :: total charge              -0.000000000030 e     ::
         :::::::::::::::::::::::::::::::::::::::::::::::::::::

      ----------------------------------------------------------- 
     |              Fast Inertial Relaxation Engine              |
      ----------------------------------------------------------- 

          ...................................................
          :                      SETUP                      :
          :.................................................:
          :   energy convergence        0.5000000E-05 Eh    :
          :   grad. convergence         0.1000000E-02 Eh/a0 :
          :   optimization log               true           :
          :   writing optlog all                1     steps :
          :   Hessian reset                    20     steps :
          :   time step scaling                 5     steps :
          :   maximium step len.        1.0000000     a0    :
          :   initial time step         0.2500000     fs    :
          :   maximum time step         1.2500000     fs    :
          :   power reset thr           0.0000000     au    :
          :   alpha parameter           0.1000000           :
          :   BFGS update                   false           :
          :   preconditioning               false           :
          ...................................................

........................................................................
.............................. CYCLE    1 ..............................
........................................................................

 iter      E             dE          RMSdq      gap      omega  full diag
   1  -5198.5981311 -0.519860E+04  0.320E-04    4.10       0.0  T
   2  -5198.5981311 -0.157524E-07  0.196E-04    4.10       8.2  T
   3  -5198.5981311  0.322625E-07  0.869E-05    4.10      18.5  T
     SCC iter.                  ...       10 min, 37.972 sec
     gradient                   ...        4 min, 29.016 sec
 * total energy  : -5104.0909878 Eh     change    :  -0.6063758E-04 Eh
   gradient norm :     0.0216878 Eh/a0  converged?    E=F G=F D=F
   time step     :     0.2500000 fs     power     :   0.3116211E-08
   step length   :     0.0027093 a0     speed     :   0.2621405E-03

........................................................................
.............................. CYCLE    2 ..............................
........................................................................

 iter      E             dE          RMSdq      gap      omega  full diag
   1  -5198.5998196 -0.519860E+04  0.469E-04    4.10       0.0  T
   2  -5198.5998197 -0.302634E-07  0.287E-04    4.10       5.6  T
   3  -5198.5998196  0.443206E-07  0.105E-04    4.10      15.4  T
     SCC iter.                  ...       10 min, 34.362 sec
     gradient                   ...        4 min, 27.895 sec
 * total energy  : -5104.0910699 Eh     change    :  -0.8212702E-04 Eh
   gradient norm :     0.0196691 Eh/a0  converged?    E=F G=F D=F
   time step     :     0.2500000 fs     power     :   0.4136599E-08
   step length   :     0.0039794 a0     speed     :   0.3850289E-03

........................................................................
.............................. CYCLE    3 ..............................
........................................................................

 iter      E             dE          RMSdq      gap      omega  full diag
   1  -5198.6020443 -0.519860E+04  0.604E-04    4.11       0.0  T
   2  -5198.6020443 -0.467589E-07  0.369E-04    4.11       4.4  T
   3  -5198.6020443  0.678219E-07  0.126E-04    4.11      12.7  T
     SCC iter.                  ...       10 min, 35.570 sec
     gradient                   ...        4 min, 29.886 sec
 * total energy  : -5104.0911638 Eh     change    :  -0.9387279E-04 Eh
   gradient norm :     0.0172615 Eh/a0  converged?    E=F G=F D=F
   time step     :     0.2500000 fs     power     :   0.4631243E-08
   step length   :     0.0051273 a0     speed     :   0.4960969E-03

........................................................................
.............................. CYCLE    4 ..............................
........................................................................

 iter      E             dE          RMSdq      gap      omega  full diag
   1  -5198.6047924 -0.519860E+04  0.720E-04    4.11       0.0  T
   2  -5198.6047924 -0.619884E-07  0.441E-04    4.11       3.6  T
   3  -5198.6047923  0.104065E-06  0.151E-04    4.11      10.7  T
     SCC iter.                  ...       10 min, 39.681 sec
     gradient                   ...        4 min, 28.487 sec
 * total energy  : -5104.0912595 Eh     change    :  -0.9569354E-04 Eh
   gradient norm :     0.0147325 Eh/a0  converged?    E=F G=F D=F
   time step     :     0.2500000 fs     power     :   0.4603119E-08
   step length   :     0.0061226 a0     speed     :   0.5923952E-03

........................................................................
.............................. CYCLE    5 ..............................
........................................................................

 iter      E             dE          RMSdq      gap      omega  full diag
   1  -5198.6080493 -0.519861E+04  0.816E-04    4.11       0.0  T
   2  -5198.6080494 -0.734562E-07  0.502E-04    4.11       3.2  T
   3  -5198.6080492  0.155458E-06  0.177E-04    4.11       9.1  T
     SCC iter.                  ...       10 min, 37.195 sec
     gradient                   ...        4 min, 31.347 sec
 * total energy  : -5104.0913484 Eh     change    :  -0.8891000E-04 Eh
   gradient norm :     0.0124143 Eh/a0  converged?    E=F G=F D=F
   time step     :     0.2500000 fs     power     :   0.4149663E-08
   step length   :     0.0069409 a0     speed     :   0.6715692E-03

........................................................................
.............................. CYCLE    6 ..............................
........................................................................

 iter      E             dE          RMSdq      gap      omega  full diag
   1  -5198.6122085 -0.519861E+04  0.982E-04    4.11       0.0  T
   2  -5198.6122086 -0.979253E-07  0.609E-04    4.11       2.6  T
   3  -5198.6122083  0.301110E-06  0.236E-04    4.11       6.8  T
     SCC iter.                  ...       10 min, 35.366 sec
     gradient                   ...        4 min, 30.247 sec
 * total energy  : -5104.0914317 Eh     change    :  -0.8336326E-04 Eh
   gradient norm :     0.0104966 Eh/a0  converged?    E=F G=F D=F
   time step     :     0.2750000 fs     power     :   0.3349441E-08
   step length   :     0.0083914 a0     speed     :   0.7381014E-03

........................................................................
.............................. CYCLE    7 ..............................
........................................................................

 iter      E             dE          RMSdq      gap      omega  full diag
   1  -5198.6173760 -0.519862E+04  0.114E-03    4.11       0.0  T
   2  -5198.6173761 -0.118711E-06  0.716E-04    4.11       2.2  T
   3  -5198.6173756  0.530636E-06  0.306E-04    4.11       5.3  T
     SCC iter.                  ...       10 min, 36.367 sec
     gradient                   ...        4 min, 37.615 sec
 * total energy  : -5104.0915023 Eh     change    :  -0.7059433E-04 Eh
   gradient norm :     0.0093947 Eh/a0  converged?    E=F G=F D=F
   time step     :     0.3025000 fs     power     :   0.2380125E-08
   step length   :     0.0098103 a0     speed     :   0.7844661E-03

........................................................................
.............................. CYCLE    8 ..............................
........................................................................

 iter      E             dE          RMSdq      gap      omega  full diag
   1  -5198.6235222 -0.519862E+04  0.128E-03    4.11       0.0  T
   2  -5198.6235224 -0.136754E-06  0.808E-04    4.11       2.0  T
   3  -5198.6235216  0.804543E-06  0.375E-04    4.11       4.3  T
     SCC iter.                  ...       10 min, 35.876 sec
     gradient                   ...        4 min, 28.825 sec
 * total energy  : -5104.0915566 Eh     change    :  -0.5428327E-04 Eh
   gradient norm :     0.0090098 Eh/a0  converged?    E=F G=F D=F
   time step     :     0.3327500 fs     power     :   0.1473592E-08
   step length   :     0.0110534 a0     speed     :   0.8035113E-03

........................................................................
.............................. CYCLE    9 ..............................
........................................................................

 iter      E             dE          RMSdq      gap      omega  full diag
   1  -5198.6303988 -0.519863E+04  0.137E-03    4.11       0.0  T
   2  -5198.6303990 -0.159330E-06  0.874E-04    4.11       1.8  T
   3  -5198.6303980  0.968586E-06  0.422E-04    4.11       3.8  T
     SCC iter.                  ...       10 min, 36.972 sec
     gradient                   ...        4 min, 38.632 sec
 * total energy  : -5104.0915953 Eh     change    :  -0.3866612E-04 Eh
   gradient norm :     0.0087815 Eh/a0  converged?    E=F G=F D=F
   time step     :     0.3660250 fs     power     :   0.7524849E-09
   step length   :     0.0120297 a0     speed     :   0.7949843E-03

........................................................................
.............................. CYCLE   10 ..............................
........................................................................

 iter      E             dE          RMSdq      gap      omega  full diag
   1  -5198.6375220 -0.519864E+04  0.143E-03    4.11       0.0  T
   2  -5198.6375222 -0.186300E-06  0.905E-04    4.11       1.8  T
   3  -5198.6375212  0.942399E-06  0.434E-04    4.11       3.7  T
     SCC iter.                  ...       10 min, 40.741 sec
     gradient                   ...        4 min, 31.731 sec
 * total energy  : -5104.0916195 Eh     change    :  -0.2421085E-04 Eh
   gradient norm :     0.0084980 Eh/a0  converged?    E=F G=F D=F
   time step     :     0.4026275 fs     power     :   0.1819810E-09
   step length   :     0.0127325 a0     speed     :   0.7649382E-03

........................................................................
.............................. CYCLE   11 ..............................
........................................................................

 iter      E             dE          RMSdq      gap      omega  full diag
   1  -5198.6441607 -0.519864E+04  0.145E-03    4.11       0.0  T
   2  -5198.6441609 -0.200368E-06  0.894E-04    4.11       1.8  T
   3  -5198.6441602  0.735880E-06  0.398E-04    4.11       4.0  T
     SCC iter.                  ...       10 min, 35.020 sec
     gradient                   ...        4 min, 29.825 sec
 * total energy  : -5104.0916301 Eh     change    :  -0.1065152E-04 Eh
   gradient norm :     0.0085881 Eh/a0  converged?    E=F G=F D=F
   time step     :     0.4428903 fs     power     :  -0.2618046E-09
   step length   :     0.0131435 a0     speed     :   0.7178421E-03

........................................................................
.............................. CYCLE   12 ..............................
........................................................................
 * reset velocities

 iter      E             dE          RMSdq      gap      omega  full diag
   1  -5198.6439980 -0.519864E+04  0.647E-05    4.11       0.0  T
   2  -5198.6439981 -0.599539E-08  0.576E-05    4.11      27.9  T
   3  -5198.6439981 -0.144764E-07  0.200E-05    4.11      80.3  T
     SCC iter.                  ...       10 min, 37.288 sec
     gradient                   ...        4 min, 30.808 sec
 * total energy  : -5104.0916344 Eh     change    :  -0.4255417E-05 Eh
   gradient norm :     0.0084377 Eh/a0  converged?    E=T G=F D=T
   time step     :     0.2214451 fs     power     :   0.1996216E-09
   step length   :     0.0003949 a0     speed     :   0.4313105E-04

........................................................................
.............................. CYCLE   13 ..............................
........................................................................

 iter      E             dE          RMSdq      gap      omega  full diag
   1  -5198.6436623 -0.519864E+04  0.762E-05    4.11       0.0  T
   2  -5198.6436623 -0.141426E-08  0.528E-05    4.11      30.5  T
   3  -5198.6436623  0.245655E-08  0.231E-05    4.11      69.7  T
     SCC iter.                  ...       10 min, 35.839 sec
     gradient                   ...        4 min, 27.519 sec
 * total energy  : -5104.0916409 Eh     change    :  -0.6467342E-05 Eh
   gradient norm :     0.0081008 Eh/a0  converged?    E=F G=F D=T
   time step     :     0.2214451 fs     power     :   0.3798401E-09
   step length   :     0.0007828 a0     speed     :   0.8550436E-04

........................................................................
.............................. CYCLE   14 ..............................
........................................................................

 iter      E             dE          RMSdq      gap      omega  full diag
   1  -5198.6431567 -0.519864E+04  0.109E-04    4.11       0.0  T
   2  -5198.6431567 -0.282489E-08  0.762E-05    4.11      21.1  T
   3  -5198.6431567  0.502223E-08  0.333E-05    4.11      48.3  T
     SCC iter.                  ...       10 min, 37.344 sec
     gradient                   ...        4 min, 35.251 sec
 * total energy  : -5104.0916499 Eh     change    :  -0.9053347E-05 Eh
   gradient norm :     0.0076130 Eh/a0  converged?    E=F G=F D=F
   time step     :     0.2214451 fs     power     :   0.5262839E-09
   step length   :     0.0011551 a0     speed     :   0.1261772E-03

........................................................................
.............................. CYCLE   15 ..............................
........................................................................

 iter      E             dE          RMSdq      gap      omega  full diag
   1  -5198.6424861 -0.519864E+04  0.142E-04    4.11       0.0  T
   2  -5198.6424861 -0.450746E-08  0.988E-05    4.11      16.3  T
   3  -5198.6424861  0.819909E-08  0.428E-05    4.11      37.6  T
     SCC iter.                  ...       10 min, 34.814 sec
     gradient                   ...        4 min, 29.885 sec
 * total energy  : -5104.0916609 Eh     change    :  -0.1095894E-04 Eh
   gradient norm :     0.0069971 Eh/a0  converged?    E=F G=F D=F
   time step     :     0.2214451 fs     power     :   0.6286161E-09
   step length   :     0.0015047 a0     speed     :   0.1643659E-03

........................................................................
.............................. CYCLE   16 ..............................
........................................................................

 iter      E             dE          RMSdq      gap      omega  full diag
   1  -5198.6416566 -0.519864E+04  0.171E-04    4.11       0.0  T
   2  -5198.6416566 -0.660566E-08  0.119E-04    4.11      13.5  T
   3  -5198.6416566  0.125892E-07  0.514E-05    4.11      31.3  T
     SCC iter.                  ...       10 min, 35.857 sec
     gradient                   ...        4 min, 33.588 sec
 * total energy  : -5104.0916729 Eh     change    :  -0.1206020E-04 Eh
   gradient norm :     0.0062848 Eh/a0  converged?    E=F G=F D=F
   time step     :     0.2214451 fs     power     :   0.6811694E-09
   step length   :     0.0018252 a0     speed     :   0.1993672E-03

........................................................................
.............................. CYCLE   17 ..............................
........................................................................

 iter      E             dE          RMSdq      gap      omega  full diag
   1  -5198.6406758 -0.519864E+04  0.196E-04    4.11       0.0  T
   2  -5198.6406758 -0.813998E-08  0.137E-04    4.11      11.8  T
   3  -5198.6406758  0.172076E-07  0.590E-05    4.11      27.3  T
     SCC iter.                  ...       10 min, 39.648 sec
     gradient                   ...        4 min, 32.605 sec
 * total energy  : -5104.0916852 Eh     change    :  -0.1228889E-04 Eh
   gradient norm :     0.0055179 Eh/a0  converged?    E=F G=F D=F
   time step     :     0.2214451 fs     power     :   0.6836255E-09
   step length   :     0.0021108 a0     speed     :   0.2305697E-03

........................................................................
.............................. CYCLE   18 ..............................
........................................................................

 iter      E             dE          RMSdq      gap      omega  full diag
   1  -5198.6394254 -0.519864E+04  0.239E-04    4.11       0.0  T
   2  -5198.6394255 -0.118180E-07  0.168E-04    4.11       9.6  T
   3  -5198.6394254  0.274495E-07  0.732E-05    4.11      22.0  T
     SCC iter.                  ...       10 min, 35.516 sec
     gradient                   ...        4 min, 33.293 sec
 * total energy  : -5104.0916982 Eh     change    :  -0.1295210E-04 Eh
   gradient norm :     0.0046727 Eh/a0  converged?    E=F G=F D=F
   time step     :     0.2435896 fs     power     :   0.6342217E-09
   step length   :     0.0026201 a0     speed     :   0.2601785E-03

........................................................................
.............................. CYCLE   19 ..............................
........................................................................

 iter      E             dE          RMSdq      gap      omega  full diag
   1  -5198.6378627 -0.519864E+04  0.284E-04    4.11       0.0  T
   2  -5198.6378627 -0.156879E-07  0.200E-04    4.11       8.1  T
   3  -5198.6378626  0.416339E-07  0.878E-05    4.11      18.3  T
     SCC iter.                  ...       10 min, 37.511 sec
     gradient                   ...        4 min, 28.588 sec
 * total energy  : -5104.0917106 Eh     change    :  -0.1246246E-04 Eh
   gradient norm :     0.0038545 Eh/a0  converged?    E=F G=F D=F
   time step     :     0.2679486 fs     power     :   0.5317497E-09
   step length   :     0.0031726 a0     speed     :   0.2864083E-03

........................................................................
.............................. CYCLE   20 ..............................
........................................................................

 iter      E             dE          RMSdq      gap      omega  full diag
   1  -5198.6359552 -0.519864E+04  0.325E-04    4.11       0.0  T
   2  -5198.6359552 -0.189339E-07  0.229E-04    4.11       7.0  T
   3  -5198.6359552  0.601758E-07  0.102E-04    4.11      15.8  T
     SCC iter.                  ...       10 min, 38.465 sec
     gradient                   ...        4 min, 30.320 sec
 * total energy  : -5104.0917215 Eh     change    :  -0.1085635E-04 Eh
   gradient norm :     0.0032696 Eh/a0  converged?    E=F G=F D=F
   time step     :     0.2947435 fs     power     :   0.3899427E-09
   step length   :     0.0037371 a0     speed     :   0.3066918E-03
 * RMSD in coord.:     0.0012900 a0     energy gain  -0.7943653E-03 Eh

........................................................................
.............................. CYCLE   21 ..............................
........................................................................

 iter      E             dE          RMSdq      gap      omega  full diag
   1  -5198.6342536 -0.519863E+04  0.273E-04    4.11       0.0  T
   2  -5198.6342536 -0.110249E-07  0.190E-04    4.11       8.5  T
   3  -5198.6342536  0.447317E-07  0.849E-05    4.11      19.0  T
     SCC iter.                  ...       10 min, 36.285 sec
     gradient                   ...        4 min, 29.396 sec
 * total energy  : -5104.0917283 Eh     change    :  -0.6783112E-05 Eh
   gradient norm :     0.0031206 Eh/a0  converged?    E=F G=F D=F
   time step     :     0.2500000 fs     power     :   0.2831812E-09
   step length   :     0.0032333 a0     speed     :   0.3128352E-03

........................................................................
.............................. CYCLE   22 ..............................
........................................................................

 iter      E             dE          RMSdq      gap      omega  full diag
   1  -5198.6325429 -0.519863E+04  0.258E-04    4.11       0.0  T
   2  -5198.6325429 -0.826367E-08  0.178E-04    4.11       9.1  T
   3  -5198.6325428  0.432947E-07  0.819E-05    4.11      19.6  T
     SCC iter.                  ...       10 min, 34.741 sec
     gradient                   ...        4 min, 29.357 sec
 * total energy  : -5104.0917334 Eh     change    :  -0.5145435E-05 Eh
   gradient norm :     0.0032043 Eh/a0  converged?    E=F G=F D=F
   time step     :     0.2500000 fs     power     :   0.2117725E-09
   step length   :     0.0032065 a0     speed     :   0.3102467E-03

........................................................................
.............................. CYCLE   23 ..............................
........................................................................

 iter      E             dE          RMSdq      gap      omega  full diag
   1  -5198.6309007 -0.519863E+04  0.241E-04    4.11       0.0  T
   2  -5198.6309007 -0.560794E-08  0.162E-04    4.11       9.9  T
   3  -5198.6309007  0.343653E-07  0.733E-05    4.11      21.9  T
     SCC iter.                  ...       10 min, 36.550 sec
     gradient                   ...        4 min, 28.955 sec
 * total energy  : -5104.0917377 Eh     change    :  -0.4299241E-05 Eh
   gradient norm :     0.0033652 Eh/a0  converged?    E=T G=F D=F
   time step     :     0.2500000 fs     power     :   0.1814695E-09
   step length   :     0.0031187 a0     speed     :   0.3017488E-03

........................................................................
.............................. CYCLE   24 ..............................
........................................................................

 iter      E             dE          RMSdq      gap      omega  full diag
   1  -5198.6293904 -0.519863E+04  0.226E-04    4.11       0.0  T
   2  -5198.6293904 -0.365435E-08  0.146E-04    4.11      11.0  T
   3  -5198.6293903  0.201908E-07  0.574E-05    4.11      28.0  T
     SCC iter.                  ...       10 min, 38.890 sec
     gradient                   ...        4 min, 31.858 sec
 * total energy  : -5104.0917419 Eh     change    :  -0.4166232E-05 Eh
   gradient norm :     0.0034959 Eh/a0  converged?    E=T G=F D=F
   time step     :     0.2500000 fs     power     :   0.1846355E-09
   step length   :     0.0030114 a0     speed     :   0.2913650E-03

........................................................................
.............................. CYCLE   25 ..............................
........................................................................

 iter      E             dE          RMSdq      gap      omega  full diag
   1  -5198.6280556 -0.519863E+04  0.217E-04    4.11       0.0  T
   2  -5198.6280556 -0.245018E-08  0.134E-04    4.11      12.0  T
   3  -5198.6280556  0.611908E-08  0.344E-05    4.11      46.7  T
     SCC iter.                  ...       10 min, 35.502 sec
     gradient                   ...        4 min, 27.905 sec
 * total energy  : -5104.0917463 Eh     change    :  -0.4422293E-05 Eh
   gradient norm :     0.0035496 Eh/a0  converged?    E=T G=F D=F
   time step     :     0.2500000 fs     power     :   0.2085553E-09
   step length   :     0.0029168 a0     speed     :   0.2822140E-03

........................................................................
.............................. CYCLE   26 ..............................
........................................................................

 iter      E             dE          RMSdq      gap      omega  full diag
   1  -5198.6268139 -0.519863E+04  0.236E-04    4.11       0.0  T
   2  -5198.6268139 -0.238651E-08  0.140E-04    4.11      11.5  T
   3  -5198.6268139  0.164346E-08  0.240E-05    4.11      67.1  T
     SCC iter.                  ...       10 min, 36.058 sec
     gradient                   ...        4 min, 32.719 sec
 * total energy  : -5104.0917518 Eh     change    :  -0.5460024E-05 Eh
   gradient norm :     0.0035049 Eh/a0  converged?    E=F G=F D=F
   time step     :     0.2750000 fs     power     :   0.2400269E-09
   step length   :     0.0031498 a0     speed     :   0.2770502E-03

........................................................................
.............................. CYCLE   27 ..............................
........................................................................

 iter      E             dE          RMSdq      gap      omega  full diag
   1  -5198.6257252 -0.519863E+04  0.261E-04    4.11       0.0  T
   2  -5198.6257252 -0.288583E-08  0.154E-04    4.11      10.4  T
   3  -5198.6257252  0.374712E-08  0.308E-05    4.11      52.3  T
     SCC iter.                  ...       10 min, 32.752 sec
     gradient                   ...        4 min, 30.382 sec
 * total energy  : -5104.0917584 Eh     change    :  -0.6646919E-05 Eh
   gradient norm :     0.0033531 Eh/a0  converged?    E=F G=F D=F
   time step     :     0.3025000 fs     power     :   0.2685947E-09
   step length   :     0.0034598 a0     speed     :   0.2766586E-03

........................................................................
.............................. CYCLE   28 ..............................
........................................................................

 iter      E             dE          RMSdq      gap      omega  full diag
   1  -5198.6248575 -0.519862E+04  0.297E-04    4.11       0.0  T
   2  -5198.6248575 -0.376167E-08  0.175E-04    4.11       9.2  T
   3  -5198.6248575  0.132895E-07  0.529E-05    4.11      30.4  T
     SCC iter.                  ...       10 min, 41.206 sec
     gradient                   ...        4 min, 30.191 sec
 * total energy  : -5104.0917662 Eh     change    :  -0.7816244E-05 Eh
   gradient norm :     0.0031094 Eh/a0  converged?    E=F G=F D=F
   time step     :     0.3327500 fs     power     :   0.2851939E-09
   step length   :     0.0038623 a0     speed     :   0.2807627E-03

........................................................................
.............................. CYCLE   29 ..............................
........................................................................

 iter      E             dE          RMSdq      gap      omega  full diag
   1  -5198.6242856 -0.519862E+04  0.339E-04    4.11       0.0  T
   2  -5198.6242856 -0.549790E-08  0.203E-04    4.11       7.9  T
   3  -5198.6242855  0.343798E-07  0.822E-05    4.11      19.6  T
     SCC iter.                  ...       10 min, 34.428 sec
     gradient                   ...        4 min, 30.413 sec
 * total energy  : -5104.0917749 Eh     change    :  -0.8670535E-05 Eh
   gradient norm :     0.0028141 Eh/a0  converged?    E=F G=F D=F
   time step     :     0.3660250 fs     power     :   0.2836618E-09
   step length   :     0.0043623 a0     speed     :   0.2882821E-03

........................................................................
.............................. CYCLE   30 ..............................
........................................................................

 iter      E             dE          RMSdq      gap      omega  full diag
   1  -5198.6240843 -0.519862E+04  0.383E-04    4.11       0.0  T
   2  -5198.6240843 -0.736236E-08  0.233E-04    4.11       6.9  T
   3  -5198.6240843  0.603650E-07  0.108E-04    4.11      14.9  T
     SCC iter.                  ...       10 min, 34.589 sec
     gradient                   ...        4 min, 29.164 sec
 * total energy  : -5104.0917840 Eh     change    :  -0.9120798E-05 Eh
   gradient norm :     0.0025371 Eh/a0  converged?    E=F G=F D=F
   time step     :     0.4026275 fs     power     :   0.2632504E-09
   step length   :     0.0049516 a0     speed     :   0.2974773E-03

........................................................................
.............................. CYCLE   31 ..............................
........................................................................

 iter      E             dE          RMSdq      gap      omega  full diag
   1  -5198.6243086 -0.519862E+04  0.422E-04    4.11       0.0  T
   2  -5198.6243087 -0.899854E-08  0.259E-04    4.11       6.2  T
   3  -5198.6243086  0.803120E-07  0.124E-04    4.11      13.0  T
     SCC iter.                  ...       10 min, 36.487 sec
     gradient                   ...        4 min, 35.186 sec
 * total energy  : -5104.0917931 Eh     change    :  -0.9031098E-05 Eh
   gradient norm :     0.0023538 Eh/a0  converged?    E=F G=F D=F
   time step     :     0.4428903 fs     power     :   0.2304221E-09
   step length   :     0.0056065 a0     speed     :   0.3062035E-03

........................................................................
.............................. CYCLE   32 ..............................
........................................................................

 iter      E             dE          RMSdq      gap      omega  full diag
   1  -5198.6249605 -0.519862E+04  0.450E-04    4.11       0.0  T
   2  -5198.6249605 -0.101554E-07  0.274E-04    4.11       5.9  T
   3  -5198.6249604  0.818454E-07  0.123E-04    4.11      13.0  T
     SCC iter.                  ...       10 min, 40.214 sec
     gradient                   ...        4 min, 30.177 sec
 * total energy  : -5104.0918018 Eh     change    :  -0.8723144E-05 Eh
   gradient norm :     0.0022910 Eh/a0  converged?    E=F G=F D=F
   time step     :     0.4871793 fs     power     :   0.1971092E-09
   step length   :     0.0062945 a0     speed     :   0.3125249E-03

........................................................................
.............................. CYCLE   33 ..............................
........................................................................

 iter      E             dE          RMSdq      gap      omega  full diag
   1  -5198.6259628 -0.519863E+04  0.460E-04    4.11       0.0  T
   2  -5198.6259628 -0.107912E-07  0.277E-04    4.11       5.8  T
   3  -5198.6259627  0.532164E-07  0.100E-04    4.11      16.1  T
     SCC iter.                  ...       10 min, 35.271 sec
     gradient                   ...        4 min, 34.754 sec
 * total energy  : -5104.0918104 Eh     change    :  -0.8614826E-05 Eh
   gradient norm :     0.0023200 Eh/a0  converged?    E=F G=F D=F
   time step     :     0.5358972 fs     power     :   0.1744683E-09
   step length   :     0.0069977 a0     speed     :   0.3158545E-03

........................................................................
.............................. CYCLE   34 ..............................
........................................................................

 iter      E             dE          RMSdq      gap      omega  full diag
   1  -5198.6271633 -0.519863E+04  0.453E-04    4.11       0.0  T
   2  -5198.6271634 -0.105365E-07  0.270E-04    4.11       5.9  T
   3  -5198.6271633  0.125410E-07  0.560E-05    4.11      28.7  T
     SCC iter.                  ...       10 min, 37.279 sec
     gradient                   ...        4 min, 35.016 sec
 * total energy  : -5104.0918194 Eh     change    :  -0.9018387E-05 Eh
   gradient norm :     0.0023933 Eh/a0  converged?    E=F G=F D=F
   time step     :     0.5894869 fs     power     :   0.1694041E-09
   step length   :     0.0077371 a0     speed     :   0.3174806E-03

........................................................................
.............................. CYCLE   35 ..............................
........................................................................

 iter      E             dE          RMSdq      gap      omega  full diag
   1  -5198.6283626 -0.519863E+04  0.434E-04    4.11       0.0  T
   2  -5198.6283626 -0.816090E-08  0.263E-04    4.11       6.1  T
   3  -5198.6283626  0.136015E-07  0.544E-05    4.11      29.6  T
     SCC iter.                  ...       10 min, 38.383 sec
     gradient                   ...        4 min, 30.531 sec
 * total energy  : -5104.0918296 Eh     change    :  -0.1022339E-04 Eh
   gradient norm :     0.0024106 Eh/a0  converged?    E=F G=F D=F
   time step     :     0.6484356 fs     power     :   0.1822523E-09
   step length   :     0.0085781 a0     speed     :   0.3199913E-03

........................................................................
.............................. CYCLE   36 ..............................
........................................................................

 iter      E             dE          RMSdq      gap      omega  full diag
   1  -5198.6293426 -0.519863E+04  0.422E-04    4.11       0.0  T
   2  -5198.6293426 -0.644923E-08  0.260E-04    4.11       6.2  T
   3  -5198.6293426  0.229256E-07  0.655E-05    4.11      24.6  T
     SCC iter.                  ...       10 min, 33.141 sec
     gradient                   ...        4 min, 29.534 sec
 * total energy  : -5104.0918418 Eh     change    :  -0.1219606E-04 Eh
   gradient norm :     0.0022804 Eh/a0  converged?    E=F G=F D=F
   time step     :     0.7132792 fs     power     :   0.1994453E-09
   step length   :     0.0096168 a0     speed     :   0.3261259E-03

........................................................................
.............................. CYCLE   37 ..............................
........................................................................

 iter      E             dE          RMSdq      gap      omega  full diag
   1  -5198.6298981 -0.519863E+04  0.423E-04    4.11       0.0  T
   2  -5198.6298981 -0.100699E-07  0.269E-04    4.11       6.0  T
   3  -5198.6298980  0.598757E-07  0.995E-05    4.11      16.2  T
     SCC iter.                  ...       10 min, 37.341 sec
     gradient                   ...        4 min, 33.714 sec
 * total energy  : -5104.0918558 Eh     change    :  -0.1395327E-04 Eh
   gradient norm :     0.0021876 Eh/a0  converged?    E=F G=F D=F
   time step     :     0.7846071 fs     power     :   0.2046993E-09
   step length   :     0.0109178 a0     speed     :   0.3365879E-03

........................................................................
.............................. CYCLE   38 ..............................
........................................................................

 iter      E             dE          RMSdq      gap      omega  full diag
   1  -5198.6298875 -0.519863E+04  0.449E-04    4.11       0.0  T
   2  -5198.6298876 -0.141172E-07  0.280E-04    4.11       5.7  T
   3  -5198.6298875  0.517357E-07  0.969E-05    4.11      16.6  T
     SCC iter.                  ...       10 min, 34.127 sec
     gradient                   ...        4 min, 31.386 sec
 * total energy  : -5104.0918717 Eh     change    :  -0.1587054E-04 Eh
   gradient norm :     0.0023072 Eh/a0  converged?    E=F G=F D=F
   time step     :     0.8630678 fs     power     :   0.2165037E-09
   step length   :     0.0124608 a0     speed     :   0.3492344E-03

........................................................................
.............................. CYCLE   39 ..............................
........................................................................

 iter      E             dE          RMSdq      gap      omega  full diag
   1  -5198.6294217 -0.519863E+04  0.520E-04    4.11       0.0  T
   2  -5198.6294218 -0.137861E-07  0.314E-04    4.11       5.1  T
   3  -5198.6294217  0.217933E-07  0.706E-05    4.11      22.8  T
     SCC iter.                  ...       10 min, 34.633 sec
     gradient                   ...        4 min, 34.049 sec
 * total energy  : -5104.0918914 Eh     change    :  -0.1972139E-04 Eh
   gradient norm :     0.0022443 Eh/a0  converged?    E=F G=F D=F
   time step     :     0.9493746 fs     power     :   0.2523599E-09
   step length   :     0.0143146 a0     speed     :   0.3647164E-03

........................................................................
.............................. CYCLE   40 ..............................
........................................................................

 iter      E             dE          RMSdq      gap      omega  full diag
   1  -5198.6290261 -0.519863E+04  0.607E-04    4.11       0.0  T
   2  -5198.6290261 -0.160153E-07  0.368E-04    4.11       4.4  T
   3  -5198.6290261  0.425935E-07  0.923E-05    4.11      17.4  T
     SCC iter.                  ...       10 min, 38.386 sec
     gradient                   ...        4 min, 33.770 sec
 * total energy  : -5104.0919152 Eh     change    :  -0.2378671E-04 Eh
   gradient norm :     0.0019869 Eh/a0  converged?    E=F G=F D=F
   time step     :     1.0443120 fs     power     :   0.2692176E-09
   step length   :     0.0167135 a0     speed     :   0.3871251E-03

........................................................................
.............................. CYCLE   41 ..............................
........................................................................

 iter      E             dE          RMSdq      gap      omega  full diag
   1  -5198.6296171 -0.519863E+04  0.646E-04    4.11       0.0  T
   2  -5198.6296171 -0.180607E-07  0.396E-04    4.11       4.1  T
   3  -5198.6296171  0.617219E-07  0.110E-04    4.11      14.7  T
     SCC iter.                  ...       10 min, 37.907 sec
     gradient                   ...        4 min, 33.413 sec
 * total energy  : -5104.0919410 Eh     change    :  -0.2587399E-04 Eh
   gradient norm :     0.0020868 Eh/a0  converged?    E=F G=F D=F
   time step     :     1.1487432 fs     power     :   0.2619589E-09
   step length   :     0.0196289 a0     speed     :   0.4133216E-03

........................................................................
.............................. CYCLE   42 ..............................
........................................................................

 iter      E             dE          RMSdq      gap      omega  full diag
   1  -5198.6314716 -0.519863E+04  0.700E-04    4.11       0.0  T
   2  -5198.6314716 -0.144692E-07  0.416E-04    4.11       3.9  T
   3  -5198.6314716  0.146119E-07  0.650E-05    4.11      24.8  T
     SCC iter.                  ...       10 min, 35.353 sec
     gradient                   ...        4 min, 32.284 sec
 * total energy  : -5104.0919716 Eh     change    :  -0.3061457E-04 Eh
   gradient norm :     0.0021567 Eh/a0  converged?    E=F G=F D=F
   time step     :     1.2500000 fs     power     :   0.3006175E-09
   step length   :     0.0226075 a0     speed     :   0.4374787E-03
 * RMSD in coord.:     0.0024925 a0     energy gain  -0.2501582E-03 Eh

........................................................................
.............................. CYCLE   43 ..............................
........................................................................

 iter      E             dE          RMSdq      gap      omega  full diag
   1  -5198.6318143 -0.519863E+04  0.137E-04    4.11       0.0  T
   2  -5198.6318143 -0.693035E-09  0.806E-05    4.11      20.0  T
   3  -5198.6318143  0.155615E-08  0.197E-05    4.11      81.6  T
     SCC iter.                  ...       10 min, 34.634 sec
     gradient                   ...        4 min, 32.837 sec
 * total energy  : -5104.0919779 Eh     change    :  -0.6291813E-05 Eh
   gradient norm :     0.0020875 Eh/a0  converged?    E=F G=F D=F
   time step     :     0.2500000 fs     power     :   0.3289576E-09
   step length   :     0.0044305 a0     speed     :   0.4286699E-03

........................................................................
.............................. CYCLE   44 ..............................
........................................................................

 iter      E             dE          RMSdq      gap      omega  full diag
   1  -5198.6321110 -0.519863E+04  0.144E-04    4.11       0.0  T
   2  -5198.6321110 -0.793079E-09  0.863E-05    4.11      18.6  T
   3  -5198.6321110  0.307136E-08  0.262E-05    4.11      61.5  T
     SCC iter.                  ...       10 min, 39.472 sec
     gradient                   ...        4 min, 34.190 sec
 * total energy  : -5104.0919846 Eh     change    :  -0.6624890E-05 Eh
   gradient norm :     0.0019060 Eh/a0  converged?    E=F G=F D=F
   time step     :     0.2500000 fs     power     :   0.3447976E-09
   step length   :     0.0043864 a0     speed     :   0.4244071E-03

........................................................................
.............................. CYCLE   45 ..............................
........................................................................

 iter      E             dE          RMSdq      gap      omega  full diag
   1  -5198.6323500 -0.519863E+04  0.158E-04    4.11       0.0  T
   2  -5198.6323500 -0.134150E-08  0.960E-05    4.11      16.8  T
   3  -5198.6323500  0.451837E-08  0.301E-05    4.11      53.5  T
     SCC iter.                  ...       10 min, 34.760 sec
     gradient                   ...        4 min, 28.800 sec
 * total energy  : -5104.0919912 Eh     change    :  -0.6659416E-05 Eh
   gradient norm :     0.0016833 Eh/a0  converged?    E=F G=F D=F
   time step     :     0.2500000 fs     power     :   0.3428020E-09
   step length   :     0.0043891 a0     speed     :   0.4246650E-03

........................................................................
.............................. CYCLE   46 ..............................
........................................................................

 iter      E             dE          RMSdq      gap      omega  full diag
   1  -5198.6325275 -0.519863E+04  0.171E-04    4.11       0.0  T
   2  -5198.6325275 -0.147338E-08  0.104E-04    4.11      15.5  T
   3  -5198.6325275  0.498221E-08  0.321E-05    4.11      50.1  T
     SCC iter.                  ...       10 min, 34.981 sec
     gradient                   ...        4 min, 31.130 sec
 * total energy  : -5104.0919977 Eh     change    :  -0.6431014E-05 Eh
   gradient norm :     0.0015189 Eh/a0  converged?    E=F G=F D=F
   time step     :     0.2500000 fs     power     :   0.3265224E-09
   step length   :     0.0044278 a0     speed     :   0.4284087E-03

........................................................................
.............................. CYCLE   47 ..............................
........................................................................

 iter      E             dE          RMSdq      gap      omega  full diag
   1  -5198.6326484 -0.519863E+04  0.174E-04    4.11       0.0  T
   2  -5198.6326484 -0.144883E-08  0.106E-04    4.11      15.2  T
   3  -5198.6326484  0.471300E-08  0.302E-05    4.11      53.3  T
     SCC iter.                  ...       10 min, 35.332 sec
     gradient                   ...        4 min, 31.353 sec
 * total energy  : -5104.0920037 Eh     change    :  -0.6046096E-05 Eh
   gradient norm :     0.0014837 Eh/a0  converged?    E=F G=F D=F
   time step     :     0.2500000 fs     power     :   0.3068822E-09
   step length   :     0.0044766 a0     speed     :   0.4331319E-03

........................................................................
.............................. CYCLE   48 ..............................
........................................................................

 iter      E             dE          RMSdq      gap      omega  full diag
   1  -5198.6327331 -0.519863E+04  0.183E-04    4.11       0.0  T
   2  -5198.6327331 -0.147429E-08  0.111E-04    4.11      14.5  T
   3  -5198.6327331  0.390901E-08  0.278E-05    4.11      57.9  T
     SCC iter.                  ...       10 min, 35.457 sec
     gradient                   ...        4 min, 30.302 sec
 * total energy  : -5104.0920101 Eh     change    :  -0.6385589E-05 Eh
   gradient norm :     0.0015612 Eh/a0  converged?    E=F G=F D=F
   time step     :     0.2750000 fs     power     :   0.2939424E-09
   step length   :     0.0049608 a0     speed     :   0.4363448E-03

........................................................................
.............................. CYCLE   49 ..............................
........................................................................

 iter      E             dE          RMSdq      gap      omega  full diag
   1  -5198.6327913 -0.519863E+04  0.182E-04    4.11       0.0  T
   2  -5198.6327913 -0.114596E-08  0.109E-04    4.11      14.8  T
   3  -5198.6327913  0.209457E-08  0.213E-05    4.11      75.5  T
     SCC iter.                  ...       10 min, 36.863 sec
     gradient                   ...        4 min, 29.848 sec
 * total energy  : -5104.0920170 Eh     change    :  -0.6878652E-05 Eh
   gradient norm :     0.0016671 Eh/a0  converged?    E=F G=F D=F
   time step     :     0.3025000 fs     power     :   0.2947654E-09
   step length   :     0.0054628 a0     speed     :   0.4368203E-03

........................................................................
.............................. CYCLE   50 ..............................
........................................................................

 iter      E             dE          RMSdq      gap      omega  full diag
   1  -5198.6328281 -0.519863E+04  0.179E-04    4.11       0.0  T
   2  -5198.6328281 -0.854925E-09  0.106E-04    4.11      15.2  T
   3  -5198.6328281  0.773980E-09  0.154E-05    4.11     104.6  T
     SCC iter.                  ...       10 min, 35.582 sec
     gradient                   ...        4 min, 35.957 sec
 * total energy  : -5104.0920247 Eh     change    :  -0.7784298E-05 Eh
   gradient norm :     0.0017113 Eh/a0  converged?    E=F G=F D=F
   time step     :     0.3327500 fs     power     :   0.3069667E-09
   step length   :     0.0060044 a0     speed     :   0.4364849E-03

........................................................................
.............................. CYCLE   51 ..............................
........................................................................

 iter      E             dE          RMSdq      gap      omega  full diag
   1  -5198.6328355 -0.519863E+04  0.182E-04    4.11       0.0  T
   2  -5198.6328355 -0.655746E-09  0.108E-04    4.11      14.9  T
   3  -5198.6328355  0.107320E-08  0.170E-05    4.11      94.7  T
     SCC iter.                  ...       10 min, 37.460 sec
     gradient                   ...        4 min, 30.893 sec
 * total energy  : -5104.0920337 Eh     change    :  -0.8960862E-05 Eh
   gradient norm :     0.0016521 Eh/a0  converged?    E=F G=F D=F
   time step     :     0.3660250 fs     power     :   0.3211411E-09
   step length   :     0.0066294 a0     speed     :   0.4381065E-03

........................................................................
.............................. CYCLE   52 ..............................
........................................................................

 iter      E             dE          RMSdq      gap      omega  full diag
   1  -5198.6327858 -0.519863E+04  0.200E-04    4.11       0.0  T
   2  -5198.6327858 -0.111777E-08  0.120E-04    4.11      13.4  T
   3  -5198.6327858  0.376622E-08  0.277E-05    4.11      58.0  T
     SCC iter.                  ...       10 min, 35.409 sec
     gradient                   ...        4 min, 31.168 sec
 * total energy  : -5104.0920438 Eh     change    :  -0.1012961E-04 Eh
   gradient norm :     0.0015230 Eh/a0  converged?    E=F G=F D=F
   time step     :     0.4026275 fs     power     :   0.3272100E-09
   step length   :     0.0073828 a0     speed     :   0.4435371E-03

........................................................................
.............................. CYCLE   53 ..............................
........................................................................

 iter      E             dE          RMSdq      gap      omega  full diag
   1  -5198.6326310 -0.519863E+04  0.228E-04    4.11       0.0  T
   2  -5198.6326310 -0.205000E-08  0.139E-04    4.11      11.6  T
   3  -5198.6326310  0.811906E-08  0.392E-05    4.11      41.0  T
     SCC iter.                  ...       10 min, 33.927 sec
     gradient                   ...        4 min, 28.711 sec
 * total energy  : -5104.0920550 Eh     change    :  -0.1113893E-04 Eh
   gradient norm :     0.0014394 Eh/a0  converged?    E=F G=F D=F
   time step     :     0.4428903 fs     power     :   0.3227283E-09
   step length   :     0.0082927 a0     speed     :   0.4529129E-03

........................................................................
.............................. CYCLE   54 ..............................
........................................................................

 iter      E             dE          RMSdq      gap      omega  full diag
   1  -5198.6323263 -0.519863E+04  0.253E-04    4.11       0.0  T
   2  -5198.6323263 -0.232831E-08  0.154E-04    4.11      10.4  T
   3  -5198.6323263  0.908040E-08  0.415E-05    4.11      38.8  T
     SCC iter.                  ...       10 min, 36.411 sec
     gradient                   ...        4 min, 30.194 sec
 * total energy  : -5104.0920670 Eh     change    :  -0.1206003E-04 Eh
   gradient norm :     0.0014744 Eh/a0  converged?    E=F G=F D=F
   time step     :     0.4871793 fs     power     :   0.3176757E-09
   step length   :     0.0093410 a0     speed     :   0.4637885E-03

........................................................................
.............................. CYCLE   55 ..............................
........................................................................

 iter      E             dE          RMSdq      gap      omega  full diag
   1  -5198.6318868 -0.519863E+04  0.270E-04    4.11       0.0  T
   2  -5198.6318868 -0.191631E-08  0.162E-04    4.11       9.9  T
   3  -5198.6318868  0.463933E-08  0.319E-05    4.11      50.5  T
     SCC iter.                  ...       10 min, 35.403 sec
     gradient                   ...        4 min, 32.889 sec
 * total energy  : -5104.0920804 Eh     change    :  -0.1333321E-04 Eh
   gradient norm :     0.0015383 Eh/a0  converged?    E=F G=F D=F
   time step     :     0.5358972 fs     power     :   0.3228496E-09
   step length   :     0.0104894 a0     speed     :   0.4734618E-03

........................................................................
.............................. CYCLE   56 ..............................
........................................................................

 iter      E             dE          RMSdq      gap      omega  full diag
   1  -5198.6314256 -0.519863E+04  0.287E-04    4.11       0.0  T
   2  -5198.6314256 -0.154705E-08  0.170E-04    4.11       9.5  T
   3  -5198.6314256  0.250202E-08  0.265E-05    4.11      60.6  T
     SCC iter.                  ...       10 min, 34.680 sec
     gradient                   ...        4 min, 32.928 sec
 * total energy  : -5104.0920956 Eh     change    :  -0.1521049E-04 Eh
   gradient norm :     0.0015418 Eh/a0  converged?    E=F G=F D=F
   time step     :     0.5894869 fs     power     :   0.3364865E-09
   step length   :     0.0117751 a0     speed     :   0.4831781E-03

........................................................................
.............................. CYCLE   57 ..............................
........................................................................

 iter      E             dE          RMSdq      gap      omega  full diag
   1  -5198.6311477 -0.519863E+04  0.316E-04    4.11       0.0  T
   2  -5198.6311477 -0.196815E-08  0.189E-04    4.11       8.5  T
   3  -5198.6311477  0.875934E-08  0.410E-05    4.11      39.2  T
     SCC iter.                  ...       10 min, 35.770 sec
     gradient                   ...        4 min, 31.353 sec
 * total energy  : -5104.0921129 Eh     change    :  -0.1733899E-04 Eh
   gradient norm :     0.0014654 Eh/a0  converged?    E=F G=F D=F
   time step     :     0.6484356 fs     power     :   0.3493249E-09
   step length   :     0.0132830 a0     speed     :   0.4955023E-03

........................................................................
.............................. CYCLE   58 ..............................
........................................................................

 iter      E             dE          RMSdq      gap      omega  full diag
   1  -5198.6312854 -0.519863E+04  0.363E-04    4.11       0.0  T
   2  -5198.6312854 -0.317596E-08  0.219E-04    4.11       7.3  T
   3  -5198.6312854  0.201271E-07  0.600E-05    4.11      26.8  T
     SCC iter.                  ...       10 min, 35.105 sec
     gradient                   ...        4 min, 32.308 sec
 * total energy  : -5104.0921324 Eh     change    :  -0.1948620E-04 Eh
   gradient norm :     0.0014057 Eh/a0  converged?    E=F G=F D=F
   time step     :     0.7132792 fs     power     :   0.3535877E-09
   step length   :     0.0150931 a0     speed     :   0.5118391E-03

........................................................................
.............................. CYCLE   59 ..............................
........................................................................

 iter      E             dE          RMSdq      gap      omega  full diag
   1  -5198.6319080 -0.519863E+04  0.401E-04    4.11       0.0  T
   2  -5198.6319080 -0.301316E-08  0.239E-04    4.11       6.7  T
   3  -5198.6319080  0.110331E-07  0.473E-05    4.11      34.0  T
     SCC iter.                  ...       10 min, 39.519 sec
     gradient                   ...        4 min, 30.477 sec
 * total energy  : -5104.0921542 Eh     change    :  -0.2176257E-04 Eh
   gradient norm :     0.0014779 Eh/a0  converged?    E=F G=F D=F
   time step     :     0.7846071 fs     power     :   0.3600398E-09
   step length   :     0.0172047 a0     speed     :   0.5304087E-03

........................................................................
.............................. CYCLE   60 ..............................
........................................................................

 iter      E             dE          RMSdq      gap      omega  full diag
   1  -5198.6327548 -0.519863E+04  0.433E-04    4.11       0.0  T
   2  -5198.6327548 -0.303498E-08  0.255E-04    4.11       6.3  T
   3  -5198.6327548  0.118653E-07  0.493E-05    4.11      32.6  T
     SCC iter.                  ...       10 min, 40.293 sec
     gradient                   ...        4 min, 30.642 sec
 * total energy  : -5104.0921791 Eh     change    :  -0.2497480E-04 Eh
   gradient norm :     0.0014499 Eh/a0  converged?    E=F G=F D=F
   time step     :     0.8630678 fs     power     :   0.3780520E-09
   step length   :     0.0195725 a0     speed     :   0.5485517E-03

........................................................................
.............................. CYCLE   61 ..............................
........................................................................

 iter      E             dE          RMSdq      gap      omega  full diag
   1  -5198.6334118 -0.519863E+04  0.493E-04    4.11       0.0  T
   2  -5198.6334118 -0.485124E-08  0.293E-04    4.11       5.5  T
   3  -5198.6334117  0.239706E-07  0.665E-05    4.11      24.2  T
     SCC iter.                  ...       10 min, 38.125 sec
     gradient                   ...        4 min, 30.191 sec
 * total energy  : -5104.0922077 Eh     change    :  -0.2857605E-04 Eh
   gradient norm :     0.0013798 Eh/a0  converged?    E=F G=F D=F
   time step     :     0.9493746 fs     power     :   0.3891093E-09
   step length   :     0.0223932 a0     speed     :   0.5705495E-03

........................................................................
.............................. CYCLE   62 ..............................
........................................................................

 iter      E             dE          RMSdq      gap      omega  full diag
   1  -5198.6335920 -0.519863E+04  0.550E-04    4.11       0.0  T
   2  -5198.6335920 -0.583987E-08  0.325E-04    4.11       4.9  T
   3  -5198.6335919  0.177706E-07  0.612E-05    4.11      26.3  T
     SCC iter.                  ...       10 min, 31.966 sec
     gradient                   ...        4 min, 28.672 sec
 * total energy  : -5104.0922399 Eh     change    :  -0.3220759E-04 Eh
   gradient norm :     0.0014533 Eh/a0  converged?    E=F G=F D=F
   time step     :     1.0443120 fs     power     :   0.3994895E-09
   step length   :     0.0257379 a0     speed     :   0.5961539E-03

........................................................................
.............................. CYCLE   63 ..............................
........................................................................

 iter      E             dE          RMSdq      gap      omega  full diag
   1  -5198.6333582 -0.519863E+04  0.607E-04    4.11       0.0  T
   2  -5198.6333582 -0.678847E-08  0.359E-04    4.11       4.5  T
   3  -5198.6333582  0.279324E-07  0.756E-05    4.11      21.3  T
     SCC iter.                  ...       10 min, 33.344 sec
     gradient                   ...        4 min, 28.833 sec
 * total energy  : -5104.0922771 Eh     change    :  -0.3721164E-04 Eh
   gradient norm :     0.0013970 Eh/a0  converged?    E=F G=F D=F
   time step     :     1.1487432 fs     power     :   0.4217970E-09
   step length   :     0.0295240 a0     speed     :   0.6216803E-03

........................................................................
.............................. CYCLE   64 ..............................
........................................................................

 iter      E             dE          RMSdq      gap      omega  full diag
   1  -5198.6330946 -0.519863E+04  0.699E-04    4.11       0.0  T
   2  -5198.6330946 -0.976252E-08  0.418E-04    4.11       3.9  T
   3  -5198.6330946  0.628770E-07  0.105E-04    4.11      15.3  T
     SCC iter.                  ...       10 min, 34.643 sec
     gradient                   ...        4 min, 28.022 sec
 * total energy  : -5104.0923189 Eh     change    :  -0.4171412E-04 Eh
   gradient norm :     0.0013706 Eh/a0  converged?    E=F G=F D=F
   time step     :     1.2500000 fs     power     :   0.4325968E-09
   step length   :     0.0336980 a0     speed     :   0.6520934E-03

........................................................................
.............................. CYCLE   65 ..............................
........................................................................

 iter      E             dE          RMSdq      gap      omega  full diag
   1  -5198.6335299 -0.519863E+04  0.720E-04    4.11       0.0  T
   2  -5198.6335299 -0.771615E-08  0.425E-04    4.11       3.8  T
   3  -5198.6335299  0.288992E-07  0.811E-05    4.11      19.8  T
     SCC iter.                  ...       10 min, 35.900 sec
     gradient                   ...        4 min, 29.417 sec
 * total energy  : -5104.0923621 Eh     change    :  -0.4327633E-04 Eh
   gradient norm :     0.0013930 Eh/a0  converged?    E=F G=F D=F
   time step     :     1.2500000 fs     power     :   0.4523217E-09
   step length   :     0.0352094 a0     speed     :   0.6813401E-03

........................................................................
.............................. CYCLE   66 ..............................
........................................................................

 iter      E             dE          RMSdq      gap      omega  full diag
   1  -5198.6341948 -0.519863E+04  0.753E-04    4.11       0.0  T
   2  -5198.6341948 -0.100044E-07  0.447E-04    4.11       3.6  T
   3  -5198.6341948  0.547543E-07  0.998E-05    4.11      16.1  T
     SCC iter.                  ...       10 min, 31.532 sec
     gradient                   ...        4 min, 29.123 sec
 * total energy  : -5104.0924069 Eh     change    :  -0.4476836E-04 Eh
   gradient norm :     0.0013316 Eh/a0  converged?    E=F G=F D=F
   time step     :     1.2500000 fs     power     :   0.4655545E-09
   step length   :     0.0366796 a0     speed     :   0.7097890E-03

........................................................................
.............................. CYCLE   67 ..............................
........................................................................

 iter      E             dE          RMSdq      gap      omega  full diag
   1  -5198.6344534 -0.519863E+04  0.770E-04    4.11       0.0  T
   2  -5198.6344534 -0.110267E-07  0.454E-04    4.11       3.5  T
   3  -5198.6344533  0.403033E-07  0.960E-05    4.11      16.8  T
     SCC iter.                  ...       10 min, 35.310 sec
     gradient                   ...        4 min, 30.704 sec
 * total energy  : -5104.0924528 Eh     change    :  -0.4586497E-04 Eh
   gradient norm :     0.0014621 Eh/a0  converged?    E=F G=F D=F
   time step     :     1.2500000 fs     power     :   0.4759685E-09
   step length   :     0.0381847 a0     speed     :   0.7389153E-03
 * RMSD in coord.:     0.0060283 a0     energy gain  -0.4811165E-03 Eh

........................................................................
.............................. CYCLE   68 ..............................
........................................................................

 iter      E             dE          RMSdq      gap      omega  full diag
   1  -5198.6345150 -0.519863E+04  0.152E-04    4.11       0.0  T
   2  -5198.6345150 -0.462933E-09  0.895E-05    4.11      18.0  T
   3  -5198.6345150  0.161617E-08  0.191E-05    4.11      84.4  T
     SCC iter.                  ...       10 min, 35.691 sec
     gradient                   ...        4 min, 29.483 sec
 * total energy  : -5104.0924620 Eh     change    :  -0.9267498E-05 Eh
   gradient norm :     0.0013754 Eh/a0  converged?    E=F G=F D=F
   time step     :     0.2500000 fs     power     :   0.4900859E-09
   step length   :     0.0075723 a0     speed     :   0.7326605E-03

........................................................................
.............................. CYCLE   69 ..............................
........................................................................

 iter      E             dE          RMSdq      gap      omega  full diag
   1  -5198.6345979 -0.519863E+04  0.161E-04    4.11       0.0  T
   2  -5198.6345979 -0.142063E-08  0.962E-05    4.11      16.7  T
   3  -5198.6345979  0.354703E-08  0.306E-05    4.11      52.5  T
     SCC iter.                  ...       10 min, 35.255 sec
     gradient                   ...        4 min, 30.382 sec
 * total energy  : -5104.0924713 Eh     change    :  -0.9298921E-05 Eh
   gradient norm :     0.0012743 Eh/a0  converged?    E=F G=F D=F
   time step     :     0.2500000 fs     power     :   0.4879982E-09
   step length   :     0.0075678 a0     speed     :   0.7322234E-03

........................................................................
.............................. CYCLE   70 ..............................
........................................................................

 iter      E             dE          RMSdq      gap      omega  full diag
   1  -5198.6346877 -0.519863E+04  0.165E-04    4.11       0.0  T
   2  -5198.6346877 -0.109139E-08  0.987E-05    4.11      16.3  T
   3  -5198.6346877  0.291948E-08  0.269E-05    4.11      59.7  T
     SCC iter.                  ...       10 min, 34.658 sec
     gradient                   ...        4 min, 29.241 sec
 * total energy  : -5104.0924805 Eh     change    :  -0.9210100E-05 Eh
   gradient norm :     0.0012893 Eh/a0  converged?    E=F G=F D=F
   time step     :     0.2500000 fs     power     :   0.4808121E-09
   step length   :     0.0076078 a0     speed     :   0.7360982E-03

........................................................................
.............................. CYCLE   71 ..............................
........................................................................

 iter      E             dE          RMSdq      gap      omega  full diag
   1  -5198.6347697 -0.519863E+04  0.161E-04    4.11       0.0  T
   2  -5198.6347698 -0.623004E-09  0.965E-05    4.11      16.7  T
[...]
  3613   6 C     3614   6 C                                       1.3838041
  3615   6 C     3616   6 C                                       1.5387991
  3617   6 C     3618   6 C                                       1.3885886
  3618   6 C     3619   6 C                                       1.3840873
  3619   6 C     3620   6 C                                       1.3832725
  3620   6 C     3621   6 C                                       1.3848126
  3617   6 C     3622   6 C                                       1.3902570
  3621   6 C     3622   6 C                                       1.3824504
  3623   6 C     3624   6 C                                       1.5379609
  3625   6 C     3626   6 C                                       1.3906955
  3626   6 C     3627   6 C                                       1.3830163
  3627   6 C     3628   6 C                                       1.3842627
  3628   6 C     3629   6 C                                       1.3835144
  3625   6 C     3630   6 C                                       1.3892367
  3629   6 C     3630   6 C                                       1.3840621
  3624   6 C     3631   6 C                                       1.5392100
  3633   6 C     3634   6 C                                       1.3898112
  3634   6 C     3635   6 C                                       1.3849158
  3635   6 C     3636   6 C                                       1.3842472
  3636   6 C     3637   6 C                                       1.3848740
  3633   6 C     3638   6 C                                       1.3914891
  3637   6 C     3638   6 C                                       1.3823052
  3632   6 C     3639   6 C                                       1.5357416
  3639   6 C     3640   6 C                                       1.5378603
  3641   6 C     3642   6 C                                       1.3890715
  3642   6 C     3643   6 C                                       1.3834823
  3643   6 C     3644   6 C                                       1.3837192
  3644   6 C     3645   6 C                                       1.3841365
  3641   6 C     3646   6 C                                       1.3900335
  3645   6 C     3646   6 C                                       1.3831771
  3640   6 C     3647   6 C                                       1.5311565
  3647   6 C     3648   6 C                                       1.5305379
  3649   6 C     3650   6 C                                       1.3904664
  3650   6 C     3651   6 C                                       1.3826636
  3651   6 C     3652   6 C                                       1.3847496
  3652   6 C     3653   6 C                                       1.3840854
  3649   6 C     3654   6 C                                       1.3885848
  3653   6 C     3654   6 C                                       1.3839361
  3648   6 C     3655   6 C                                       1.5381065
  3655   6 C     3656   6 C                                       1.5330573
  3657   6 C     3658   6 C                                       1.3916665
  3658   6 C     3659   6 C                                       1.3825084
  3659   6 C     3660   6 C                                       1.3852449
  3660   6 C     3661   6 C                                       1.3841002
  3657   6 C     3662   6 C                                       1.3893768
  3661   6 C     3662   6 C                                       1.3836789
  3663   6 C     3664   6 C                                       1.5363953
  3665   6 C     3666   6 C                                       1.3910987
  3666   6 C     3667   6 C                                       1.3806132
  3667   6 C     3668   6 C                                       1.3836999
  3668   6 C     3669   6 C                                       1.3820263
  3665   6 C     3670   6 C                                       1.3876476
  3669   6 C     3670   6 C                                       1.3842653
  3664   6 C     3671   6 C                                       1.5273618
  3671   6 C     3672   6 C                                       1.5348163
  3673   6 C     3674   6 C                                       1.3898981
  3674   6 C     3675   6 C                                       1.3835001
  3675   6 C     3676   6 C                                       1.3831800
  3676   6 C     3677   6 C                                       1.3842991
  3673   6 C     3678   6 C                                       1.3903057
  3677   6 C     3678   6 C                                       1.3828236
  3672   6 C     3679   6 C                                       1.5322371
  3679   6 C     3680   6 C                                       1.5347544
  3681   6 C     3682   6 C                                       1.3896581
  3682   6 C     3683   6 C                                       1.3834167
  3683   6 C     3684   6 C                                       1.3841821
  3684   6 C     3685   6 C                                       1.3837097
  3681   6 C     3686   6 C                                       1.3902211
  3685   6 C     3686   6 C                                       1.3832999
  3680   6 C     3687   6 C                                       1.5331196
  3687   6 C     3688   6 C                                       1.5355849
  3549   6 C     3689   1 H                                       1.0957323
  3551   6 C     3690   1 H                                       1.0917475
  3551   6 C     3691   1 H                                       1.0910908
  3552   6 C     3692   1 H                                       1.0953699
  3559   6 C     3693   1 H                                       1.0933767
  3559   6 C     3694   1 H                                       1.0917704
  3560   6 C     3695   1 H                                       1.0941251
  3567   6 C     3696   1 H                                       1.0912187
  3567   6 C     3697   1 H                                       1.0922011
  3568   6 C     3698   1 H                                       1.0960730
  3575   6 C     3699   1 H                                       1.0916400
  3576   6 C     3700   1 H                                       1.0957179
  3583   6 C     3701   1 H                                       1.0933419
  3583   6 C     3702   1 H                                       1.0913886
  3584   6 C     3703   1 H                                       1.0954392
  3591   6 C     3704   1 H                                       1.0930287
  3591   6 C     3705   1 H                                       1.0925495
  3592   6 C     3706   1 H                                       1.0929943
  3599   6 C     3707   1 H                                       1.0902464
  3599   6 C     3708   1 H                                       1.0918793
  3600   6 C     3709   1 H                                       1.0947776
  3608   6 C     3710   1 H                                       1.0935834
  3615   6 C     3711   1 H                                       1.0924586
  3615   6 C     3712   1 H                                       1.0922482
  3616   6 C     3713   1 H                                       1.0927261
  3623   6 C     3714   1 H                                       1.0921153
  3623   6 C     3715   1 H                                       1.0909488
  3624   6 C     3716   1 H                                       1.0960953
  3631   6 C     3717   1 H                                       1.0918452
  3631   6 C     3718   1 H                                       1.0917620
  3632   6 C     3719   1 H                                       1.0949981
  3639   6 C     3720   1 H                                       1.0916568
  3639   6 C     3721   1 H                                       1.0919984
  3640   6 C     3722   1 H                                       1.0956324
  3647   6 C     3723   1 H                                       1.0901954
  3647   6 C     3724   1 H                                       1.0885205
  3648   6 C     3725   1 H                                       1.0961372
  3655   6 C     3726   1 H                                       1.0908833
  3655   6 C     3727   1 H                                       1.0914189
  3656   6 C     3728   1 H                                       1.0956989
  3663   6 C     3729   1 H                                       1.0918006
  3663   6 C     3730   1 H                                       1.0913819
  3664   6 C     3731   1 H                                       1.0947092
  3671   6 C     3732   1 H                                       1.0912758
  3671   6 C     3733   1 H                                       1.0911608
  3672   6 C     3734   1 H                                       1.0951701
  3679   6 C     3735   1 H                                       1.0918908
  3679   6 C     3736   1 H                                       1.0938216
  3543   6 C     3737   1 H                                       1.0811717
  3548   6 C     3738   1 H                                       1.0807235
  3547   6 C     3739   1 H                                       1.0802065
  3546   6 C     3740   1 H                                       1.0806954
  3545   6 C     3741   1 H                                       1.0803091
  3554   6 C     3742   1 H                                       1.0809538
  3555   6 C     3743   1 H                                       1.0812189
  3556   6 C     3744   1 H                                       1.0804823
  3557   6 C     3745   1 H                                       1.0803572
  3558   6 C     3746   1 H                                       1.0810999
  3562   6 C     3747   1 H                                       1.0810524
  3563   6 C     3748   1 H                                       1.0805416
  3564   6 C     3749   1 H                                       1.0808174
  3565   6 C     3750   1 H                                       1.0798402
  3566   6 C     3751   1 H                                       1.0799399
  3570   6 C     3752   1 H                                       1.0808550
  3571   6 C     3753   1 H                                       1.0806290
  3572   6 C     3754   1 H                                       1.0801738
  3573   6 C     3755   1 H                                       1.0809063
  3574   6 C     3756   1 H                                       1.0809632
  3575   6 C     3757   1 H                                       1.0911249
  3578   6 C     3758   1 H                                       1.0795102
  3579   6 C     3759   1 H                                       1.0800819
  3580   6 C     3760   1 H                                       1.0803930
  3581   6 C     3761   1 H                                       1.0808996
  3582   6 C     3762   1 H                                       1.0810843
  3586   6 C     3763   1 H                                       1.0808447
  3587   6 C     3764   1 H                                       1.0812497
  3588   6 C     3765   1 H                                       1.0802341
  3589   6 C     3766   1 H                                       1.0795499
  3590   6 C     3767   1 H                                       1.0810621
  3594   6 C     3768   1 H                                       1.0810782
  3595   6 C     3769   1 H                                       1.0791980
  3596   6 C     3770   1 H                                       1.0811391
  3597   6 C     3771   1 H                                       1.0801940
  3598   6 C     3772   1 H                                       1.0806265
  3602   6 C     3773   1 H                                       1.0811185
  3603   6 C     3774   1 H                                       1.0803231
  3604   6 C     3775   1 H                                       1.0801971
  3605   6 C     3776   1 H                                       1.0807347
  3606   6 C     3777   1 H                                       1.0808930
  3607   6 C     3778   1 H                                       1.0916280
  3607   6 C     3779   1 H                                       1.0918644
  3610   6 C     3780   1 H                                       1.0796843
  3611   6 C     3781   1 H                                       1.0805552
  3612   6 C     3782   1 H                                       1.0801179
  3613   6 C     3783   1 H                                       1.0798326
  3614   6 C     3784   1 H                                       1.0813769
  3618   6 C     3785   1 H                                       1.0816240
  3619   6 C     3786   1 H                                       1.0804940
  3620   6 C     3787   1 H                                       1.0799975
  3621   6 C     3788   1 H                                       1.0804489
  3622   6 C     3789   1 H                                       1.0803010
  3626   6 C     3790   1 H                                       1.0787762
  3627   6 C     3791   1 H                                       1.0807355
  3628   6 C     3792   1 H                                       1.0798680
  3629   6 C     3793   1 H                                       1.0804413
  3630   6 C     3794   1 H                                       1.0814514
  3634   6 C     3795   1 H                                       1.0812026
  3635   6 C     3796   1 H                                       1.0806697
  3636   6 C     3797   1 H                                       1.0805961
  3637   6 C     3798   1 H                                       1.0801721
  3638   6 C     3799   1 H                                       1.0779899
  3642   6 C     3800   1 H                                       1.0808185
  3643   6 C     3801   1 H                                       1.0802999
  3644   6 C     3802   1 H                                       1.0805180
  3645   6 C     3803   1 H                                       1.0803965
  3646   6 C     3804   1 H                                       1.0806336
  3650   6 C     3805   1 H                                       1.0802068
  3651   6 C     3806   1 H                                       1.0808786
  3652   6 C     3807   1 H                                       1.0804309
  3653   6 C     3808   1 H                                       1.0808110
  3654   6 C     3809   1 H                                       1.0812373
  3658   6 C     3810   1 H                                       1.0788862
  3659   6 C     3811   1 H                                       1.0813455
  3660   6 C     3812   1 H                                       1.0818361
  3661   6 C     3813   1 H                                       1.0806948
  3662   6 C     3814   1 H                                       1.0804238
  3666   6 C     3815   1 H                                       1.0801456
  3667   6 C     3816   1 H                                       1.0813156
  3668   6 C     3817   1 H                                       1.0781866
  3669   6 C     3818   1 H                                       1.0800266
  3670   6 C     3819   1 H                                       1.0799407
  3674   6 C     3820   1 H                                       1.0804722
  3675   6 C     3821   1 H                                       1.0798799
  3676   6 C     3822   1 H                                       1.0793457
  3677   6 C     3823   1 H                                       1.0800786
  3678   6 C     3824   1 H                                       1.0817001
  3686   6 C     3825   1 H                                       1.0806002
  3685   6 C     3826   1 H                                       1.0804286
  3684   6 C     3827   1 H                                       1.0807819
  3683   6 C     3828   1 H                                       1.0804292
  3682   6 C     3829   1 H                                       1.0811277
  3550   6 C     3830   1 H                                       1.0878056
  3550   6 C     3831   1 H                                       1.0879323
  3550   6 C     3832   1 H                                       1.0879527
  3680   6 C     3833   1 H                                       1.0958459
  3687   6 C     3834   1 H                                       1.0929558
  3687   6 C     3835   1 H                                       1.0911594
  3688   6 C     3836   6 C                                       1.5372276
  3837   6 C     3838   6 C                                       1.3896282
  3838   6 C     3839   6 C                                       1.3834117
  3839   6 C     3840   6 C                                       1.3844278
  3840   6 C     3841   6 C                                       1.3835698
  3837   6 C     3842   6 C                                       1.3891778
  3841   6 C     3842   6 C                                       1.3831188
  3838   6 C     3843   1 H                                       1.0803666
  3839   6 C     3844   1 H                                       1.0807361
  3840   6 C     3845   1 H                                       1.0800064
  3841   6 C     3846   1 H                                       1.0800117
  3842   6 C     3847   1 H                                       1.0798883
  3836   6 C     3848   6 C                                       1.5340811
  3836   6 C     3849   1 H                                       1.0924547
  3836   6 C     3850   1 H                                       1.0921760
  3851   6 C     3852   6 C                                       1.3892955
  3852   6 C     3853   6 C                                       1.3839710
  3853   6 C     3854   6 C                                       1.3849117
  3854   6 C     3855   6 C                                       1.3846982
  3851   6 C     3856   6 C                                       1.3895685
  3855   6 C     3856   6 C                                       1.3833813
  3852   6 C     3857   1 H                                       1.0817842
  3853   6 C     3858   1 H                                       1.0806044
  3854   6 C     3859   1 H                                       1.0802691
  3855   6 C     3860   1 H                                       1.0814464
  3856   6 C     3861   1 H                                       1.0801240
  3688   6 C     3862   1 H                                       1.0958293
  3848   6 C     3863   1 H                                       1.0916120
  3848   6 C     3864   1 H                                       1.0918787

 * 2 distinct bonds (by element types)

   Z      Z             #   av. dist./Å        max./Å        min./Å
   1 H    6 C        1944     1.0851079     1.0987566     1.0775104
   6 C    6 C        1862     1.4196876     1.5407928     1.3806132


optimized geometry written to: xtbopt.xyz


           -------------------------------------------------
          | TOTAL ENERGY            -5104.097969660944 Eh   |
          | GRADIENT NORM               0.000808927941 Eh/α |
          | HOMO-LUMO GAP               4.112626647010 eV   |
           -------------------------------------------------

------------------------------------------------------------------------
 * finished run on 2024/10/08 at 11:35:20.559     
------------------------------------------------------------------------
 total:
 * wall-time:     3 d, 14 h, 32 min, 40.270 sec
 *  cpu-time:    23 d, 15 h, 35 min, 51.956 sec
 * ratio c/w:     6.558 speedup
 SCF:
 * wall-time:     0 d,  0 h, 47 min, 39.756 sec
 *  cpu-time:     0 d,  5 h, 46 min, 22.708 sec
 * ratio c/w:     7.267 speedup
 ANC optimizer:
 * wall-time:     3 d, 13 h, 43 min, 49.083 sec
 *  cpu-time:    23 d,  9 h, 47 min, 56.616 sec
 * ratio c/w:     6.553 speedup

