3536
 energy: -3716.256362876784 gnorm: 0.000962768358 xtb: 6.6.1 (8d0f1dd)
C           70.04564958171918       42.01400506484097       54.17934782596804
C           70.24679900714348       43.47896446531917       53.79940263542350
C           71.28663295900634       44.11638022088626       54.72061170966559
C           68.94276635966894       44.28156662609751       53.87767687275452
C           67.80028931004918       43.80241680300583       52.97367424125137
C           68.23244829919368       43.77104641142073       51.50787806400259
C           66.58012569179093       44.72522049772635       53.11696928473496
C           65.78944922562356       44.57526305448463       54.42209442136028
C           64.95622017913806       43.29309574097011       54.39564820906601
C           64.84475033407151       45.76375978372253       54.65948103311938
C           65.49618006273012       47.13144432953629       54.89778856054908
C           66.41769170645198       47.10261574679454       56.11563246663871
C           64.42347644051802       48.21145554616173       55.10919626972393
C           63.62264437955988       48.62017800001144       53.86805942959106
C           64.50923352353959       49.37743929372177       52.87928933707898
C           62.42668409906710       49.50171694422172       54.26405605709232
C           61.25182919687273       48.77774488051762       54.93445478401549
C           60.57860662710512       47.80828069464091       53.96511109379515
C           60.20486616106443       49.78520231561302       55.43795813758927
C           60.57069671119812       50.54714410387930       56.71613098462841
C           60.61973732489348       49.60469247634794       57.91923375264442
C           59.55320756965224       51.66053855303041       57.01375603702184
C           59.49345269290295       52.82739533232260       56.02121745377587
C           60.85389766281835       53.51236157946211       55.89383210268002
C           58.45231761873838       53.86690606440396       56.46519921766944
C           56.97811753464703       53.46919838668033       56.31735059121319
C           56.57008960315987       53.41883425212709       54.84890416852756
C           56.09117705082733       54.48524651294618       57.05033531690377
C           56.04954026077138       54.28624880571271       58.57263573065880
C           54.90837838816014       53.34219396372254       58.93978691409203
C           55.91252051415128       55.64181562297185       59.27254056514108
C           55.91769651419217       55.60514607742163       60.80473179706915
C           55.67826374453774       57.01700161267034       61.33637208582470
C           57.22879865229118       55.02523852815666       61.36822973516249
C           57.01875112420148       53.79416290362097       62.25386053288558
C           56.37604991313080       54.19391368393132       63.58143240603435
C           58.32682263820404       53.04545036886832       62.53342757490073
C           58.99358399727637       52.36015105004083       61.33413316297563
C           58.07053205822596       51.32295455497824       60.69602574168252
C           60.30347793054617       51.69780506641133       61.79043891846609
C           61.49630065235795       52.65890802940718       61.90632200618828
C           62.08411343899288       52.94898824702825       60.52772481885659
C           62.53829760725431       52.04152846832100       62.84943731726165
C           63.85567904260569       52.80981390090260       63.02480314752390
C           64.80288547406857       51.96374756221340       63.87595178928227
C           63.63021273134758       54.18265480204489       63.66692812862868
C           64.82791306989016       55.14377119972646       63.59704944012405
C           64.59674054607696       56.30943929818856       64.55813677239586
C           65.03055161066212       55.63649002031406       62.15856121852408
C           66.11589122386349       56.70107928238024       61.94413398621535
C           66.06390139143201       57.16832306448033       60.49110100887660
C           67.50131363066942       56.15385059580648       62.30677193068595
C           68.67759579063704       57.13121650584343       62.16284573336531
C           69.98389555660056       56.36229923028507       62.36545864428311
C           68.57318691391482       58.28621242177154       63.16609240242257
C           69.44680434051355       59.50524226242423       62.83684965253595
C           69.53988791955818       60.39989750639357       64.07390059307825
C           68.89026670553841       60.28452477966979       61.63035027519482
C           69.93481209436078       60.64313924532354       60.56481464619995
C           70.93909261463263       61.65919900871388       61.10309356126475
C           69.22703795091449       61.18044211390175       59.31422117969985
C           70.14722923202677       61.38572995241273       58.09609904355445
C           70.19078456370237       62.86275352692439       57.69980444527258
C           69.70154453417243       60.55649771174203       56.88410988163159
C           69.76452660547103       59.03509454112113       57.06256232316777
C           71.21046179236563       58.55564879745935       57.18975990197809
C           69.10644596491041       58.32266394147089       55.87106213129202
C           67.57910416939797       58.42999185530589       55.79072321695051
C           66.91647161731471       57.56292850082999       56.85894023404362
C           67.06700897412135       57.99914617726382       54.40850047033683
C           67.40256285522240       58.93719273926161       53.24465372662308
C           66.80736244568973       60.32781556412029       53.46492472026625
C           66.86946396275602       58.37933926214547       51.91744440847643
C           67.52613688821127       57.10738855944598       51.35966513591550
C           69.01201532580392       57.31913156647041       51.08935826016746
C           66.75277221099596       56.72967658603049       50.08519160048697
C           67.33365260836743       55.62790464369817       49.18863316692173
C           66.41451051305398       55.47087704154324       47.97746748762229
C           67.47994178916399       54.30098448632252       49.93830243219688
C           68.27336005956442       53.19916163600980       49.21749005023133
C           68.10375332191227       51.89373469805414       49.99418257493394
C           69.75227044951228       53.58831970349109       49.09625985594212
C           70.68860212490206       52.55156288346092       48.45618310588838
C           72.13728737222047       52.96855948051895       48.70918809048515
C           70.39776887575745       52.39134492438711       46.95838921864539
C           71.16956025439576       51.24987677377099       46.27269560398539
C           72.41992245722365       51.74825628892607       45.54785316813886
C           70.27092090888716       50.45802609116701       45.30984338504441
C           69.75168771156973       51.24521253160892       44.10931995143690
C           68.89670341961478       50.36647727412536       43.20435964524214
H           69.61105899639364       41.93545857318809       55.17342339222888
H           69.38731661004879       41.51121757911150       53.47575363425108
H           70.99920852199037       41.48910253086747       54.18143493403120
H           68.05925773312083       49.94461001692854       43.75555146805799
H           68.50135504256775       50.94392335700079       42.37161967859030
H           69.48508010966592       49.54321711842262       42.80346115726832
H           70.83110788600384       49.59263275295440       44.94454155156412
H           69.41302522045765       50.07832928987705       45.87072625018424
H           69.32995768537282       52.19890622094682       46.84681206594814
H           70.61616969484734       53.33252101143863       46.45081018788044
H           70.53447378370223       51.58505029026881       48.94595973430415
H           72.30016731048174       53.15778984852182       49.76873079979300
H           72.82760287182870       52.18633815078363       48.40566644672314
H           72.37725579481787       53.87596656330167       48.15854789522567
H           69.83504976194088       54.51323954328542       48.52087449826892
H           70.11887749785450       53.79895881300668       50.10396663218821
H           67.96137642622629       54.48102565915039       50.90116868921172
H           66.47424551413856       53.92284716202164       50.14187883708040
H           71.49065497659825       50.54049777697333       47.04594495735535
H           73.13221729174532       52.18188501540181       46.24349361577470
H           72.91026784349411       50.92546540125528       45.03013782964880
H           72.16253416007126       52.50869759885298       44.81454176630299
H           67.85262666805512       53.05734544664222       48.21775020667902
H           68.60347268126333       51.95762271700418       50.95906513475149
H           67.04888987288108       51.69276977970269       50.16980029903228
H           68.51675848715051       51.04940403091816       49.44940101960409
H           68.31377640750351       55.95462713829538       48.83104774829009
H           66.32650732462248       56.41345051785449       47.44253075672032
H           66.79534127149793       54.72631089749536       47.28523194986811
H           65.41919727779107       55.16326421594429       48.29405982307269
H           65.74425719587271       56.43379417615910       50.38211477623707
H           66.65599419122456       57.62753190299146       49.46948204790365
H           67.41892632217866       56.29967048756529       52.08987663572432
H           69.53486344073085       57.60073298977188       52.00052681880700
H           69.47141122672329       56.40786927431191       50.71672561831063
H           69.15458757306777       58.10483920599027       50.35176673967626
H           65.79901905360246       58.18713951565401       52.03465400888865
H           66.97536551582375       59.16085337914996       51.16038962249527
H           68.48783493918536       59.04882893567112       53.16675026892047
H           65.73337978622263       60.26166908380171       53.62474378100752
H           67.25510909321260       60.81690577570578       54.32476254747448
H           66.98352641316391       60.96000392628981       52.59744889940767
H           67.47272475082202       57.00832797597199       54.19094926559803
H           65.97869096531753       57.90354702902812       54.45937687511376
H           67.27665663028063       59.46394954760903       55.97053425039502
H           65.84364536339339       57.74321122361999       56.87972335423331
H           67.08765420590221       56.50807523538410       56.65545657709472
H           67.31094875102198       57.78903903347328       57.84488981499796
H           69.54937051075609       58.72718159354751       54.95873925203084
H           69.36740580973731       57.26219703778065       55.91146309211558
H           69.23802642784612       58.75835102922851       57.98009314738955
H           71.77402968203384       58.79830233771497       56.29013171367389
H           71.70778757065828       59.01726775866511       58.03880850414053
H           71.24236403417908       57.47755071376953       57.33386348085534
H           68.67855204992252       60.84883117325230       56.63840314326642
H           70.32860520336565       60.82630529755976       56.02928906014009
H           71.16500283843936       61.08410423415185       58.35970312662626
H           69.20405456042019       63.19998232909128       57.38657262283149
H           70.51496928758226       63.47645350725277       58.53740929997729
H           70.88187592779141       63.02271158444215       56.87397208668968
H           68.43038626524748       60.48502551744112       59.04880101269556
H           68.74934599322306       62.12676345019634       59.57211630762030
H           70.47345681184706       59.72752215643455       60.29077166124912
H           71.66396444035536       61.93435341639830       60.34063719780508
H           70.42410750405527       62.56303980709178       61.42439180984788
H           71.48694999952966       61.25338207548439       61.95004361510182
H           68.11027348767244       59.69011145163865       61.15117685700297
H           68.41785224083084       61.20559132317477       61.98040358818157
H           70.45567891148646       59.15551173670289       62.59528513608587
H           70.11152018684453       61.30061479488947       63.86562425104024
H           68.54406957454668       60.69337901865443       64.40044948727871
H           70.02294782890498       59.87251776253046       64.89468336899459
H           67.53932958655653       58.62900792093019       63.22599548394085
H           68.84690931692236       57.90834374745021       64.15503275439941
H           68.68477382199133       57.53438342186973       61.14687599846633
H           70.01843378278441       55.92265225778793       63.36107005670013
H           70.07156907112706       55.55844809231701       61.63728867309644
H           70.84648455641219       57.01461122930246       62.25185731122761
H           67.48620775216305       55.80388094117739       63.34153486623727
H           67.69865711123141       55.28689980289569       61.67001443158055
H           65.88453098334075       57.56039333238785       62.57801972803210
H           65.04780458602875       57.44592333884304       60.22036348575281
H           66.69984277779821       58.03602239561728       60.33637883870131
H           66.39183401380187       56.37573393222225       59.82327019910522
H           65.27087861002452       54.78078460489010       61.52417411744869
H           64.08081181721545       56.04912666102935       61.80641271167737
H           65.72438133792799       54.60920269999377       63.92517723629312
H           65.48797489426147       56.92345378084956       64.65609242903837
H           63.78022192893228       56.93840342737706       64.20793715738526
H           64.34508773571167       55.93641177667411       65.54919155674419
H           62.78097742721659       54.67115078052270       63.18695909715829
H           63.36540199908034       54.02360255150416       64.71623277915023
H           64.31363102704823       52.94210659012975       62.04199162823562
H           65.77213288286231       52.44240078164211       63.98817598492563
H           64.38463230817064       51.80510683846047       64.86861438549539
H           64.96450748777846       50.99142845278563       63.41524166892528
H           62.08122797462723       51.91564616488785       63.83494828166709
H           62.78034070127769       51.04262169802979       62.47324786666061
H           61.14168280823645       53.59981973053667       62.33829175025103
H           61.29935442572165       53.22943195677852       59.82847066629274
H           62.79652289811510       53.76777039101997       60.57177871072272
H           62.58803508625402       52.06756860276358       60.13549282110390
H           60.13021779237694       51.22493326971764       62.76001511781480
H           60.57298995772771       50.90242694783478       61.09128988017984
H           59.23409896956738       53.11189104638014       60.57533458450698
H           58.59763761139175       50.77028246828232       59.92246932333206
H           57.71958971071408       50.61227418229986       61.44113582038639
H           57.20778722905155       51.79611113344723       60.23580737320103
H           59.03744039664628       53.74408581271481       62.98317097398523
H           58.11694902010514       52.27414496784799       63.27995326088281
H           56.33289324560167       53.11184113113885       61.74606882166589
H           55.42112405380455       54.68582860529150       63.41476505809661
H           56.20049184760283       53.31714976688703       64.20247212376580
H           57.02404397730054       54.87773448112074       64.12778672640245
H           57.89138429840855       54.76462485848610       60.54362296942895
H           57.74583049457446       55.78665758552224       61.95438491696617
H           55.08071559594659       54.98239503372911       61.13419342339643
H           54.72531192858837       57.40666561801351       60.98222745731201
H           55.66459635859167       57.01983848952592       62.42205602071542
H           56.46561091625129       57.69056462574132       61.00050007541085
H           56.73570224200478       56.28479509234456       58.94852195652216
H           54.98273146129754       56.11047548807905       58.93735173149175
H           56.98897245997944       53.82131091894276       58.88642981133948
H           53.95051208422647       53.83706083618005       58.79657000185446
H           54.93776559300709       52.45332284253787       58.31247691132840
H           54.97261299755416       53.02114833432100       59.97517794799239
H           56.45651115107941       55.48549428146206       56.81146425845665
H           55.07185579412810       54.42266288052082       56.66359344986306
H           56.81886713394857       52.48034726382178       56.76032181376341
H           55.51279207850251       53.18553814058507       54.75644039996751
H           56.74594947964648       54.38369532024902       54.37966320004933
H           57.12884470680343       52.66325984956716       54.30628545422908
H           58.65357944372739       54.12319870107686       57.50841441669890
H           58.60168215461543       54.77731406148727       55.87829617507641
H           59.20846107772496       52.45047607981798       55.03478926324491
H           61.58505628415120       52.85181500106198       55.43530999192910
H           60.77272911549321       54.40173083062934       55.27109274595949
H           61.22137165891223       53.81544693169610       56.87329294695112
H           58.56378168846769       51.20170397705571       57.07926994380178
H           59.78600064601633       52.07338126617324       57.99941583789676
H           61.56287487985779       50.99254288673163       56.60149827567049
H           60.88369287072759       50.15497192486212       58.82038586703055
H           59.64939770464435       49.13596991696028       58.07548194254908
H           61.35828073964984       48.81984222439149       57.78119712565119
H           60.01630769533761       50.49972068317073       54.63402471526331
H           59.26859691133939       49.25193419739615       55.62603815366542
H           61.62190641423818       48.19633410167635       55.78341263953387
H           61.27255834397883       47.04299471392771       53.63053266601821
H           59.73910472369210       47.31191237723741       54.44701538993220
H           60.20691367099381       48.33404128977239       53.08854475134883
H           62.79287282545675       50.28365285988239       54.93349653963861
H           62.04763405734191       49.99314655507775       53.36408757270642
H           63.24922100594016       47.72580075975786       53.36312649781810
H           65.32022725169924       48.75130322679507       52.51647346032086
H           63.93040422750645       49.70323372860528       52.01854195381598
H           64.94452113974124       50.25624615288833       53.35090538258869
H           63.73782027278515       47.85751911944260       55.88230730236719
H           64.90997354904151       49.11150457811419       55.49498701093358
H           66.09856666862069       47.40338726348982       54.02594076830697
H           66.85388300114431       48.08424397456447       56.28943873600570
H           65.86532234079696       46.81771698401986       57.00878198663353
H           67.23216995104822       46.39728067896210       55.97534578878258
H           64.17861335863489       45.83696976079814       53.79690240769555
H           64.22343928045238       45.53178976847497       55.52950758925714
H           66.48793602093507       44.50539586157095       55.26016502287736
H           65.58641480813939       42.41726547940380       54.26420839222346
H           64.40404826565803       43.17225438114554       55.32551596631991
H           64.24120586026407       43.32520523568071       53.57623123446258
H           66.92632716659696       45.75471963204034       53.00922423821824
H           65.89708301221269       44.52448757463568       52.28910331395036
H           67.51115851553452       42.78946067069171       53.26858447989322
H           69.01124410801448       43.03147995981731       51.33971290341650
H           67.39035547463099       43.51514603342211       50.86744290132376
H           68.61072252536410       44.74498536230617       51.20528462902248
H           68.60268646678463       44.26367237785877       54.91547540369586
H           69.16932565859794       45.32087215701718       53.62350068414001
H           70.63522124133146       43.52366866558349       52.77655238831638
H           71.47238479852162       45.14863349558114       54.43223667923142
H           70.93724141256939       44.10935636580089       55.75105473485863
H           72.22874480600291       43.57363971052724       54.67332039209465
H           69.15888382474306       52.09293378966954       44.45646364660676
H           70.58806418030038       51.63513635528727       43.52750106050521
C           47.72293859593920       58.84415080363988       51.21605503924621
C           48.79026672072499       59.93529900827419       51.27130936397953
C           50.13891898148680       59.35869419652057       50.85370434438993
C           48.83401954045255       60.53305663372883       52.68158796886917
C           49.90213904402250       61.60744393602211       52.93427283725772
C           49.76413695179401       62.09850719385039       54.37297092601185
C           49.76195378848874       62.75902888683207       51.93568506108114
C           50.72442915992639       63.94340364371903       52.09530866253071
C           50.34504951125751       65.00329289426564       51.06031507024641
C           52.18633906789018       63.51703820528808       51.93287249048032
C           53.22204167094859       64.61236858061964       52.22332072011694
C           54.60461307310747       64.12053844714629       51.79057823174283
C           53.24355623803066       65.03360930187181       53.70533041969116
C           52.52315789679236       66.34809528818192       54.02972355562324
C           53.22162578501693       67.53355479497725       53.36218888916701
C           52.48851365466508       66.61054660922893       55.54334301069483
C           51.67019695926764       65.64589465783335       56.41330686869027
C           50.19639692657019       65.66734694539728       56.01467497214725
C           51.82720744314411       66.02836119547563       57.90029849754286
C           52.72784409909755       65.11605574837343       58.74754895367406
C           54.13943716428277       65.01689426748294       58.17003016836194
C           52.14749967557332       63.71081153989958       58.95127894850934
C           50.84215238174457       63.62638111991392       59.75365170193894
C           50.96308088333163       64.33126163235144       61.10530232658465
C           50.46020220327294       62.15913670363755       60.00463680613171
C           50.19023797607543       61.30621056794102       58.76140731025951
C           49.04778834297336       61.89993164516782       57.93800829773615
C           49.81497949122597       59.86418417703508       59.13732239845391
C           50.80815386860593       59.09414155375652       60.01395106807850
C           52.21861778420486       59.12589397984421       59.42667224423366
C           50.38268691114737       57.62544839281176       60.17042225875728
C           48.96771043689585       57.36903309456999       60.70157302093583
C           48.73557642095065       58.06501384852321       62.04320228818967
C           48.71679040968323       55.86524258082992       60.89477409428613
C           48.92057096745869       54.96192545019497       59.67391724595590
C           48.06326700850219       55.41778665234239       58.49427570130194
C           48.56133260978255       53.50303893984380       59.99948401609918
C           49.29330606123339       52.86176234915001       61.18448046708726
C           50.80935811805399       52.90396209058068       61.01227842939732
C           48.82775847023092       51.40839954494448       61.37381088970459
C           48.91981080084567       50.94037337792851       62.83288870225762
C           48.85744737886444       49.41548955431704       62.89854137289310
C           47.80140987045517       51.56821718479667       63.68994384539527
C           48.28400007136450       52.36069252328905       64.90965773618531
C           49.02865463454511       51.46043477506729       65.89423967569738
C           47.10816029964567       53.01075776908219       65.65558563792193
C           46.21377758454149       53.95964642292373       64.84854618052293
C           47.02302190664854       55.06714541020101       64.17769688560102
C           45.14785468065747       54.60779307821478       65.74329593244688
C           44.18333289826496       53.65540495075015       66.45736768033348
C           43.39210709563624       52.80388902077340       65.46776392388097
C           43.23615522020261       54.47219365200580       67.34866224354050
C           42.49356356630071       53.63247487001111       68.40474808741115
C           40.98257273648780       53.84497970783718       68.27562981640916
C           42.90974930670012       53.94899141064189       69.85007732484898
C           44.27795765000066       53.44964640577458       70.35265641457957
C           45.44591830507686       54.30832554172746       69.86243268646288
C           44.56522914562097       51.97842547710020       70.02887038906385
C           43.53908322692254       50.95776161831500       70.53332112936555
C           43.59065424988450       50.84193852632758       72.05694406176082
C           43.80125706757772       49.57762041436185       69.90755571107553
C           43.42637028832686       49.44411628416885       68.42642654293066
C           41.91039721778065       49.51336405893691       68.23214540959839
C           43.92489562836757       48.11633387135349       67.83544078566248
C           45.43950244221119       47.87088625323146       67.84832738990801
C           46.21791815098566       49.06173975031135       67.29095901938619
C           45.79122104124533       46.63118265740606       67.01109895928602
C           45.16991326391553       45.30390823330109       67.45759066196014
C           45.63423390795465       44.92386057097289       68.86351692127765
C           45.54533154509660       44.17686674262988       66.48314331669589
C           44.89662313031211       44.22982012490577       65.09300175325360
C           43.37637107633471       44.09176458465071       65.17720445514252
C           45.48389172753212       43.11881016432715       64.19625667658968
C           46.25076467277099       43.62080203622911       62.96382415122622
C           46.59850700919382       42.42789427326939       62.07395614853429
C           47.50254696343533       44.39666381210529       63.39447895561610
C           48.48369735205640       44.80317992929781       62.28515868524710
C           49.68284095839024       45.49575423139607       62.93113762328336
C           47.83909245923122       45.72303008948219       61.24401763058164
C           48.63199867191447       45.86022597032688       59.93288895556726
C           48.21015846371793       47.14777642107173       59.22886465238623
C           48.43006743823747       44.60783169360912       59.06758577421147
C           49.21451579205555       44.56467292183945       57.74355059557033
C           48.36089038394410       45.07882104802572       56.58606458807244
C           49.66428369471475       43.12254451650638       57.46436221152983
C           50.44898283065736       42.90493417079112       56.16459253668047
C           50.71526186101016       41.41211012835703       55.97166472522994
C           51.74575474813755       43.72186752858019       56.08606944906361
C           52.77550348793776       43.41985093727323       57.17198968422728
C           54.02238068839114       44.27799753793427       57.00569459109906
H           46.75698910328617       59.23528038703056       51.53091060916698
H           47.62234549871668       58.45077281523431       50.20635375528999
H           47.99076431697250       58.02141471149408       51.87624732495318
H           54.48203305135277       44.10479143448981       56.03391351700390
H           53.76623611446624       45.33256933408793       57.08152555714783
H           54.75568006044521       44.04726316022867       57.77611071246135
H           52.20263279859810       43.53839186028385       55.10905186112520
H           51.49825713014978       44.78473342142137       56.12572201119065
H           50.26977304694300       42.77093592911572       58.30311825454393
H           48.77041485049555       42.49172135058642       57.42654453073184
H           50.10261739865017       45.19659416431192       57.84655967669888
H           48.96306686833267       45.22216771175985       55.69241358987860
H           47.57351895551176       44.36178855174547       56.36016221523394
H           47.89222308056087       46.02548337368979       56.83173175168879
H           48.72826698675922       43.74655416787562       59.67011989568032
H           47.36743787221398       44.49073306957929       58.85015080069161
H           46.84140553297313       45.35725322979393       60.99673426021532
H           47.72091125228711       46.71009864910751       61.69629865437688
H           49.82066675839243       43.22666446603046       55.32667615891118
H           49.77432110384913       40.86992192984701       55.89795258530344
H           51.27771165381634       41.23950032997156       55.05696642602403