3795
 energy: -5103.638544881033 gnorm: 0.000868707703 xtb: 6.6.1 (8d0f1dd)
C           95.23314334208800      116.00528638018142      106.66895432299629
C           95.91329930998353      114.70611263446557      106.30312624682600
C           96.19997150365408      117.19089214280659      106.58698342726674
C           97.32193005337334      117.08684514596519      107.61790281169078
H           96.63222227251025      117.22687720640671      105.58612415192225
H           95.63778750984994      118.11079064856851      106.75405239406841
C           98.21430997445785      118.33130353254880      107.58517992978318
H           96.88963391102878      116.97552141435190      108.61463267436446
H           97.92771983084776      116.20350685414245      107.40477600371290
C           99.37214054592373      118.20473810931720      108.55526719668306
H           98.60142633724197      118.45772456861546      106.57422964234409
H           97.63199154681627      119.21166364827324      107.85966836763407
N          100.35758872527268      117.40234496521130      108.15274544584058
O           96.35028496583080      114.68772818763379      105.05918884055998
O           96.03095210608433      113.77225753712138      107.06847409523027
H           96.80161876869361      113.82478558346368      104.83667727799272
H           94.82716628110927      115.90960182069405      107.67608634321962
H           94.41718887955425      116.15984488933218      105.96211418665631
C          101.53274971108321      117.15047572753710      108.96381904713732
H          100.27478770383924      116.91444346442471      107.26180678602852
C          102.55566443839238      116.29391382562534      108.22667724203865
H          101.97395435688081      118.11295587251827      109.24722872091552
H          101.22767708380846      116.64966101758681      109.89161549998776
C          103.78338580469118      116.03830512953138      109.10235174479034
H          102.08857520751869      115.34323888804239      107.96436125791061
H          102.85041828008879      116.79157362800366      107.30167767371420
C          104.67439823500439      114.89184826826526      108.61795289200784
H          104.37575177368281      116.95199442088521      109.17674478996618
H          103.43820868925923      115.79655573590196      110.11056444458579
C          105.42048695318410      115.19306744953295      107.31680328160003
H          105.40724311421728      114.68061548998773      109.39937880382929
H          104.06446116596302      113.99615032833279      108.49008597448302
C          106.65480249677076      114.31754315507499      107.11094145178708
H          104.74728658913995      115.06587591377631      106.46783993877980
H          105.76031156943431      116.23068614793692      107.32448224663220
N          106.35192238596099      112.90712970526091      107.24225535818313
H          107.07726110085522      114.51121654518283      106.11859544635459
H          107.42228490341482      114.56234293798575      107.85219120018677
C          107.28053106875234      111.97139796030608      107.43456156055258
H          105.40769686271902      112.61284983415193      107.00585719490722
O           99.39268923785649      118.79605901888550      109.63670953840366
C          106.70626572446724      110.57727193143124      107.63183033786956
C          106.16207801677622      110.45713944421983      109.05969630052705
H          105.89608563130832      110.42136360793828      106.92120280882561
H          107.48341520205828      109.83106267420914      107.46349650899306
C          105.37791358172638      109.16744368925163      109.28675697962733
H          106.99088838042262      110.51122231995841      109.76778878682387
H          105.50219469468900      111.30641558076397      109.25326527388694
C          104.61345371259995      109.18865792974644      110.61210085282320
H          104.64746456510012      109.05122713172619      108.48310715384467
H          106.04842299535491      108.30687050022058      109.26586110346381
C          105.49996797838736      109.29900449025173      111.83779941094629
H          103.90168536166128      110.01597085904642      110.62079132100541
H          104.04993196770504      108.25878385561131      110.70773979885004
N          106.27302410786282      108.23190123782906      112.05115065577763
C          107.10124800368108      108.05362259698182      113.22028048250154
H          106.26817127889289      107.46312523745746      111.38384111146924
O          108.48702678953455      112.20556664037292      107.51614101021089
C          108.59352866778275      108.25866707905250      112.94532823669969
H          106.76240985376424      108.76225242296861      113.97792917854149
H          106.94013548673875      107.03679872459665      113.59070928670901
C          109.42789216475724      107.70420236291370      114.09594011217173
H          108.86091138216071      107.75026851585990      112.01767209350477
H          108.80157104103023      109.32182878033994      112.81181611653804
C          110.92489994383790      107.93924234466211      113.91842010412022
H          109.10246115581370      108.17216450224360      115.02605092235626
H          109.24431064747354      106.63045754966979      114.18654134345556
C          111.69900263952641      107.37606222668576      115.10912328801054
H          111.26228883145737      107.45239525471555      113.00083918351669
H          111.11743024242716      109.00894932296211      113.82751741719355
C          113.20593290136840      107.46097283780696      114.94128229704673
N          113.69452451695304      108.82589404498917      114.96043883275968
H          113.70497649099420      106.90407501745840      115.74372529139991
H          113.50259531342145      106.98900755083284      113.99654500722954
C          115.00117228492313      109.06907884314047      114.83027262804117
H          113.02130132901760      109.58520300738405      114.97770489801682
O          105.47018285634090      110.26995023123732      112.59432512042393
C          115.41448682042611      110.52220935129702      114.86176847007231
C          115.54494707540336      111.03141017299488      116.29952639992308
H          116.39079336607307      110.60774401716928      114.38654616744826
H          114.69796938633961      111.13061650543187      114.31098296661014
C          116.29572161530091      112.36085730257231      116.31852367625901
H          114.55328717054165      111.15112851476670      116.73706445248126
H          116.08891791291444      110.29004196346743      116.88728919373862
C          116.45268116249274      112.95038473470046      117.71723323028529
H          117.26964921579140      112.22359116303484      115.84330607718422
H          115.74767416518203      113.07656003519598      115.70300635463146
C          117.24594460718760      112.14966532752243      118.73039268262340
H          116.97566257384085      113.90837927942098      117.63439867043034
H          115.48085263477098      113.16858101742586      118.16326214396035
N          118.20767205933073      111.35107698561916      118.25249131945661
C          119.20470365574268      110.76350094998958      119.11786870497944
H          118.31135327907104      111.21038260452974      117.26033366159906
H          111.41174322667578      107.90970888954065      116.01673029494495
H          111.43859277059570      106.32357811409544      115.24035906655908
O          115.81948600259223      108.15466426543014      114.72033519015898
O          117.05762918678781      112.28449307927245      119.93737154379680
C          120.57890601285224      110.65950029831652      118.44895834905641
H          119.25269264271324      111.39537343696097      120.00986848752216
H          118.88236709562115      109.76349912774370      119.43455048742419
C          120.93109266286858      111.80334196841437      117.49771423017569
H          121.32876599528223      110.60895406214934      119.23776391518608
H          120.63597148360097      109.72506600832162      117.89117661527116
C          120.99814428745482      113.16225769212105      118.18870289464660
H          121.90798690774845      111.57984650349700      117.06445486199300
H          120.22459355557370      111.83796123248091      116.66697407576804
C          121.55944305661839      114.23314819202071      117.25586624489191
H          120.00569913681669      113.45899698370347      118.52949159034623
H          121.64074481170208      113.08478423913837      119.06805458597645
C          121.74637551367194      115.55831612623832      117.98466204586805
H          122.52981999297938      113.90747056673851      116.87483731743154
H          120.89138614263403      114.36932088542326      116.40416251513970
N          122.45639147460517      116.52831251388433      117.17834603746232
H          120.78087579958070      115.99249311752702      118.25709027648641
H          122.31347380226346      115.37710261191063      118.90580321520578
C          122.14598321550444      117.82205997397584      117.13990036857123
H          123.24159220629298      116.19333504002157      116.62335220058840
C          123.09945321760232      118.68852645281402      116.34147944786655
C          123.85660171452231      119.60580628238836      117.31195893646078
H          123.79531710848346      118.05441603623542      115.79386323565646
H          122.52381532788282      119.28198823478733      115.62904969187899
C          125.02206088756405      120.35736589127917      116.67133819943150
H          123.15800957435408      120.32503688857598      117.74245315740332
H          124.25236654739955      118.99643732631154      118.12997245374423
C          124.59770098008248      121.28882703382928      115.53349378578206
H          125.51321143716248      120.95275216148768      117.44625970050019
H          125.75479494580595      119.64374781980074      116.28855973685394
C          125.78187110878413      122.11184620363171      115.05861017267557
H          124.23857542252016      120.69149846764614      114.69430923548391
H          123.80062877705714      121.95211193268102      115.86333094391455
N          125.56767975917410      123.42999205320613      114.99606289336802
C          126.64512915364604      124.36154222006354      114.71701135908935
H          124.71715539065569      123.79964557477233      115.41231430084598
O          121.17767453706772      118.28851485336806      117.74591874261075
C          126.22498075441624      125.81161137596507      114.93528894862617
H          127.49374359355072      124.11487873306521      115.36776435978484
H          126.98121075488019      124.21185088873578      113.68449326510903
C          125.41653284982685      126.39117254325366      113.77293770459016
H          125.65250209175734      125.88089560518716      115.86164305663630
H          127.13058824954874      126.40820708687195      115.06030250516513
C          125.14681045343042      127.88310908020694      113.97244091642361
H          126.00373812185771      126.25850633961061      112.86159157631882
H          124.47806873935924      125.84645458703170      113.66456907119363
C          124.59929417570930      128.61062055612379      112.74039956921752
H          124.45743574494831      128.02211105933085      114.80618483643049
H          126.09032217823982      128.36095902094013      114.24669579024355
C          123.11537515316289      128.38951910928981      112.44561268951303
H          124.72831970298617      129.68188223233440      112.90331150977937
H          125.18369640026734      128.34335039352746      111.85883152934254
N          122.82322090372936      127.09583761617597      111.86545559898519
H          122.52726368275444      128.47627090964346      113.36237121408827
H          122.78232118382320      129.17133311816622      111.75161054353927
O          126.85836253274762      121.60424923050317      114.74274210471383
C          121.76240756684192      126.35841839099511      112.21574375027684
H          123.39208301301130      126.80673623790820      111.07678136823023
C          121.62892506395499      125.05075744282989      111.46144517565558
C          122.40345244179942      123.94181045835772      112.18317720327391
H          120.57202762470935      124.78321222744061      111.41281797496778
H          122.01182432743205      125.16651249902955      110.44722758447544
C          122.30325329057030      122.62166306958686      111.42432713671006
H          123.45381993593836      124.22680379347379      112.26337436961005
H          122.01319672637545      123.82048357030756      113.19557920291952
C          123.09066245294315      121.50311742059398      112.11251604563820
H          121.25752411888112      122.32254751355707      111.33369053082355
H          122.69884637253065      122.75488088471769      110.41652658912589
C          123.12807208987093      120.29183635266952      111.20290048377349
H          124.11479042921773      121.83467944880475      112.29122363788193
H          122.61911956653553      121.24564473896764      113.05965549704574
N          122.15901114437553      119.40756585092250      111.41543481556555
O          120.97643058772880      126.69376630837941      113.09684048538298
C          121.94346419353937      118.21804326301033      110.61508635365819
H          121.52421666827881      119.55640978241590      112.20112572289902
C          121.07357696824570      117.21335735476158      111.36032677496901
H          121.44295618549748      118.49905446376799      109.67921141788563
H          122.91453121386319      117.77966235992437      110.36393223450531
C          121.71094338155454      116.70850753813778      112.65316118941587
H          120.11754827162405      117.68488053075689      111.59432938537908
H          120.87778822550669      116.37845028345251      110.68776605729890
C          120.78284243231307      115.77984423914013      113.43732725471426
H          122.64255294154439      116.18695833612679      112.42752865646783
H          121.95117249108746      117.56352730651298      113.28624211707542
C          120.56701392657557      114.43997178107485      112.73945418394402
H          121.22129707806516      115.60521399061643      114.42119294221085
H          119.82076724034813      116.27587241550300      113.58113755453549
C          119.58132131372085      113.53756879497357      113.47383504392438
H          120.17801592946454      114.60228872391643      111.73387548082792
H          121.52324172460651      113.92123585375552      112.65364094457446
N          119.38068927341875      112.32776835944836      112.70715650431985
H          119.96117915612972      113.24569912391078      114.45668485398002
H          118.62349184350145      114.05278788444924      113.62018231829200
C          119.08493206843548      111.14595704186138      113.25931406726087
H          119.32071761191591      112.44405556867420      111.69893683032262
O          123.97591284635409      120.17181955474440      110.31317065538616
C          118.97970646303955      110.00873745226178      112.25545416861276
C          117.52837155972898      109.63683956708537      111.94016591925413
H          119.49244567944753      110.30200949225434      111.34042488720128
H          119.47883445125773      109.14147588083159      112.68795527999829
C          116.71664464765529      110.83837249553630      111.46940259502095
H          117.51976923470211      108.87506825545123      111.15742386325634
H          117.06638576948738      109.20238999935658      112.82706712633603
C          115.25969301924100      110.46734612181453      111.17107560184284
H          116.70126014834196      111.60103864078742      112.24965048414013
H          117.19568907488689      111.27560376532027      110.59422402937210
C          114.99470311243290      109.78327317782355      109.84749789565318
H          114.89853078467046      109.79981805417788      111.95645684784178
H          114.65132909870253      111.37457420634233      111.20245527589935
N          115.15189977452920      110.48663223277474      108.72082611477279
C          115.64792508999616      111.83405622471975      108.56047711374082
H          114.73645443273530      110.06963928272725      107.89069810028572
O          118.96058393182889      110.98800692833427      114.46989898586445
C          114.98568993457813      112.55252800728880      107.38565053158750
H          115.48194563237176      112.40199237626368      109.47708487636396
H          116.73058439736124      111.79280749003013      108.37952355971153
C          115.83869120432520      113.74698231809322      106.96275823738397
H          114.87689786408204      111.85566090259276      106.55439137713518
H          113.98590352078553      112.88373007968327      107.67116164759956
C          115.16778241870458      114.66153208861436      105.94100227762364
H          116.07580352751738      114.33438307403573      107.85101427291627
H          116.77778072462392      113.37578172850512      106.54761874018617
C          114.86513567869143      113.95321776979650      104.62267223751709
H          114.25023519216977      115.07284773649575      106.36480944853453
H          115.83786254694371      115.50090156808054      105.74178046885486
C          114.53323980818666      114.94080395078653      103.50487843847124
H          115.74152961166600      113.37811425882320      104.31822600273868
H          114.03949967914934      113.25303379285067      104.75083672529612
N          114.71078790467423      114.32474958164147      102.20975480870754
H          113.49962912300670      115.28883156054015      103.56988918627789
H          115.18651625290516      115.81808564382320      103.58588440579327
C          113.84761755688309      114.45975519511882      101.19846942155536
H          115.58715406519946      113.82370646268171      102.04930358101390
O          114.60273094208223      108.61459540966021      109.79166238019033
C          114.27611280990956      113.74397825856411       99.93015714218112
C          115.09417072421468      114.67684041153430       99.02915055758982
H          114.88786076408229      112.88185110267429      100.19242225179570
H          113.38639616143846      113.40394917030213       99.40231793992456
C          114.31704919909259      115.89970424522956       98.54011148926078
H          115.97187018547936      115.01324470663731       99.58611092928874
H          115.44239536263346      114.10646673805752       98.16552678198694
C          113.21660321209022      115.52595361650604       97.54269100874808
H          113.87034469305789      116.41251814662050       99.39426574441725
H          115.01202893314026      116.58775556922656       98.05581734588945
C          112.47616626760805      116.75056234921080       97.04542976616450
H          113.66146084899340      115.01373618071180       96.68805551387804
H          112.48729851766778      114.86946695521924       98.01730902753712
N          113.19051414071070      117.55048492364821       96.25008673718474
O          112.80767075693328      115.10803549257707      101.28109173171391
C          112.67969497655004      118.78884952658601       95.70993134184599
H          114.17211229932441      117.34800149420175       96.09106673604599
C          113.11755068625405      120.00860289010106       96.52463054024923
H          113.03020865187275      118.88573658258134       94.67926796591134
H          111.58831404256097      118.72116980770839       95.70825007096255
C          112.61070491610789      121.29474172301536       95.87854616073004
H          112.72711122555287      119.91191221502228       97.53867172851712
H          114.20732167393237      120.03126382624211       96.58869809469506
C          113.00176024610560      122.55970895451064       96.64062894284307
H          113.01862021951531      121.35719611329164       94.86740089669141
H          111.52260725062121      121.24885797726606       95.79332648115745
C          112.24483157367776      122.73133906834408       97.95745699319761
H          114.07595348189535      122.56000723755128       96.83769359669512
H          112.78621760534905      123.42126108141598       96.00487226414128
C          112.55435790248487      124.09593524138899       98.56017047252834
H          111.17038133503331      122.64915837190421       97.78070994087689
H          112.53204369250739      121.95283133928231       98.66368831299312
N          111.83779571664596      124.29792966282633       99.80220637859081
H          113.63543797212931      124.17531328297392       98.72195662331403
H          112.26558089944521      124.87028094790794       97.83975071527881
C          111.81907967214023      125.40151898561160      100.55728946702615
H          111.29015933094553      123.51381971416384      100.15211423624794
O          111.29936087518792      116.96914221356992       97.33188423131435
C          112.68888516591727      126.56438964049400      100.11500826114093
C          114.07105487311236      126.47765027002477      100.78049021072565
H          112.79562478486338      126.57057122113439       99.03297792969722
H          112.19995100410728      127.48875230263313      100.42711345951840
C          113.97671495936990      126.82214993333700      102.26618717565729
H          114.47344587445806      125.47006128501778      100.65824574912887
H          114.74921240217742      127.17247499957402      100.28212310041337
C          115.30669726796891      126.63963562261490      102.98987052205499
H          113.65072094234290      127.86152490997391      102.35224255362952
H          113.21196545222101      126.17841230647215      102.70583969153499
C          115.33496201430675      127.09176236854258      104.44094373994461
H          115.59378843397243      125.58450662564587      102.97767754134709
H          116.09557882489982      127.18760608605429      102.46903076131319
N          114.15828925722529      127.36665755066946      105.00425057932441
C          114.01313871860661      127.81529204597193      106.37569310887478
H          113.30956346986108      127.26813001032164      104.47280977559366
O          111.14610789642100      125.45423936151518      101.58694980823971
C          112.57344000208808      128.21430246692771      106.66596340964378
H          114.32815654498189      127.01446533189375      107.05278166052186
H          114.68362244635374      128.66487618344507      106.53730791831302
C          111.61713702250337      127.02233231815829      106.67057439023225
H          112.54575167915240      128.68169398067451      107.64981243651748
H          112.24502745795466      128.95114522757848      105.93089385735898
C          110.19411728293376      127.44457879689088      107.02919781400387
H          111.60457468093318      126.52676020488880      105.69690677653426
H          111.95974314335534      126.29430128954166      107.40762718466014
C          109.27518410450904      126.23080630527929      107.13459706636662
H          110.21329905866664      127.98125806271536      107.97877880570451
H          109.81256025391534      128.12543833118843      106.26600419409012
C          107.82185654355894      126.60146182442858      107.41635778980159
H          109.31457261351267      125.66928174615768      106.19839456343391
H          109.63200313840657      125.56902110895814      107.92551204355587
N          106.98980353783216      125.42740890920251      107.24305957206263
H          107.72776993987242      126.99329255281664      108.43480664295517
H          107.50263959164059      127.38318921466968      106.71656963000878
C          105.66522700656647      125.30998820779969      107.36365895630792
H          107.48218550192519      124.58151789031206      106.95723436898031
O          116.39377401992546      127.17820352983267      105.06159824640348
C          104.87910949060611      126.48661511666340      107.91315886840847
C          104.62391019115152      126.24682564821310      109.40591089954050
H          105.40227130238476      127.42740278348286      107.76032427762823
H          103.92008978154824      126.51921284270877      107.39378413350903
C          103.65582837272630      127.26214555150473      110.00888933261170
H          104.20829366314514      125.24396889873468      109.52486422171852
H          105.57122571275431      126.27735307121532      109.94921323843076
C          103.36278055066924      126.93737932517300      111.47793085592470
H          104.07771418125357      128.26618011417568      109.94344202141406
H          102.71924597438326      127.25299301300284      109.44871043643772
C          102.52710996145083      128.03056196427369      112.11904877796971
H          102.85335744553129      125.97900587912804      111.55806413012382
H          104.30710642347076      126.86526267676231      112.02248063932466
N          101.31273503023341      127.65378159083467      112.52202627407090
O          105.10109869256644      124.25754247746210      107.06475984753622
C          100.35209008381950      128.54709245590985      113.13391323497200
H          101.10818801106031      126.66472739370346      112.61393293319105
C           99.89932352382552      128.04071501476534      114.50201130945403
H          100.81598534751741      129.53364574798127      113.20664098477646
H           99.48231699973067      128.62044372568039      112.47126900332862
C           98.66812565730231      128.79548957093627      114.99584042422434
H           99.66851291665606      126.97636095193079      114.41862558325248
H          100.71387656999595      128.14367130082948      115.22077586110174
C           98.08146897275955      128.18717825977936      116.26769451805005
H           98.92839262802826      129.84115926270798      115.17463581090297
H           97.90479485053366      128.77489630111859      114.21405002448493
C           96.78733921456441      128.89057851526195      116.67262163461776
H           97.87210565643029      127.12865313350208      116.09338948498687
H           98.81065324483752      128.24621929632917      117.07858979359651
C           96.14579998481589      128.28685043247270      117.93109470735934
H           96.98892790430189      129.95096689055330      116.84953423300027
H           96.07140320321741      128.82199517661692      115.85031970457331
N           96.86746663929331      128.50719798861599      119.17226620418695
H           95.14464026481025      128.71295362445608      118.05673421395552
H           96.03831539141012      127.20622042502939      117.79968067583386
H           97.79445959683085      128.09651137329047      119.11036960202567
H           97.00098643356696      129.50371612585300      119.31169409541968
O          102.93688236164039      129.18855899861126      112.21813645773821
C           99.53531957425064      118.20402625081471      125.27323488732976
C          100.96497414409339      117.91432000506245      125.66389048332996
C           99.05447061826841      117.18525060205852      124.23716079847503
C           98.92973992419633      115.78737487206085      124.84266296650003
H           98.09294237216221      117.50809784209711      123.83529780698770
H           99.77006989470873      117.16682646564496      123.41383410509661
C           98.82646168146378      114.71309409199272      123.75279660824229
H           99.80957661953701      115.57197109201533      125.45627283365016
H           98.05959753588418      115.74585354035806      125.49886480981962
C          100.22082485798273      114.46155426486628      123.21804784371491
H           98.44878700969109      113.78088783876825      124.17537356413945
H           98.16540105140223      115.04453211068123      122.95402913431965
N          100.49471066828062      115.01033587134805      122.03523060938015
O          101.80363611991731      117.98210087823324      124.66229435429950
O          101.29940989389731      117.63049671528357      126.79992841851868
H          102.77337129816743      117.81981236767098      124.93901686950069
H           99.50287894294969      119.20319165915721      124.84040131011184
H           98.90998200186884      118.17800320236606      126.16554866132959
C          101.80840997502939      114.93987890800229      121.44317616513662
H           99.78433588457892      115.53903982722927      121.54136992153013
C          102.48314724311633      116.30808045191735      121.35700871272196
H          102.40402183891021      114.28137029412903      122.07913816565070
H          101.72862399825762      114.49713744814169      120.44653144978409
C          103.94671534439657      116.15514865720151      120.95593781960105
H          101.95652006654700      116.92806037373610      120.62870017215970
H          102.41803510141742      116.80589416808374      122.32695823108546
C          104.65274951899096      117.49962151383325      120.81341979994748
H          104.46476627016294      115.56062305769211      121.71113188340880
H          104.00570319231026      115.61376873220051      120.00883730405322
C          106.11286469601858      117.30707404271834      120.41170140434384
H          104.13982946427419      118.10309931833190      120.06066812203944
H          104.59719503674214      118.03815319716948      121.76192918825558
C          106.81020450232359      118.63673476803308      120.16047908010754
H          106.63050294668038      116.76446244022054      121.20435054231778
H          106.15365277031252      116.70527431648986      119.50039200454214
N          108.18024361330309      118.43222579198643      119.74154329124444
H          106.26102881157098      119.19570252303562      119.39370954588833
H          106.82676535328132      119.24443410083130      121.06828832809583