3795
 energy: -5103.664093482128 gnorm: 0.000921660883 xtb: 6.6.1 (8d0f1dd)
C          121.94573640562403      110.38948666533912      126.89904508596982
C          121.44033400545820      109.83342296009833      125.58843933831544
C          122.19378431574552      109.29482034986216      127.94038925503632
C          120.92282374213238      108.66984921004916      128.51051669207808
H          122.80815979996589      108.51354939450721      127.49349522547082
H          122.76424635651213      109.72771195908888      128.76261788531502
C          120.16011037264209      107.78929380977578      127.51996187142272
H          121.21633502968422      108.04770730010294      129.35873479244836
H          120.25314409769271      109.45306231120786      128.87140453757874
C          119.00810802616343      107.10661137467018      128.23975359842842
H          119.74660081102819      108.39909300385013      126.71591819423514
H          120.82870622593421      107.04284655360887      127.09408971985860
N          119.29174949318498      105.88601947656434      128.70544445199033
O          122.10808858857801      108.78625482845102      125.16500371575918
O          120.51731581876727      110.32901694118881      124.96699727164741
H          121.61108688454608      108.32170188449832      124.41832368193167
H          121.23282250774567      111.13275377164435      127.26104328086826
H          122.88991574787546      110.89993477193431      126.69078164382175
C          118.32200782049242      105.05301002496026      129.38683038837380
H          120.20663053277407      105.47205932197598      128.54525345368995
C          118.66200401272459      103.58105071995932      129.18643562636476
H          118.32231326100438      105.28790167171400      130.45895631038925
H          117.33661982853035      105.30005293583343      128.98180627297853
C          117.61708607012945      102.63657090640707      129.78347901928385
H          118.77405571184399      103.39417951827609      128.11980172756236
H          119.63154643968628      103.39138266353510      129.65117397355058
C          116.30763412157108      102.56774892064317      128.99410163081120
H          118.04450708461260      101.63373686951589      129.83597349578469
H          117.40019174494337      102.95518230715177      130.80460243463088
C          116.47322884272378      101.89239420456509      127.63596847161571
H          115.57900261486100      102.00411041755456      129.57923093604595
H          115.90573475056952      103.56915499811750      128.84348026601111
C          115.17749214390321      101.88128842469223      126.83622069054266
H          117.22071480401779      102.42720596866312      127.05048128398342
H          116.82538296351228      100.86789828951187      127.77446815000887
N          115.44694370073783      101.44831973449456      125.47678920118832
H          114.44268659227635      101.20640136960371      127.28885631754680
H          114.73614503422574      102.88277576471852      126.81710271116114
C          114.54529314996253      101.48371224445117      124.49438656137600
H          116.41261975271027      101.21972629527555      125.25995545897618
O          117.92371761061230      107.65509241417762      128.40361043500218
C          115.08722970053866      101.05331933710464      123.14094217987342
C          114.05307913424055      100.28382853640356      122.32083528506692
H          115.38216086004230      101.95196854386832      122.59263078252943
H          115.98331083208056      100.45167553562906      123.28834146668204
C          114.61913027967633       99.74542334019432      121.00920324532004
H          113.66872299552206       99.45215119427155      122.91704032640362
H          113.21789442196702      100.94898744264920      122.10155365965234
C          115.51081575393169       98.51752423618893      121.19699126682839
H          113.79297844671535       99.46011256041606      120.35391998628535
H          115.19563591674323      100.52205387000649      120.50239567054594
C          115.76187580227517       97.82840745530541      119.86754680949740
H          116.46403557504554       98.78915867503470      121.64839100043635
H          115.00652497516283       97.79508071060820      121.84581011544707
N          116.96633421433826       97.26343997089022      119.74632074259407
C          117.44728819621982       96.63307410104328      118.53842510443306
H          117.66341323049963       97.38246714386909      120.47062000867932
O          113.37935063832380      101.83079592314772      124.67715305089531
C          118.61165434143165       97.42191478866812      117.93902830419260
H          117.76952051664760       95.61325239412922      118.77263057945282
H          116.60997279091454       96.58817856740731      117.83819536537278
C          119.14749406711239       96.75762642359463      116.67219295648142
H          118.26416662521289       98.43220374898445      117.70965748267926
H          119.39590324847798       97.50888817503986      118.69213481937074
C          120.23858829039230       97.58343720066729      115.97655136391137
H          119.53207867161963       95.76644684865201      116.91691818645820
H          118.31098434671112       96.61746227321822      115.98427601152460
C          121.66722122619016       97.09772794519850      116.22951388375817
H          120.07341502498414       97.55120650785705      114.89906722313270
H          120.15826837849848       98.62520629381278      116.28814712348434
C          122.11471479708202       97.17375922623884      117.68352168078059
N          122.07245088119939       98.54014226572467      118.16477045814048
H          121.47435815415862       96.56897627070788      118.33066147265109
H          123.13601446045089       96.78100041354683      117.77203189699223
C          122.07497937515778       98.84177708138783      119.46418218892836
H          122.18197826784736       99.26662428506138      117.46672803554900
O          114.89892992939808       97.75501225025667      118.99617043127665
C          121.98805820846748      100.32737684532940      119.75872899837613
C          122.05976708209556      100.67548466332292      121.24517161385145
H          122.80377696385806      100.81898027848396      119.22606490985709
H          121.05415956112456      100.69122947491871      119.33146373493327
C          120.79811455423771      100.31095430169481      122.03232879950026
H          122.90699364258943      100.14320306467994      121.68348485562814
H          122.24600191752739      101.74599324998174      121.34543824061504
C          119.59975411703790      101.24604995966202      121.81468078723437
H          120.49342538049615       99.29987623126074      121.75940825489724
H          121.04206915568389      100.31492683118070      123.09852712710065
C          119.89454599126373      102.66503744481498      122.26032979221141
H          119.31101159953397      101.26141872856569      120.76404126234294
H          118.75133659893936      100.86549032316061      122.38384360407927
N          119.43317409419161      102.97228691873769      123.47596566310736
C          119.63535308492260      104.26261624754102      124.10145348188890
H          118.96708588814789      102.25919314474254      124.03046421454856
H          121.76646389780758       96.06389194199151      115.89603918175473
H          122.34852274043294       97.71268843850632      115.63807891675326
O          122.12960617786790       97.97454643534708      120.33857471293707
O          120.51909583632785      103.46433529080224      121.56090676724453
C          118.54018139588740      104.61528488720734      125.10081592888032
H          120.59870152880849      104.27433325836773      124.62319985914853
H          119.68237328103551      105.01371652539771      123.30787896781736
C          117.14017306351930      104.61422733750756      124.49274516676756
H          118.57887941322704      103.92166647076394      125.94107596321950
H          118.77123832384649      105.61000250327730      125.48735913362106
C          116.15243250362856      105.43532937928144      125.32203380586400
H          117.19729100635108      105.03264674277663      123.48434169182903
H          116.77805015571052      103.58951180105529      124.39888408621262
C          114.76599270878413      105.44546686478097      124.67249759156785
H          116.09156769457567      105.02897406316291      126.33154048719655
H          116.52594289310748      106.45759475682736      125.41088170275977
C          113.97896410846352      106.72478166803494      124.92627259582261
H          114.88666366504808      105.35018627542905      123.59245350001395
H          114.19191479183995      104.58644041122966      125.02341787845465
N          113.74770926914096      106.95389318146279      126.33585239227087
H          114.51760600070733      107.59027648594883      124.53016572755965
H          113.01448494574336      106.67074090287738      124.40672346311622
C          113.57974825446772      108.17262861835782      126.84417472097461
H          113.80959233336661      106.14865809555799      126.95418700729948
C          113.41772518381661      108.22238444301112      128.35052324170951
C          114.68211656445446      107.77330435687664      129.08184040613634
H          113.18840122999174      109.25114675168234      128.63260162249253
H          112.58538579494765      107.57723592538393      128.64130949639039
C          114.52091079168785      107.92118365056278      130.59323788112388
H          114.89849344164870      106.73246720513073      128.83909606272155
H          115.53417074257501      108.36914148303190      128.75240110714174
C          115.83532549536592      107.65191070189270      131.32266689183496
H          114.20189204343706      108.93913892633826      130.82244066501113
H          113.75268210975250      107.23296526856771      130.94912007576812
C          116.75704757812977      108.84977330122960      131.28321613260681
H          115.65440994964435      107.40306307919744      132.37023004247959
H          116.34897303107907      106.81427604405076      130.84909621945096
N          117.92021935603978      108.74303325587040      131.94112973706748
C          118.50223530386218      107.60441561299656      132.61736730842134
H          118.48978752459988      109.57987003403812      131.95232897731304
O          113.52798050885291      109.18660347892643      126.14410964991919
C          120.01822141485127      107.62791512411860      132.42519852765656
H          118.25865602983670      107.64007400664701      133.68562444653611
H          118.08888171560453      106.68699426488895      132.19792351113770
C          120.70444586453434      106.38373058815006      132.98729078603654
H          120.21769259395921      107.70851750436681      131.35539805034406
H          120.42347057756123      108.51397072152996      132.91960516727022
C          122.22752742774971      106.53088594383708      133.05241417851263
H          120.34145797894861      106.20745028656168      134.00124861769427
H          120.44000274482185      105.51486532406783      132.38463953546696
C          122.91086534095949      106.78000486958024      131.70654861955853
H          122.46791112355838      107.36417715063948      133.71585532507123
H          122.65055104721316      105.62564162703136      133.49104295574293
C          122.84795927386746      105.57465395925172      130.77668771163604
H          122.46338950854401      107.64212381728464      131.20987173963329
H          123.96247627659558      107.01370685844445      131.88560863922422
N          123.39803836923346      105.88926380419289      129.47276331175777
H          123.41388492795028      104.74083665405416      131.21069565205150
H          121.81788835675677      105.24940451682528      130.61601770827420
O          116.46239094146304      109.90839370011587      130.72962928669182
C          122.91636365583331      105.36457536468704      128.34444595171391
H          124.20982126433601      106.49277564118388      129.44514589548297
C          123.72492986845725      105.66865981380603      127.09869110568313
C          122.94795871269096      105.35893653990047      125.82511149364659
H          124.04167724792535      106.71170614588989      127.12068452876257
H          124.62296487865591      105.04648740060442      127.12789465114939
C          123.78716346970261      105.55313638442009      124.56990030269783
H          122.59466023380206      104.32703524040423      125.88042235641331
H          122.07139746641619      106.00667921910824      125.76133362770699
C          122.96895937657837      105.23998994578636      123.32272561526756
H          124.12079860398333      106.59018861047841      124.52252108111333
H          124.67469758982510      104.91640602245496      124.60844792240469
C          123.72790246651665      105.46469156420211      122.03399306996697
H          122.62155559350397      104.20601734534384      123.34130212923537
H          122.08735063038476      105.88589995718961      123.30301631653245
N          123.12113580130490      104.94948134002861      120.95752743645204
O          121.89347604865324      104.67885828417351      128.31408356261193
C          123.66879540250929      105.04690537795895      119.62168731471306
H          122.24550559954545      104.45429502066192      121.07419293136665
C          122.57927335475897      105.19863839040295      118.56568327679925
H          124.33656767576934      105.91370321443887      119.61520537600248
H          124.26972756741607      104.15452779337014      119.40487704090846
C          121.80964158249061      103.90111528342241      118.33359474483045
H          121.88567369506984      105.98497384747672      118.87008419271751
H          123.05148929859165      105.51017532090664      117.63201060696272
C          120.81484238023617      104.03220644475681      117.18250128943552
H          122.51877015761367      103.10371752554957      118.09779788325883
H          121.28504709393707      103.62166544934101      119.24723335069797
C          120.21023326982866      102.68571729127169      116.78590783770785
H          120.02176052276063      104.72933229657920      117.45527936159074
H          121.32697905569862      104.45069659755900      116.31356020133055
C          119.19396921667978      102.16910433042227      117.79055863875669
H          119.72632139568158      102.77951281574630      115.81599838569899
H          121.00722415189396      101.94575996933067      116.69209347832688
N          118.01704706047960      103.01021222941075      117.87347324644358
H          118.88267913912892      101.14917285722213      117.52977384853263
H          119.64090175997406      102.12671453356795      118.78935428846781
C          117.06690553892928      102.74785019197334      118.77649230404964
H          117.96305812510184      103.83252758012885      117.28278834305272
O          124.79500936470696      106.06904670626668      121.97118822762133
C          115.96517251865755      103.77952929751038      118.89563308866063
C          116.20721007627290      104.62913275099865      120.14919885510606
H          115.92726661603136      104.39283737412698      117.99940796963735
H          115.02029121121963      103.24451316872457      118.99375282459783
C          117.29682415778008      105.68422206962374      119.95909613078905
H          115.28036719544951      105.12669645476400      120.43220061430341
H          116.49523311559857      103.95815001089099      120.96291158534703
C          116.79785146842040      106.87330130558298      119.12955623554724
H          117.62604817553500      106.04791683085277      120.93556031782529
H          118.16347629020474      105.23309006089622      119.47297373910202
C          117.93038053656637      107.85187544193118      118.90534776819547
H          116.43305758967196      106.51857880070844      118.16744763383007
H          115.99078423786428      107.37869371903838      119.66092869857519
N          118.74294555567906      107.53310702960550      117.90489920146734
C          119.90947629366244      108.30783958495552      117.53917366037254
H          118.49938540254739      106.73826015832381      117.31126745867769
O          117.10386964621486      101.75121489893560      119.49593445783394
C          120.21812615104638      108.15736027910097      116.05668512741653
H          119.71542658703464      109.35651603387201      117.78682167640265
H          120.76521354773287      107.97387210925659      118.13789177167932
C          121.48440720137530      108.91351267110329      115.65419881929540
H          120.33461842722136      107.09799447872820      115.82143634136587
H          119.38010801401229      108.53771512492948      115.47352004315883
C          122.76335321227324      108.13433364739589      115.96256844689215
H          121.42329609521389      109.11890422615312      114.58563243821709
H          121.50483779586685      109.87328584025126      116.17500034694767
C          124.02638849500025      108.98387576588169      115.82793400860908
H          122.71446745199832      107.76771269875675      116.98778987136555
H          122.82880315077415      107.26968431669179      115.29895705467337
C          124.32473437562989      109.42521303568617      114.39708035280513
H          123.92016644144114      109.86669467107609      116.45804372199046
H          124.88752344365828      108.41879391744598      116.19127723644353
N          124.95298788403551      108.35509067222131      113.65213877076779
H          123.41588283196673      109.71663568562848      113.86860844545549
H          124.99414646589661      110.29456003553233      114.40691979026299
C          124.78413656244489      108.14072326580769      112.34763667746093
H          125.61848177980326      107.78656082751893      114.17084940046379
O          118.10335102805531      108.83879755350569      119.62903835672134
C          125.65052528346253      107.01303315849098      111.79923192453907
C          125.69395697879793      107.00996482127823      110.27497273137600
H          126.65624989231533      107.11582334897393      112.20827919354284
H          125.24616354430954      106.06514018021088      112.16110540785419
C          126.42655229160779      105.79271243810966      109.72075046655830
H          124.67079096529574      107.03601546154222      109.89250702605361
H          126.19739044584125      107.91814033464605      109.94017009983742
C          126.33545995216087      105.71398588773067      108.19712018191791
H          127.47879267748802      105.84285601157187      110.00809846144953
H          126.01510843269655      104.87970175477342      110.15285622400282
C          127.18363762595290      104.57782636742594      107.64359603447373
H          125.30418383353086      105.53342618887585      107.88208799418470
H          126.66037585135146      106.65351756416199      107.75222773248497
N          127.73538418468719      104.83151742465846      106.45288808065105
O          123.99827957725761      108.77915919731655      111.64836385470527
C          128.62916386455177      103.90841204729496      105.78139482976231
H          127.56944024234181      105.72277362486608      105.99336816259067
C          128.59308284698477      104.11300860721204      104.27241133419972
H          129.65049929889233      104.06524985271983      106.15193326352232
H          128.32786931735120      102.89278235638785      106.05272382575768
C          127.28673517442479      103.62385696534771      103.65312523805173
H          128.72527517210349      105.17647602430188      104.06972030941103
H          129.42823211100929      103.57328512964450      103.82481199271953
C          127.23320863671465      103.83242115023063      102.13846381520477
H          127.18433646268544      102.55524936283106      103.85117173289875
H          126.44614089656947      104.12816169958734      104.13257005480496
C          127.31991519108421      105.29088732068783      101.68325246566765
H          128.05357271838764      103.27829588998142      101.67910792398871
H          126.29961961301350      103.40665764858259      101.76292983086654
C          126.21430590514380      106.14678477075914      102.28728860900182
H          128.28733309735608      105.72064782577694      101.94294029255495
H          127.23360220836392      105.32225970078512      100.59473406167207
N          126.23847034451489      107.48902120680947      101.74678733953520
H          125.23837805673183      105.71227999764713      102.06070538941084
H          126.32965897922729      106.20976721006444      103.37504892613849
C          125.15456858058070      108.25085346416888      101.62555815623566
H          127.15489040963244      107.85021419304653      101.48884405935111
O          127.34661203939956      103.52230697566350      108.24846782394532
C          125.39750565286930      109.65218205718868      101.09576579135994
C          125.42744866873724      109.70248414412593       99.56319140592515
H          124.56569072362471      110.27113744770560      101.43976246461254
H          126.32907185392739      110.04629128738085      101.50157722863854
C          126.68495424492330      109.13929086200953       98.90041155256047
H          124.56033708103553      109.15437581968752       99.18544988266444
H          125.31658564990373      110.74485820308421       99.25889249189875
C          127.94122528138583      109.98650717518700       99.13166884126620
H          126.87586089648526      108.12255559485926       99.24796486455909
H          126.49255305636676      109.09052596789604       97.82667217585099
C          128.65122054046233      109.66333672079998      100.43219444352798
H          128.65948001163616      109.77191692262714       98.33626122476714
H          127.71264097673637      111.05157026664519       99.09149573180099
N          129.26118361484080      110.69335723203774      101.02282640100022
C          129.95049910839197      110.53497081355233      102.28926599589818
H          129.21680174876269      111.61470847247823      100.59627877414266
O          124.02180341343124      107.86036034297234      101.92422448035431
C          128.96217062041427      110.42437638669615      103.45517461354436
H          130.54330629074036      109.61687657562797      102.24029418282035
H          130.61681997506145      111.38652885766763      102.42161726745498
C          128.16343413435538      111.71410490692182      103.68393990457447
H          128.28571299203495      109.59542127359913      103.24102064748001
H          129.51698698843063      110.16354207946891      104.35678367388240
C          128.78328563622600      112.58144358114764      104.77985595166481
H          128.11693880355307      112.27379738590550      102.74885075454215
H          127.13712111589179      111.46807607225347      103.96118753363292
C          127.95188064429398      113.81874276627349      105.11674996557143
H          128.89753353034084      111.98617950656194      105.68854305243853
H          129.78050703052168      112.89403659999294      104.46887343611752
C          127.85146104665601      114.76525896977736      103.92716829698558
H          126.95081290333867      113.51868391164281      105.43445783822284
H          128.41517267597803      114.34733847243444      105.95214771166673
N          127.39794058281022      116.08653980817506      104.31087718683827
H          128.83070287781783      114.87019826964122      103.45469640689203
H          127.16264222062622      114.35305362878253      103.17900529610483
C          127.75694258480230      117.18745358532543      103.64506466258887
H          126.90906494192507      116.17772122786732      105.20001971159397
O          128.69337497763232      108.52269173457324      100.89752247451703
C          127.19906290968223      118.47771298998219      104.20627968421624
C          127.88425619876691      118.87629857693231      105.51691251772388
H          127.34359987830032      119.26040496074202      103.45901732905027
H          126.13117097384409      118.34747360099419      104.38399089209800
C          129.38943059839622      119.05977502960256      105.34272801002186
H          127.45446273413496      119.81765663883255      105.86196845487818
H          127.68351647867222      118.11892942897619      106.27582005659740
C          130.02020073323285      119.78828553809102      106.53368652062794
H          129.87133656343809      118.08972620191354      105.21312406785080
H          129.57902333247381      119.64587535929148      104.44050402585680
C          129.85217002033460      119.00861948738688      107.82355970980564
H          131.08902808645604      119.91193790693882      106.35237092252299
H          129.55804875754578      120.76894752639853      106.64489424100553
N          128.82012350163873      119.38807678210726      108.57535646966312
O          128.46329113570749      117.15912388195859      102.63705667900844
C          128.56563612536269      118.85180753452592      109.89648138975191
H          128.22508060932566      120.14928897991440      108.25702579113292
C          127.82977431592343      119.86564173745515      110.76747270151024
H          127.97554020192774      117.93018160476080      109.81643344819474
H          129.53084169074083      118.59642130637570      110.34461919281921
C          126.31043884140415      119.74574443539790      110.64257944811384
H          128.13042759427989      119.71366012027420      111.80419529603705
H          128.14425938121124      120.86831265756443      110.47240874842642
C          125.60120415471687      121.02461566689193      111.07948400836666
H          126.04767072959453      119.53207019636459      109.60544565885367
H          125.96883658979559      118.90377318298030      111.24963039803700
C          124.08871695869298      120.84995714211269      111.21164819062318
H          126.01457888775616      121.35056030092603      112.03721216249139
H          125.81309697458339      121.80216258153104      110.34225805054669
C          123.36493154260170      122.20398607497529      111.26123675783545
H          123.70216347838283      120.27225375725358      110.36851612406186
H          123.86588371033864      120.28627227459620      112.12277904682756
N          121.98408868860098      122.15426012819186      111.70647846919167
H          123.89816214660115      122.87416229837849      111.94210183630189
H          123.37538253691858      122.65274790858381      110.26357852885607
H          121.94957080770538      121.76980815261500      112.64514782475962
H          121.45416611414001      121.51536530430995      111.12065814524122
O          130.61908315442881      118.09850395263227      108.14731047728624
C          115.92501420120531      111.16238771600409       97.89592046646213
C          115.88194279895725      110.70990339034245       99.33391510148523
C          117.30504627194773      111.56507076429678       97.39455914682992
C          117.79187416067134      112.87441863730756       98.01110884106383
H          118.01862697289819      110.77005695949461       97.61463616521954
H          117.25321053949796      111.67428986177769       96.31044290273790
C          119.09879504065621      113.35679685392584       97.36540489766048
H          117.01250321255189      113.62938471796791       97.89698043600370
H          117.95410332845189      112.72621341798374       99.07885799380313
C          118.90933172594170      113.51045600758982       95.86873205615545
H          119.40861952964758      114.30314995489715       97.80950173252714
H          119.87597988232243      112.61221982939787       97.54260703004825
N          118.32616734091758      114.65315746169249       95.48678652524210
O          114.67320528509451      110.27899983200514       99.63390971971675
O          116.81170281514841      110.72583005273221      100.10996662189419
H          114.49810356832701      109.98922985398418      100.56303753561157
H          115.22414506256582      111.99676987831921       97.81220443462695
H          115.51670889754564      110.34478756286335       97.29871231072144
C          117.81234248483564      114.86889279013754       94.14917982090691
H          118.06988675544733      115.33478478175289       96.18547011701315
C          116.38262258551678      115.40578607855333       94.19391979232749
H          118.45975399621503      115.57199493728142       93.61452424859876
H          117.85584859672598      113.90438532182479       93.63777770298397
C          115.44673961615031      114.52296172498012       95.01884801415586
H          116.38974019261310      116.40852913173298       94.62555995119509
H          116.01260252063936      115.48677519585245       93.17211551698976
C          114.06979662202868      115.16670207180580       95.20268383799188
H          115.34630042648838      113.54579343943216       94.54464475098602
H          115.88482260743265      114.35764075073567       96.00399801624491
C          113.07072257816472      114.80523862842882       94.10261737106708
H          113.65229657965661      114.85743100538419       96.16294418932550
H          114.18650017295909      116.25087991509034       95.23706430240387
C          112.46659100515272      113.41790181387702       94.31495849441872
H          112.25266846188876      115.52794538009719       94.11074092497952
H          113.55073112728873      114.84259434103441       93.12529191154805
N          111.76546860923460      113.38880660401033       95.58102579799670
H          111.77218519745412      113.18312299713453       93.50074584552118
H          113.23641277178265      112.64369017794797       94.35349669868876