3536
 energy: -3716.273909137357 gnorm: 0.000789396579 xtb: 6.6.1 (8d0f1dd)
C           68.12015151086467       41.79652170566504       57.53644563037461
C           69.19615430290436       42.80544966891978       57.92915462724682
C           68.69424955479060       43.66373959053409       59.08928695235458
C           69.59121925949697       43.71217005653537       56.75705543103396
C           70.18623430323153       43.00511501022355       55.53375315733024
C           71.48543669157166       42.28153458149911       55.88822656159816
C           70.46269557210211       44.01636597378922       54.41111174469986
C           69.23117885941713       44.51714462407827       53.64646245808752
C           68.66501004856831       43.42193592363174       52.74292493813856
C           69.60767934310171       45.74061577963019       52.79605892064676
C           69.66117502155177       47.07512063919220       53.55398222466383
C           68.25312733407596       47.56061531716834       53.89605687338101
C           70.40388492342522       48.13779193020039       52.71755644006659
C           71.75135047457438       48.61722686373852       53.27722553420660
C           72.73838215137410       47.46130257730613       53.44257231450747
C           71.61830349284490       49.38601726040069       54.59831371659858
C           70.80554104896123       50.68709690827028       54.53631547120175
C           71.37743725966139       51.65178137492681       53.49948854999745
C           70.78910427034678       51.34377237818282       55.92425969846499
C           69.66978940854180       52.37744515205750       56.12444100358631
C           70.03162396012320       53.27872522574759       57.30628814087292
C           68.30632451432794       51.69670608251318       56.34308904516887
C           67.11535948150531       52.27865555675248       55.56403724943635
C           67.26242645268566       52.04291315926582       54.05988798491981
C           66.86382383536547       53.76773579107950       55.82797886156435
C           66.34463243030579       54.12953606118827       57.22910033128794
C           64.91187961285497       53.64096626128512       57.41705311217562
C           66.45857392707343       55.65464468488072       57.38982684481331
C           65.76082876655575       56.30151768724463       58.59460927382480
C           65.97361374925448       57.81372891778436       58.51606463875104
C           66.27087365294484       55.73404928948563       59.92352764618102
C           65.57853292140999       56.25843251268513       61.19170365898415
C           66.33021473693719       55.73240952246061       62.41455182363361
C           64.10257211485170       55.84529803197289       61.24689846031792
C           63.27510409175909       56.57286841061175       62.32643979927781
C           62.71695985300332       55.59318185812872       63.35619342504829
C           62.12811804673604       57.38311150272096       61.70549182160287
C           62.57142888620539       58.75437154424284       61.17647462498302
C           62.69290449792471       59.73222241206975       62.34127671425988
C           61.56701533304108       59.24652392327548       60.12734190935848
C           61.70257172631138       60.70520207009667       59.67103505144902
C           60.52467384571781       61.03330879197879       58.75617846535369
C           63.03487123421782       60.96545021062062       58.95810844639037
C           63.39656449120990       62.45158000803226       58.80547245009861
C           64.40580861369462       62.61565258831759       57.67054230790148
C           63.96189010306963       63.01513283296185       60.11588214563897
C           63.95300924554677       64.55077649975394       60.21842143077549
C           64.99261822093419       64.99636124380812       61.24471303426104
C           62.53936406165646       65.02723061721299       60.57510623898673
C           62.20719160829248       66.52496314668967       60.44935312944607
C           62.60654432303020       67.09913797795789       59.09139054956918
C           62.77180803692033       67.39863501260832       61.58108593302870
C           61.80809862208854       68.51666716396767       62.01096143890314
C           62.58647339011767       69.66649352076591       62.64712651966394
C           60.75167446813471       67.96537101970883       62.97671879666505
C           59.56240320921052       68.91177518517262       63.22644921946756
C           59.61302573899055       69.49130139085780       64.64154952680451
C           58.21537844921144       68.20275737874940       63.03143598651251
C           57.89076907497221       67.77139714185280       61.59560911368786
C           57.70805851357038       68.98011673417319       60.68096901652929
C           56.62585369886025       66.90105323697709       61.59258726180470
C           56.41767599049206       66.08752460223246       60.30068409596856
C           55.12270822678514       66.49926356439960       59.60136593071179
C           56.38239998461828       64.57929638177610       60.58080755762874
C           57.69166960592889       63.97846062014038       61.10700570444146
C           58.77660822369027       63.99815915640765       60.03410071922078
C           57.44979790214340       62.54095912633078       61.59306977410567
C           58.48901812249497       62.02922312849205       62.60123388758564
C           58.43001573632267       60.50391290939051       62.67138597186781
C           58.23530889713496       62.63529192873196       63.98792220074891
C           59.44648400726641       62.61800583300741       64.93291505224771
C           58.95815620666971       62.72794593360939       66.37702061644497
C           60.41094124530202       63.76001334083439       64.58709949806961
C           61.78769320557241       63.69373008970801       65.26554304432855
C           62.45748039698644       65.06478661916022       65.17703683937800
C           62.68019916891335       62.62459402989010       64.62287079085772
C           63.92254282704102       62.24562759028614       65.45138641008798
C           65.16345705865953       62.19642242138787       64.55740372147132
C           63.76855236180832       60.88922468549982       66.15483711382451
C           62.65465696313095       60.80518724138124       67.20280390503932
C           62.95227526592345       61.70986078800907       68.39988170712385
C           62.47608076775105       59.37032388293404       67.72365628010968
C           62.10732855166816       58.29232467665912       66.69550736530996
C           60.89049381491873       58.70665907154987       65.86996231436466
C           61.80947556624174       56.95887856030476       67.40046623528015
C           63.01963327882605       56.25710499334033       68.02985754491162
C           63.91894964213181       55.62949239135555       66.96676501238711
C           62.57981220303557       55.21648418372333       69.07288572108854
C           61.68675671556497       54.09662266745829       68.54294762154068
C           61.32346467610271       53.11037070384070       69.64671356710085
H           67.82150250547407       41.21152528168626       58.40391053456117
H           67.24340523605795       42.31350737262925       57.15080654216090
H           68.47998176993445       41.10766277818339       56.77640130569011
H           62.21704234266907       52.64015261995563       70.05217489515559
H           60.80592200019515       53.61675521213304       70.45971467539378
H           60.67215983224032       52.32748397022517       69.26394136756565
H           63.47545665898222       54.77007152600328       69.51429480121611
H           62.04845841245545       55.73509703534348       69.87641356692522
H           61.06512083436829       57.14336964035049       68.17991842244855
H           61.36120505323458       56.27762113207706       66.67436882697160
H           62.94914333718945       58.14029065001725       66.01324833264850
H           61.11516718702786       59.57548076635125       65.25852456907893
H           60.58689555702974       57.90136676375838       65.20376066132773
H           60.05260917179834       58.94927017677190       66.52080612302748
H           63.40388534028900       59.07860481057123       68.22147941053714
H           61.69150369878491       59.38948069925519       68.48612852846668
H           63.59081793375417       60.13703870973104       65.38485048938826
H           64.71592325143415       60.63938969173787       66.64165435583016
H           63.61291159282010       57.00161343710973       68.57284395477120
H           64.74988765754941       55.10498610591623       67.43400066355473
H           63.36288121324748       54.92180754371012       66.35818360900380
H           64.32879546756114       56.39347284648044       66.31083946043611
H           61.71523099959283       61.13410587235635       66.75351721188586
H           63.01779235722750       62.75354425537397       68.10387435552944
H           62.16621067981140       61.62215642350532       69.14781752265344
H           63.89591791279963       61.42891273810768       68.86448335057649
H           64.09684888555499       63.01344101100070       66.21070067280763
H           65.04005546315608       61.44999156716852       63.77570281364822
H           65.33772734403733       63.16181497464954       64.08695569750134
H           66.04782228099189       61.94003191178292       65.13778776328367
H           62.09366566690873       61.72547048276420       64.43757003370862
H           62.99919801529733       62.99921963994147       63.64698280529778
H           61.65064307958990       63.45306962102487       66.32281064379066
H           62.53611898863413       65.37677687771938       64.13730330867051
H           61.87769659805480       65.81229613934637       65.71529011147378
H           63.45868391382956       65.04425496987450       65.60174033787361
H           60.56440790631563       63.78635847483396       63.50549000418133
H           59.93088548479034       64.70190265121951       64.86737517939289
H           59.96595384503639       61.66190755253481       64.82086952345126
H           59.78654990253435       62.75295555528378       67.08037710571956
H           58.37077992685082       63.63442147745617       66.50987985925707
H           58.33063661395445       61.87613808999180       66.63179483653983
H           57.90418716691170       63.67073940201333       63.88446185062890
H           57.41458526293734       62.08234021663642       64.45048263171017
H           59.48760925775878       62.31804004266570       62.25825256670756
H           58.69403216903667       60.06400326286879       61.71194480816303
H           59.11590145231572       60.11724237996081       63.42125287938488
H           57.42652303333114       60.17577626518376       62.93503247955270
H           56.46465953521486       62.47407592615136       62.06232508366265
H           57.43822992127763       61.88067529672104       60.72206816382475
H           58.03920178322966       64.57911891388230       61.95340532602817
H           59.67616378688240       63.50613947844150       60.39391874363815
H           58.43781408586104       63.47792664550102       59.14032747074613
H           59.04026194330946       65.01643969049388       59.75848944033599
H           55.58658541063873       64.38969334706266       61.30647425982770
H           56.11471500805299       64.05836853512388       59.65702433729833
H           57.24521319138724       66.28940373216840       59.61515087105228
H           54.26652442445622       66.29472562547650       60.24124535825082
H           55.13192313376486       67.56067236896044       59.36488226361812
H           54.99238185564277       65.94945282227393       58.67206451415494
H           56.67664439989789       66.21620032093151       62.44075146503805
H           55.76118032828435       67.54547208386005       61.76291936524884
H           58.72202617751495       67.16944179761335       61.21312845984398
H           58.63894144669869       69.52898803732704       60.55874631875976
H           57.37240759118701       68.66634403173347       59.69589130146378
H           56.96423076104143       69.65970107053909       61.09426538736434
H           58.20297985648313       67.32065895791673       63.67879203049986
H           57.42071241206816       68.87027920581221       63.37647289112174
H           59.61815265099339       69.74760686275862       62.52253381510397
H           60.56373968266170       69.98454734201817       64.82769595962327
H           58.81697220707581       70.21917742072934       64.78830217720159
H           59.48903288042899       68.70028066623961       65.37922393449367
H           60.38321195832633       67.01875737273333       62.57958726181162
H           61.24032563780813       67.73911607837231       63.92669789924319
H           61.30174742031959       68.90098191364365       61.11763188685435
H           61.91922505194326       70.47322692748207       62.93996277205663
H           63.11871340731971       69.31974572728149       63.53106359020919
H           63.31476921148413       70.07041769166727       61.94604517415952
H           62.99725491409867       66.78772359988417       62.45632150999746
H           63.70879212709390       67.85178025638454       61.25116079790009
H           61.11314210504992       66.57969835794452       60.51455961931063
H           62.22106814761820       68.11134993349755       58.98493458937396
H           63.68819132015219       67.14123136070975       58.98592411315231
H           62.20552282624015       66.49481824162667       58.28088246760458
H           61.84496893508177       64.49578313691465       59.92027696337158
H           62.31482757618759       64.71397337071961       61.59907641735941
H           64.23371559132289       64.96396362925454       59.24621835168554
H           65.08188900326556       66.07757950194117       61.27434469066356
H           64.72075551480644       64.64633406962797       62.23903582082241
H           65.97017422675950       64.58603602675053       60.99634936609220
H           63.39381217723909       62.61851908819386       60.96019240530634
H           64.98892587003762       62.65556907542106       60.22212207808069
H           62.49648705697052       63.01040290039045       58.53619575221643
H           65.29279098992556       62.01398254339762       57.86028863287424
H           63.97052004275194       62.29647507865315       56.72648167594714
H           64.71562447829159       63.65268221028077       57.56516053181304
H           63.84643717435364       60.47668100681707       59.49991430374124
H           62.98880122412528       60.50714531578610       57.96680271858247
H           61.63435029191502       61.35359337918020       60.54902296334132
H           59.58413297670232       60.89906875321840       59.28367050177405
H           60.57231161945226       62.06172729912560       58.41258083882969
H           60.52442021604281       60.38020699682914       57.88593662853691
H           61.64080383962270       58.59970505584597       59.24822560775522
H           60.56322200464037       59.11854511573019       60.54139152191459
H           63.55351629992232       58.63948588173555       60.70642382933476
H           61.70285441028496       60.00522956570597       62.70040705284392
H           63.24188382833366       59.27881072518629       63.16378626997429
H           63.22039627124048       60.63581417799535       62.04911053296581
H           61.67973315311075       56.80088178889318       60.89719042781618
H           61.34800403879696       57.54418162231240       62.45325695603828
H           63.93316095070763       57.26801699456285       62.85866040163584
H           62.01622342922899       54.90589062872474       62.88837297384050
H           63.51973286716908       55.01990458473422       63.81160829983897
H           62.19465720359415       56.13078407622750       64.14510812211854
H           63.65184908202628       56.03895534290795       60.27359338788455
H           64.05509314812072       54.76784952534262       61.41761272512687
H           65.63959461146474       57.35159023163934       61.20381626514887
H           65.85855042364811       56.06404809548738       63.33644414844835
H           66.34420257194630       54.64439609356321       62.40828337429394
H           67.35988874527368       56.08631271833482       62.41549997419351
H           66.16520229117040       54.64794776878561       59.91160617773136
H           67.34024820127922       55.95296871395145       59.99973498663176
H           64.68901498608943       56.10813218906441       58.50376300311443
H           67.01797478115381       58.06455891609423       58.69337631227864
H           65.69884783611187       58.18489125612314       57.53093491640792
H           65.36664259183327       58.33659539048582       59.25009952828297
H           67.52035867345978       55.91969699048658       57.42181681105008
H           66.03760253005628       56.11677101506258       56.49309293719058
H           66.97816450855997       53.64624553866386       57.97897728125081
H           64.24124791256729       54.15958533531713       56.73642882328231
H           64.83985990688019       52.57451562635013       57.22060473520451
H           64.57210071107592       53.81106366281254       58.43398656438116
H           67.78625198182289       54.31952368474999       55.63464102812515
H           66.12478714684745       54.11997361208380       55.10217160695404
H           66.23254719423663       51.71637166717255       55.88953931007496
H           68.10842081924089       52.59132801764436       53.65246320197609
H           67.40468512235758       50.98552288013545       53.84797713843871
H           66.36529347403908       52.37041772012744       53.53787739453455
H           68.38348918600495       50.64247450299651       56.06837494686929
H           68.06982236305126       51.72339196684501       57.40827527301146
H           69.61845260010003       53.00558162362030       55.23148853360107
H           69.24613423282887       54.00249745010228       57.50289307054218
H           70.18088489233041       52.68378378048175       58.20592903665722
H           70.95319333966175       53.82314582428835       57.10553778964232
H           70.68538481225431       50.57279616842438       56.69154517448970
H           71.75620379693578       51.82808947824719       56.08419027776171
H           69.77625563459364       50.44983825257395       54.25716856202881
H           70.90216634326713       52.62646549736922       53.57674294900849
H           72.44703490667703       51.78476896379902       53.65252993141016
H           71.21573454553698       51.28494109753326       52.48970648114365
H           71.16898541012617       48.72915607980257       55.34640678600540
H           72.62497094963324       49.63080223436884       54.95012647108328
H           72.17952792523469       49.29632588005316       52.53169307220783
H           72.84232490114627       46.91219154998138       52.50911566244276
H           73.71920467223711       47.83860608299191       53.72534744564529
H           72.41093576275756       46.76801331203245       54.21276315629174
H           70.58234420098361       47.74341513677576       51.71378976897246
H           69.76435382227248       49.01301447731628       52.59655138973975
H           70.19551958367839       46.91834841982229       54.49472068756731
H           67.71591952738848       46.81930772858880       54.48307685130242
H           68.29907661218552       48.48023727110957       54.47603226116757
H           67.68376640912469       47.75541340214188       52.98970707592223
H           70.58226704592872       45.54605414879900       52.34241638860318
H           68.88814886878329       45.84454312939405       51.98015100925969
H           68.45442130004859       44.80199049796788       54.36091843207648
H           69.39886146987972       43.12990701191458       51.99388481754000
H           68.39178522118429       42.53970454316191       53.31609734771114
H           67.77462833356435       43.77567939602697       52.22763360634069
H           70.98629018808415       44.87008630886103       54.84717769490393
H           71.14166526308642       43.55884567254110       53.68631608406734
H           69.47243513303955       42.26307168612099       55.16681529315318
H           72.21341177167751       42.98299764316697       56.29184174292958
H           71.31460395548849       41.50070350471978       56.62470444435442
H           71.91438635308630       41.81612733068967       55.00297168544208
H           68.70368089689998       44.26821034835104       56.44721906601212
H           70.32389598811805       44.43985090950714       57.11862363657604
H           70.07991644499913       42.25806888233681       58.27324313133389
H           67.79310241581246       44.19866283949395       58.79758663436411
H           68.45805209618692       43.04299731081470       59.95044061486337
H           69.44737323955090       44.39006543593283       59.38831265013287
H           60.77199140289644       54.52325387715668       68.13112069442083
H           62.19984115282234       53.55963325678670       67.74455482631187
C           66.27687571424651       61.56201331140232       54.62585713110496
C           67.80050365159987       61.64976316549851       54.61397503241751
C           68.23650176115142       62.85666012863199       53.78284456388915
C           68.43787750262814       60.37778667494232       54.04155271094111
C           68.26592968507585       59.11240515610721       54.88991254063657
C           69.15072070459115       59.16685327118153       56.13508719078347
C           68.61446641749869       57.85463568143052       54.08033360455767
C           67.64162827160662       57.49229999129884       52.94888810542267
C           66.24037597625622       57.23477983313521       53.49870453615888
C           68.16332548503577       56.26189066265298       52.18145763623225
C           68.11344335625463       56.36296948310688       50.64711989626778
C           69.07687148500366       57.43512639089046       50.13554191181393
C           66.70354038342001       56.61570711397830       50.09910402027225
C           65.78920243213651       55.38234197502658       50.13296597382470
C           66.09771245056828       54.47799719294702       48.94291396475549
C           64.31153932714055       55.79602147344450       50.13097857424561
C           63.33335808945790       54.67612400153012       50.51715591689257
C           61.92767940662366       55.03996808779189       50.04377687623817
C           63.35732266254598       54.43450490095506       52.03051535457447
C           62.67121140659164       53.14719078934591       52.50700778509133
C           62.67117967854370       53.12956661985158       54.03622752964493
C           63.34944049307685       51.87671221888986       51.96104336821474
C           62.61330103916839       51.20645383791028       50.79332643750507
C           61.33512345054871       50.52904015218471       51.28616194611183
C           63.49930631272961       50.15585069027122       50.10635741351855
C           64.63676619452320       50.71638083845041       49.24437818446444
C           64.08801411901818       51.34032582658919       47.96152601646484
C           65.64476555562617       49.62035416100569       48.86637912070448
C           66.55643361865604       49.13358395233798       49.99870278479445
C           67.57378817909624       50.21043047645911       50.37428612559441
C           67.31709416913023       47.85998474377686       49.59341933291896
C           66.45411071952564       46.60895647611049       49.38512762662493
C           65.88227117325398       46.12513292130278       50.71812984152350
C           67.24388686551336       45.46854025924394       48.71641819537813
C           67.20732518184833       45.38345564537592       47.17874430413504
C           67.99473863230421       46.51327583613752       46.51275332615877
C           65.79685006793844       45.35268748203543       46.56981043424977
C           64.83837462986587       44.28180425296463       47.10050073905486
C           65.36899498636301       42.87566777948495       46.82006707322201
C           63.44674626053721       44.41337904362641       46.45827214838252
C           62.73331035458558       45.75962666299867       46.63374260712983
C           62.62922400884363       46.14995556468518       48.10602282641977
C           61.30897125740337       45.71213786348801       46.05983044653571
C           61.17162358471234       45.41266484049063       44.56429010011905
C           61.95875726011732       46.41308334758023       43.71869095001626
C           59.69659416131879       45.45988632723687       44.13626386589352
C           58.75648517661593       44.45254493864743       44.80873488364756
C           59.25737396534294       43.02036400405466       44.62937530353467
C           57.33878130247246       44.55376613946073       44.22827315612382
C           56.59877255001061       45.87442451961022       44.46389182548465
C           56.41382743189669       46.14953941539127       45.95592986351429
C           55.21653841873037       45.85487828649291       43.79556704030067
C           55.19482262110276       45.64927779038604       42.27613805794341
C           56.02072582892049       46.71829332576015       41.56349825732604
C           53.75259188782952       45.69126383449400       41.75283005450444
C           52.90286439498831       44.46170563302005       42.09285688447937
C           53.27958309972961       43.28129280788161       41.19824389362537
C           51.40662756392111       44.75515979738648       41.92640607981201
C           50.79724706421618       45.72385836019062       42.94539348414811
C           50.84839545644498       45.14638061301809       44.35989971874959
C           49.34026654618904       46.04200608531494       42.58325489174822
C           49.11452391679970       46.89299706630421       41.32625358537626
C           49.65895525029014       48.30625069291136       41.50859240762402
C           47.61220196925058       46.91889910045526       41.01307060846850
C           47.22691658402487       47.42195198736987       39.61659520625244
C           45.70336026615783       47.51073304943205       39.53067291043923
C           47.77766696803337       46.51603865904686       38.49962553759269
C           48.91670673345816       47.14106571083349       37.68249031152711
C           48.36054986981030       48.15485758194059       36.68385321014046
C           49.71610523529645       46.05420141930805       36.94607426621232
C           50.72226641985534       45.33028753580345       37.85276008955613
C           51.98216253978783       46.18325018862610       38.00564835008989
C           51.09026813273680       43.91894992279387       37.35379323850344
C           50.45678270353167       42.77727017940548       38.16702475734541
C           51.24960077509639       41.48910187333596       37.94364500492296
C           48.98461357628049       42.57052666084770       37.79140605666426
C           48.15753633701451       41.80013858230544       38.83453399983043
C           46.98676573923196       41.10520396363872       38.13928932788968
C           47.65187684046507       42.75471831387522       39.92324357566839
C           47.12981228326789       42.06909585622775       41.19681591803317
C           46.11360074345363       42.97906210645797       41.88434707770621
C           48.29686842421227       41.72804318611695       42.13138590899813
C           47.97187166934825       40.77803736477757       43.29374996194919
C           49.10872434902283       40.83881774725288       44.31365648009974
C           47.77053483472835       39.34256789484219       42.79083225773888
C           47.13467075856210       38.37455066017762       43.80392827276624
C           47.77075014353549       36.99044763106085       43.66163269005670
C           45.61580550080618       38.23939439407295       43.63486415703486
C           44.82436835563605       39.51693054675458       43.90138675939599
C           43.32224571804520       39.25694702583834       43.89587437280246
H           65.90585392711144       61.34911779320432       53.62597570265395
H           65.93072663685938       60.78229822316095       55.29891912709270
H           65.84880427224925       62.50485887732314       54.95803774466793
H           42.77281986370227       40.17862075428975       44.07429150436775
H           43.00847692656799       38.85085690311730       42.93635277828385
H           43.05466977882617       38.54241626669091       44.67184603716176
H           45.39806236911117       37.88715441716231       42.62261937665250
H           45.26428497258113       37.46931535486387       44.32794560124134
H           47.15435664147812       39.35196391540703       41.89015788162438
H           48.74976773245566       38.95427297808186       42.49840757191789
H           47.05873803519807       41.11710398330911       43.78712485477293
H           48.94201187220272       40.14667516479519       45.13541459346525
H           50.05419278921703       40.58399817078477       43.83822721004496
H           49.19345577388020       41.83960328605317       44.73154498414142
H           49.10306908174702       41.28185617991314       41.54290854747927
H           48.67747723217651       42.66409296163690       42.54809073076589
H           48.45815519689325       43.43499124175097       40.20775302854425
H           46.85107653034868       43.35975326574786       39.49015300203342
H           47.32712461681011       38.73594857805920       44.81993886825533
H           47.31810552826771       36.28106585222870       44.35191738927047
H           47.63054719590801       36.61368118564304       42.65004373691399