3864
 energy: -5104.235307524455 gnorm: 0.000752973889 xtb: 6.6.1 (8d0f1dd)
C           59.42088321620137       41.66962405521192       34.99002305955421
C           60.38037213872821       42.26615979405378       34.18241801608414
C           60.46140607668980       43.65319749679579       34.16110416222502
C           59.64433785329736       44.42031334155241       34.96989838974715
C           58.72016531948349       43.81520810525473       35.80430849601604
C           58.59528305806688       42.43690606456010       35.79505746776172
C           61.32570947981957       41.42406195454713       33.36413594919848
C           61.01107883995164       41.57120655444253       31.87378967778888
C           62.78881532213354       41.79938556610168       33.64688248050080
C           63.12466845074261       41.74469909389658       35.14372910072815
C           62.93886243929751       40.34200366122621       35.67363205894117
C           63.75690704764976       39.29923400525758       35.25443266274648
C           63.60042441062301       38.02373326917014       35.76660210518724
C           62.62442085705701       37.76874448656618       36.71467214049841
C           61.79384462013090       38.79497825270354       37.12917821987387
C           61.94643565793838       40.06574996077749       36.60559957932536
C           64.55749555670658       42.22216250239065       35.43865515661430
C           64.82257932867697       43.72560270704115       35.23634958626857
C           66.31403907517024       43.94981413813498       35.29515951552084
C           67.01575569695774       44.31811124789344       34.15433988030527
C           68.38536530730802       44.51445331236204       34.19291565169712
C           69.07770180569149       44.34268182495526       35.37908319500122
C           68.38971298379050       43.96916849207356       36.52136172960061
C           67.02177915554573       43.77125460666581       36.47862920538576
C           64.09164941583919       44.61249999606552       36.25420382066787
C           64.42390643769460       46.10157872642840       36.05662116863643
C           64.08542758044143       46.54803194797595       34.65637038612945
C           62.78804783510586       46.44095456264108       34.16806725978373
C           62.47840652180064       46.83672501646666       32.87927389546429
C           63.46137612228252       47.36857446730284       32.06177282137492
C           64.75158992673896       47.50204448617846       32.54473555353830
C           65.05973781769143       47.09264841348134       33.83069059010258
C           63.69432175942801       46.99552672661162       37.08011238500851
C           64.54695716690914       47.35620141676550       38.30471956170464
C           64.86639837471965       46.14766415825208       39.14236368024873
C           66.16721146957829       45.67714349160844       39.25473765555799
C           66.45721823954497       44.58106689410623       40.05004543892917
C           65.44811180296742       43.94312154457947       40.74804201415912
C           64.14722306557016       44.40584128292345       40.64260092944028
C           63.86069124750819       45.49776417956198       39.84828732422523
C           63.83267853634106       48.42253686877513       39.16036139416666
C           64.21088989207830       49.84639137767704       38.72958029728459
C           63.18785609734893       50.86829250205250       39.15748066342852
C           62.59992687505416       51.70551776889182       38.21851472713748
C           61.69946674372498       52.68442564168546       38.60089057732758
C           61.36600571192149       52.83539251452717       39.93504564660009
C           61.92811399069096       51.99276339845751       40.87882027376109
C           62.83515655927066       51.02259792919368       40.49381729884777
C           65.58621181634126       50.22684009800999       39.29868240331638
C           66.20226126420198       51.41148150821090       38.54724542044810
C           66.48020645596732       51.02120533863415       37.11612035480690
C           67.35258452480596       49.98287086662762       36.80836560266501
C           67.57197543547208       49.60347717173862       35.49669629398122
C           66.92313525613804       50.25904960439022       34.46424129966302
C           66.06155737071995       51.30212009141643       34.75510186250626
C           65.84447722499519       51.67760372604975       36.06943629381892
C           67.48068378829294       51.91756654971243       39.23175408495218
C           67.20798653797328       52.58231835335468       40.59977624471156
C           67.78097680387405       53.97663996187350       40.64660550677146
C           69.13736261470261       54.20005457985970       40.43730907299729
C           69.66159590322363       55.47807118743596       40.49685435872151
C           68.83658522484414       56.55723781680206       40.76861066615534
C           67.48479804035395       56.34736380595828       40.97551977468188
C           66.96323682041260       55.06712287531330       40.91339229982088
C           67.77680597628444       51.74160174388610       41.75474995087382
C           67.46696327941707       52.34797160197625       43.13413664395200
C           68.48851671258105       51.89434476897360       44.14605223690044
C           69.26751872946555       52.82054475311185       44.82670905146225
C           70.21762620861681       52.41346578731038       45.74663408085605
C           70.40673181589231       51.06580450382641       45.99678139986212
C           69.63357710620826       50.13191471190210       45.32789107979068
C           68.68163829212517       50.54321000073303       44.41293289457028
C           66.05198905265871       52.00537594055431       43.62087648570496
C           65.61180064579413       52.97840592585151       44.72495194054108
C           65.16841453078123       54.29076661853435       44.12891777323559
C           64.08688482910978       54.35079202252600       43.25635857305697
C           63.65848326190874       55.55876246927324       42.73709749085442
C           64.31203916948810       56.73169464385518       43.07526942798275
C           65.39511070407337       56.68437183150529       43.93592004738848
C           65.81402893588768       55.47422526049719       44.46140304873289
C           64.49009876431079       52.39948456899291       45.60314115220320
C           65.02110342825155       51.40859505230238       46.64506884890940
C           66.04631638410905       52.05175546085470       47.54819019520029
C           65.80660814324382       53.26371432731325       48.18623599929219
C           66.77097733789739       53.84498341314311       48.98816191892142
C           67.98835612800073       53.21603056822367       49.18561927568537
C           68.22836886834968       51.99589679662333       48.57974729834032
C           67.26674189870972       51.42429313620090       47.76618980352581
C           63.88753695339859       50.80230563656212       47.49373844949381
C           63.03799792506312       49.78098391288987       46.71892924226176
C           61.70711814081945       49.53674078810489       47.38645979200714
C           61.62480101643128       49.20572788520948       48.73386826020320
C           60.40211234371495       48.95445509342429       49.32930902550235
C           59.23526052034233       49.02723173355938       48.58495688911589
C           59.30378143627890       49.35917020850898       47.24333758187046
C           60.52958771537744       49.61418042770413       46.65325396586238
C           63.79619588501831       48.45583513178074       46.51685602418137
C           63.33954914575919       47.69584063572873       45.25364943127927
C           64.54122332499006       47.21133888195742       44.48033700309600
C           65.36146422383834       46.19989002499321       44.96621263241476
C           66.47835950434134       45.79398948333841       44.25826336629162
C           66.79737797432971       46.39145197574922       43.05107461180977
C           65.99383317095558       47.40487775831654       42.55940809063976
C           64.88019914384165       47.81032825546895       43.27246073709011
C           62.36856862235535       46.55558632166089       45.58020207658623
C           61.78806568190635       45.94265088843863       44.29786612721855
C           61.00268344429897       46.98211905061583       43.53936456884161
C           59.83327685317097       47.51247176618018       44.07158897716650
C           59.12843337548304       48.48908850971461       43.39291624754382
C           59.58737547756511       48.96071780504029       42.17496381345155
C           60.74566402604367       48.43425943745078       41.63316485695597
C           61.44267275009037       47.44808352443395       42.30808993491158
C           60.92153765640947       44.70168523721563       44.59092403439614
C           61.41221371243621       43.45029802970006       43.84317816777689
C           62.56177134090151       42.82160062662629       44.59029329732095
C           62.35215834143420       42.05750140543699       45.73352577267571
C           63.41189170054902       41.47168271253121       46.40024500647829
C           64.70781545875793       41.65205462779330       45.94849346133665
C           64.93259468797417       42.43315796435334       44.82953419657662
C           63.86857863634853       43.01041812103346       44.15942431754095
C           60.25359996558974       42.47230670341883       43.60924755323672
C           60.71395602773961       41.17565982811226       42.93343471394876
C           61.44151577746735       41.43229426309271       41.63877489768883
C           60.81693902860242       42.07202629523385       40.57404361731219
C           61.47945316047822       42.26225082780748       39.37450138246813
C           62.78055688842167       41.81558655702167       39.21904767251321
C           63.41101623811891       41.17372556091973       40.27021668024011
C           62.74796499358888       40.98945337668147       41.47084336150119
C           59.52140269578344       40.24181005642730       42.68334558081852
C           59.98258879190345       38.88594785268806       42.13634472263713
C           61.01989035999875       38.25365541665717       43.03323457888843
C           60.81973147974002       38.13063144170149       44.40403548480805
C           61.78108029914657       37.55306481991254       45.21351118776162
C           62.95794455306623       37.07483901249187       44.66367239822617
C           63.16294223909027       37.17576033172400       43.29883823273494
C           62.20112822924562       37.76102500041950       42.49364081515545
C           58.82559635281049       37.88893144897071       41.96839943329049
C           57.72712757652181       38.29722918039418       40.97322046897771
C           56.56626255630484       37.33962004831341       41.09671775016637
C           55.29616123762304       37.81580191414692       41.39761849937717
C           54.22640284499376       36.94963198131222       41.53619258232078
C           54.40902577328021       35.58616829610210       41.38674397588952
C           55.66966945295174       35.09954514954944       41.08346580954903
C           56.73555020296935       35.96867532261057       40.93512472830109
C           58.25095176965313       38.35027623734244       39.53139142752043
C           57.18322300933644       38.80880012606698       38.53029455954256
H           61.17803728660881       40.37386820247929       33.64333619405910
H           63.44048324651632       41.11359404238066       33.10078455393968
H           62.98058661826614       42.80475318700894       33.26920376807251
H           62.42445134895337       42.39790108038181       35.67260613595568
H           64.80340058840004       41.96128708012867       36.47153948968150
H           65.25155115098720       41.67411827305179       34.79614663395694
H           64.48253245704524       44.00903877073568       34.23490659636445
H           63.01617041637288       44.46396212710675       36.14487037205699
H           64.36656202028750       44.32140140537729       37.26926386063286
H           65.50324746040154       46.22748589377186       36.19451179048043
H           62.78254481321929       46.49632652356416       37.41081650757436
H           65.48884932992658       47.77582202172119       37.93450219619465
H           62.75324308541138       48.28837136006195       39.07332340083526
H           64.09714257281885       48.28178315318033       40.20989673573260
H           64.27031475832753       49.86552850285997       37.63537082580758
H           65.47499584680016       50.48084771417228       40.35299804420420
H           66.26053985903071       49.37170836054802       39.23269281494085
H           65.47551589806145       52.23229202189302       38.54219094500686
H           68.17913993168324       51.08836028512231       39.35562580460430
H           67.95349219112811       52.64335171876044       38.56563014791697
H           66.12578981182169       52.67058384504266       40.73629511828512
H           67.54044809826048       53.43746884161197       43.04290042100908
H           65.35318152247984       52.06266812450075       42.78510017448399
H           66.03979561314748       50.98135654512679       43.99774180523835
H           66.47412179693681       53.17019912797283       45.37354061277686
H           63.98122052519819       53.21940630927365       46.11329584759763
H           63.75792388716054       51.90528849304842       44.96478944660640
H           65.52591661272109       50.59509558522215       46.11406583417997
H           64.33493920848674       50.31945040562380       48.36562019607177
H           63.24298894971627       51.60682767541651       47.85550464604019
H           62.83598277549849       50.20519344883139       45.73125568614839
H           64.86327704286460       48.66941919781868       46.42689501410636
H           63.67196537479593       47.82193199357231       47.39639250629461
H           62.80296601740469       48.39975385364781       44.60848596524610
H           62.88090117581980       45.77337214548941       46.14403233237712
H           61.56294754557919       46.94649088274038       46.20426613513835
H           62.63918751132082       45.63937622180615       43.67848609918121
H           60.91697151677565       44.49452525541815       45.66322384656959
H           59.89365036265701       44.90031025943666       44.28178137456491
H           61.77472820972240       43.76233104753533       42.85736928387966
H           59.77324407295665       42.22784030344798       44.55806455492669
H           59.50165767814922       42.96323923056335       42.98828335613068
H           61.40867668984897       40.67084770716160       43.61348047928556
H           58.97304822419265       40.10221313719864       43.61530020312087
H           58.84355102968888       40.71160906514562       41.96983935181606
H           60.45154555315771       39.05374179907783       41.16119568673741
H           59.24932425525979       36.92866622845080       41.66318204791268
H           58.36638488548272       37.73300842621493       42.94697485100310
H           59.32779733244954       40.59198603506704       34.98850979110341
H           57.86071393348215       41.95766719249738       36.42603991420648
H           58.09817064655893       44.41803367161782       36.45011569936049
H           59.72339915497752       45.49642363858778       34.94500683361895
H           61.17518098021150       44.13978939520426       33.51291288682133
H           64.53050285760905       39.47969169422633       34.52182042922787
H           64.24674261462378       37.22575598466791       35.42817822354279
H           62.51197764670505       36.77396708777273       37.12302829189763
H           61.02519653528501       38.60325466376091       37.86354275446340
H           61.28545849915507       40.85690643542606       36.92555571499588
H           66.48198637865562       44.45856955761703       33.22423970340323
H           68.91362290013176       44.80306903370240       33.29516564077613
H           70.14662947291171       44.49711977071013       35.41262451587134
H           68.92350591282565       43.83010291095718       37.45084778631445
H           66.50187974211791       43.48279238936739       37.38013601804406
H           62.01515576784029       46.03602316285027       34.80335531653990
H           61.46908108228261       46.72917902039408       32.50455475576748
H           63.22079058896575       47.67864637999672       31.05508945051518
H           65.52311214731704       47.92116199663869       31.91414477466783
H           66.07125378955465       47.19443030475431       34.19831290483937
H           63.40729805966179       47.93024604009403       36.58961712784185
H           66.96387424864260       46.16663670383659       38.71023973389590
H           67.47565971370298       44.22436195077346       40.12364608784245
H           65.67114969032316       43.08779288337034       41.36986940826915
H           63.35149878251535       43.90530981825567       41.17362192861552
H           62.84431588919587       45.85295856080097       39.77489928153376
H           62.84594577260344       51.58859163226907       37.17228933024265
H           61.25744100591618       53.32597056283907       37.85088804637635
H           60.66941733848075       53.60219536438693       40.24214090395038
H           61.64893159039949       52.09765122769103       41.91674162363996
H           63.27029398059997       50.37507824559269       41.24146955031700
H           67.87154168357915       49.46135022601175       37.59969116866074
H           68.25194901396559       48.79153039787789       35.27827580515098
H           67.08967216102417       49.96077657263533       33.43951881269980
H           65.55617974324788       51.82350476272040       33.95403630876677
H           65.16717004719085       52.49158771220632       36.28877846874145
H           69.79173622846741       53.36694985794492       40.22463836267384
H           70.71837691703018       55.63463156208255       40.33297618240368
H           69.24742193070941       57.55538205002495       40.81753389202663
H           66.83164166210781       57.18065415693197       41.19067162748208
H           65.90674711942850       54.91563719653058       41.08328597694258
H           67.37702377624990       50.72789722645478       41.70061421026529
H           68.86131549137360       51.67692962539679       41.63965103570484
H           69.13234178170568       53.87548689210310       44.62832928160500
H           70.81279242882252       53.14989960181137       46.26781041237479
H           71.15372996327653       50.74475807570222       46.70877466139525
H           69.77409431219209       49.07720781532039       45.51992580869535
H           68.08827668519925       49.80069434065894       43.89840701970979
H           63.56539370289511       53.44756524484216       42.97662949802412
H           62.80866345524966       55.58249972673689       42.06988763213801
H           63.97808524205075       57.67701134363498       42.67117038044882
H           65.91609284102790       57.59341891705703       44.20289599016733
H           66.65140738198903       55.44879465049306       45.14587577607971
H           64.86640118262594       53.77575243303338       48.05223214179298
H           66.57031027683466       54.79467986548894       49.46344914820806
H           68.73969141463596       53.67115696005942       49.81493931444130
H           69.17149223452924       51.49086662124120       48.73233025881380
H           67.47696633169386       50.48058774858148       47.28129216856439
H           62.52554377553931       49.14663261377473       49.32741902859834
H           60.35814244897887       48.69160830137687       50.37575937428993
H           58.28104804920078       48.82760879352104       49.05241092020727
H           58.39921377690627       49.42373057573236       46.65681606551568
H           60.57048562407837       49.86997053265309       45.60470221601530
H           65.12993656766083       45.72207639177988       45.90698250501144
H           67.10662278555613       45.00754635658124       44.65331671446368
H           67.66839810007951       46.07138914279079       42.49753428496591
H           66.23861261718253       47.87535889245937       41.61758293456088
H           64.25910902835520       48.60733964574332       42.88696895024219
H           59.48337585054253       47.16911599542182       45.03458185159344
H           58.22242425752228       48.89231724580902       43.82396956204034
H           59.05276090870561       49.74024295653939       41.65158207263537
H           61.10987336290453       48.79843308584788       40.68457802479605
H           62.34852267157419       47.03962856233873       41.88121525862928
H           61.35124756041037       41.91348117442967       46.11118469270188
H           63.23262306519350       40.86705631384057       47.27705824157837
H           65.53629984964282       41.18939852360570       46.46733612805440
H           65.94071743516510       42.59027133753060       44.47078544985880
H           64.06812714265216       43.61737247564007       43.28904050911735
H           59.80235130411897       42.42600660376262       40.68182570405060
H           60.97838486646391       42.75771424876102       38.55329473282653
H           63.30050814954665       41.96541073428534       38.28520433321658
H           64.42488114650907       40.81607311674711       40.15276004941438
H           63.24857366725351       40.49141244955104       42.29081928532546
H           59.90524323132284       38.48462435647417       44.85436624350498
H           61.60694601708948       37.46073191079650       46.27592507121372
H           63.70859345191094       36.62227717440407       45.29548935657473
H           64.07714269214357       36.80036481212347       42.85903122435120
H           62.37573598737626       37.84251053138234       41.42893980663264
H           57.71019074490633       35.56378698573741       40.70386349518810
H           55.82855793870272       34.03661473088264       40.96586552813972
H           53.57551959825639       34.90865539319966       41.50796643803243
H           53.24585718959322       37.33798316055656       41.77029813677846
H           55.14369378527061       38.87798097794376       41.52568343672407
H           61.11102755582112       42.60764162451390       31.55780591899906
H           61.68766460517806       40.96060097721156       31.27940113217700
H           59.99129228085108       41.24842016453994       31.67533241616580
H           57.36606433938587       39.29561650807406       41.23834333211585
H           59.09746000831517       39.03757195266272       39.48801215923014
H           58.60825726334777       37.35943296564525       39.24362472747541
C           57.74898222373891       38.90923422153812       37.10312074289212
C           56.60050375423027       40.15711348246678       38.88087548709272
C           55.22452894231055       40.31751666532602       38.99221110330443
C           54.67212180241506       41.56370080599290       39.23209307674422
C           55.48939250873181       42.67398342623796       39.35567813095054
C           56.86229773682811       42.52853527952983       39.24259642797527
C           57.41193339228133       41.27919289965123       39.01119899364465
H           54.58015306641867       39.45535504424683       38.88714403602982
H           53.60010544002052       41.67446222451449       39.30870369931683
H           55.05450130300032       43.64507914187208       39.54142313937771
H           57.50879156107769       43.39281963279449       39.32068937953026
H           58.48396546579229       41.18067714109490       38.92017930029866
C           57.96397808351658       37.56063212918283       36.40898508487160
H           57.04908324091542       39.49241439912755       36.49861087932869
H           58.69526308876671       39.45359455045701       37.12269674498397
C           58.38066090518750       37.78594973082254       34.98301637065674
C           57.46891979348300       38.28170135380491       34.05735139030858
C           57.84967375914313       38.54665586876944       32.75545473351074
C           59.15681293990560       38.32453134862484       32.35714762279108
C           60.07305417233366       37.82896929355473       33.26774953364576
C           59.68551018355518       37.55949689497014       34.56846515512612
H           56.44995043762011       38.47221364403656       34.36458917315854
H           57.12735820987879       38.93030118976235       32.04846983366050
H           59.45913970289287       38.53642840806669       31.34157496618918
H           61.09609103890053       37.65110179078936       32.96749853785251
H           60.41227622744418       37.17663748701742       35.26994971825238
H           56.37120200102111       38.07214363772854       38.53035542951771
H           58.73125516351556       36.98458460772749       36.92740302388411
H           57.03165107643571       36.99221915692364       36.43704169751805
C           48.16005541107243       48.83032734263800       32.92827973642137
C           47.27399943418865       48.68312114139810       31.86678033244538
C           46.90299466552928       47.39716013620328       31.49234191075251
C           47.38844300926581       46.29328752292187       32.17202493735195
C           48.26545213504815       46.45405598010508       33.23077297804024
C           48.65304673495346       47.72929875798554       33.60613663826940
C           46.76789706107342       49.90292415956589       31.13135494771296
C           47.67078369354093       50.15285860480775       29.91897283524945
C           45.29227834657477       49.75269915336396       30.73129014111824
C           44.54093802449229       51.07958920561381       30.55409773180765
C           44.98364202790455       51.86126700898938       29.34503824748798
C           45.45966808478874       53.15900453429064       29.49060686265718
C           45.82779068152828       53.91205187845338       28.38953233045357
C           45.72739791065280       53.37375490034827       27.11821429332487
C           45.24946878949148       52.08331843562789       26.95832625932895
C           44.87527410928908       51.33742516646765       28.06121710426659
C           43.02166602959144       50.81444967224412       30.46935199365380
C           42.37572280527098       50.76100709826433       31.85879020588634
C           41.06427672492277       50.01328416779160       31.88316857894320
C           40.20289627875984       49.98076949552072       30.79336918334614
C           38.98310914831616       49.33059740241544       30.87366386761471
C           38.59517265622515       48.71243664411905       32.04970124418676
C           39.43680357696076       48.75046583897679       33.14786014558563
C           40.65736526707832       49.39309755577378       33.05954069002495
C           42.13568998750366       52.17701869009527       32.43581065305091
C           42.65258104645464       52.32473714022694       33.87475064196038
C           44.15412572378359       52.45840458640074       33.88982846150697
C           44.94511225242628       51.48671237637311       34.48801678501943
C           46.32486263570687       51.59455508014780       34.49537626275921
C           46.93824483393492       52.67063247712816       33.87823532778039
C           46.16145169526166       53.65108079829213       33.28027114831144
C           44.78107784655789       53.55116132700560       33.29831387688006
C           41.97523231708148       53.50555571987511       34.59637373804632
C           40.80903831296760       53.04981191882672       35.49556512942926
C           39.95122811940985       54.24341412627965       35.83524607877671
C           38.79280329848068       54.48504670296989       35.10611215848711
C           37.98942171296056       55.57691667978612       35.38288280927864
C           38.32873579987098       56.44760896675093       36.40360823109398
C           39.48243716073741       56.22373313194966       37.13478002717510
C           40.28787130484391       55.13632113333823       36.84648292768242
C           41.35784369419688       52.34709235808274       36.74195173538062
C           40.28911564072533       51.96220389078505       37.77649526886313
C           39.49742454641006       50.76146985011086       37.32752519037623
C           40.03044349364544       49.47726665958399       37.35999285157847
C           39.26903587576543       48.38656235384506       36.98207423289040
C           37.96995176926691       48.56258578294374       36.53817954200668
C           37.43422542332309       49.83725954200439       36.48267492927467
C           38.19171352734913       50.92381353750810       36.88159341352716
C           40.97106574780499       51.72684218348746       39.13117655966224
C           40.01181143866685       51.22431567424896       40.21471894299340
C           38.75802155113877       52.05899075756646       40.28781432101218
C           37.50915443984488       51.45169604184714       40.27343203391466
C           36.35198646814501       52.20933197207626       40.33986469183259
C           36.42784953642782       53.58936401903687       40.40840127217830
C           37.66638083469579       54.20682165369674       40.42239960849794
C           38.81791443015891       53.44573707484047       40.37002701428980
C           40.69195250603955       51.20254142778430       41.59449848312933
C           42.01474752087543       50.41824075720884       41.63472067423718
C           41.89611183521736       49.06499677986645       40.98284441496988
C           40.83881958841364       48.21298003719780       41.27700269229810
C           40.72826568649484       46.98332148409949       40.65575544856872