3795
 energy: -5103.690084075165 gnorm: 0.000873486566 xtb: 6.6.1 (8d0f1dd)
C          116.86367826476341      124.71814406451259      117.30689561944681
C          116.97079875758656      126.19643241565761      117.53837841759923
C          118.10071553545318      123.92145294644074      117.74068939032625
C          119.24118498871289      123.97293039604385      116.72395601082502
H          118.43750414602785      124.27488270572204      118.71583959379349
H          117.80136506010577      122.87801508115314      117.84341667636915
C          119.95176557498854      125.32499672778749      116.60159215975202
H          119.98262499089762      123.22160349192627      116.99495535033682
H          118.83932395097195      123.70734196297337      115.74475301434052
C          120.86573337618515      125.66297785606429      117.76327548773105
H          120.59062000938744      125.29992338558272      115.71810352520268
H          119.22480068603350      126.12630883997505      116.48143913197377
N          120.27200484687388      126.22079291145644      118.81891390128052
O          116.58635120612018      126.93301821288466      116.52827329416581
O          117.38901871265976      126.66882804266669      118.58686075285659
H          116.63379348510742      127.91985437492937      116.72991070974153
H          116.63019792282617      124.53019739263725      116.25953545521810
H          116.00636751036389      124.41160692689729      117.91332861579743
C          120.99719419409574      126.78849128398410      119.93855946374970
H          119.27790599214103      126.40381810369995      118.80095059515354
C          120.01191204280288      127.43931948824593      120.89829764598309
H          121.55907127687689      126.00292666332402      120.45405344478615
H          121.71536774721559      127.52240885728264      119.55645543254676
C          120.69500588102538      128.29312913276721      121.96351941137895
H          119.32281863995260      128.06959709688223      120.33295981010190
H          119.43742712493393      126.64772238649539      121.38107631401347
C          121.15562025734661      129.64729318887052      121.42449393678763
H          119.98768671930816      128.46989938975992      122.77381005071196
H          121.53741049888248      127.74251746338280      122.38233434961046
C          121.68465535103681      130.53513191144438      122.54694100137759
H          121.93918750904719      129.51486277799555      120.67737373129698
H          120.31240192159305      130.14428058719869      120.93888349006681
C          122.05659454856851      131.93740597922647      122.08137896103658
H          120.93090532064018      130.62012809175215      123.33095928216088
H          122.57257992479902      130.07011528807971      122.97560254816408
N          123.24223546741609      131.90973690844734      121.25046108622008
H          121.24974447492022      132.39639014955310      121.50198126336889
H          122.24249416095878      132.57965998329209      122.95255420164099
C          123.51914660940022      132.83427795686219      120.32780162987210
H          123.87806184951911      131.13290087447618      121.39159414856292
O          122.07600843535390      125.44903178686017      117.71863166038681
C          124.83563783886160      132.61984762576543      119.59782490628909
C          124.58700069057456      132.09778412290913      118.18022551419959
H          125.35228350742734      133.57927446026338      119.54476806876494
H          125.44990036566534      131.90987138738788      120.15086160042524
C          123.84909431816590      130.76249712425835      118.20274401395703
H          124.00432887110422      132.83669574784031      117.62545980624459
H          125.54612551603215      131.97060633531788      117.67322843716047
C          123.81534160270628      130.10851163071860      116.81769268527019
H          124.34370134877348      130.09778070353812      118.91280157842249
H          122.82641517798011      130.91911207221918      118.55601656917879
C          123.04814149808712      128.80713956555266      116.90393928305301
H          123.30476971432164      130.77173961380311      116.11526978427250
H          124.83227527142408      129.93959006890827      116.46370781199009
N          123.69346152487910      127.72575952100819      117.32560843932932
C          125.07648771979609      127.58340860150824      117.72549379915007
H          123.12907211424864      126.87996834656487      117.45103923718847
O          122.77396872017545      133.77965853383873      120.07531719954640
C          125.41219144801480      126.09654684904427      117.76827836266935
H          125.72798309713552      128.11088145803478      117.02373873227847
H          125.22891359638078      128.02052556945904      118.72101459654833
C          126.84361392096940      125.81353431889202      118.21689610498947
H          124.71520711677077      125.61120778249759      118.45158200564248
H          125.25277172584494      125.67101291196894      116.77842478674984
C          127.86693103035709      125.97976533094885      117.09403959026469
H          127.10346989056116      126.47083397159983      119.05043583785232
H          126.89239765645665      124.78347333339876      118.57417912200093
C          129.26878259004852      125.63265953771237      117.58792955526498
H          127.60419578481249      125.30501787646595      116.27638494889165
H          127.84505538656076      127.00125472351854      116.71052779927092
C          130.29164339728879      125.47327362227426      116.45910602452039
N          130.59925700549059      126.73256701118555      115.82017030712319
H          131.22392517630067      125.07642129504754      116.87313334459850
H          129.90556584766193      124.78308353547818      115.70659425337108
C          131.54684283094869      127.56621160872351      116.25742077822898
H          130.00695449189760      127.05625672389847      115.06148670823319
O          121.84642223627834      128.74981014865244      116.61565026906051
C          131.48697068310082      128.93698235084477      115.61763723027693
C          130.23754672254017      129.66780622150148      116.11910790994821
H          132.38707063805379      129.49666984367508      115.87309524760863
H          131.42122995672622      128.81848334357954      114.53617504689493
C          130.03973101183814      131.01418172971285      115.42976390491083
H          129.36051993410254      129.04953023204735      115.92144332155009
H          130.30858441847059      129.81361958041018      117.19984762295739
C          128.66572211163387      131.61151634581316      115.76932403680323
H          130.82167347316172      131.70916467650935      115.74001555545249
H          130.12312229142350      130.86730750331336      114.35117175092323
C          127.56251926016553      130.86604347745927      115.04727293948457
H          128.49333002193927      131.51651392192124      116.84280839812838
H          128.63395715761050      132.66636856724324      115.50138415364867
N          127.24507787745985      131.29443605396094      113.81873383620031
C          127.81057380690979      132.39634946425150      113.06675514789576
H          126.49616229265506      130.79136615274768      113.36172530229373
H          129.62363796640301      126.39840628143574      118.28056211161289
H          129.21589467210660      124.68675282156364      118.12767808528672
O          132.37950350080834      127.26348428227887      117.11224366432872
O          126.96998159856615      129.91035479412776      115.54390150631654
C          127.33568371653921      132.34938395586096      111.61594102438490
H          127.49643953060543      133.34724938462253      113.51469186741410
H          128.90023582348593      132.34607853920394      113.10320551280203
C          127.77877578058977      131.09403028347651      110.86178128725490
H          126.24538554778373      132.40464152698584      111.60389123235903
H          127.71940258329185      133.23261424781512      111.10398412639675
C          129.27540515110294      131.06701399007889      110.55727679488234
H          127.51060339093195      130.20329590873962      111.42945308000276
H          127.23634360342851      131.05486741535250      109.91525882788599
C          129.68796723062732      129.83509132448071      109.74673434699174
H          129.53236097540898      131.96473361680495      109.99160088369619
H          129.84940433730966      131.08286106153417      111.48489370399122
C          129.92833962962121      128.58632702263714      110.59449823740492
H          128.92366895161268      129.61239447540279      109.00008589892850
H          130.61899971722724      130.04675474050950      109.21893208339091
N          128.72660806982915      128.09402536766891      111.22781849099073
H          130.34162603434612      127.79803734638507      109.95156765560641
H          130.65001069847989      128.79349501490663      111.38949714256400
C          128.66071195568986      127.72113403912553      112.50766376930005
H          127.92363887252471      127.91978193660586      110.63065949621887
C          127.33179783963067      127.12735723013517      112.92636731582920
C          127.49565454727765      125.61394159911769      113.09495796083006
H          127.03812822208306      127.57180304691995      113.88043367354597
H          126.57640384909077      127.33711973683852      112.17049514535897
C          127.90059941264401      124.92312337605084      111.79365825897136
H          128.25295505652659      125.42709819417138      113.85908470949764
H          126.55572944193307      125.18595174114481      113.44368551522199
C          128.01211437534511      123.40162821628316      111.96592465934697
H          127.16783826358451      125.15077864206170      111.01867150947689
H          128.86472747182555      125.31085151025107      111.45680485858782
C          129.00715300371436      123.12395053323000      113.06927510233096
H          127.04354819018566      122.98012347588728      112.23536102505388
H          128.35938176056177      122.95445365776328      111.03505470925415
N          130.28662815302755      123.26222487280600      112.70227116859765
C          131.35487194640888      123.32840120462743      113.67635623257364
H          130.50417673257979      123.42926851810203      111.72680723525178
O          129.60372712710799      127.82601830450292      113.29317291847065
C          132.65762469053732      122.70264397273495      113.19276050036817
H          131.52740561488122      124.37946242329144      113.93712353934713
H          130.99692944299369      122.80286202542916      114.56610544322567
C          133.60056327482005      122.41535451158900      114.36239437886573
H          132.43301244545151      121.77083308607722      112.67015419251035
H          133.14473959534445      123.37379415351921      112.48439001577049
C          133.97796453157702      123.66286861983124      115.16187311654666
H          133.12789792553386      121.69598109546968      115.03530079452327
H          134.51168654932442      121.95575351801541      113.97471215023535
C          134.92399389006349      123.30443677324516      116.30391711011379
H          134.45415382858747      124.39157149150350      114.50304953799153
H          133.08250821840753      124.12360797499298      115.57918379865190
C          135.29454049755265      124.50075248154634      117.18470024559093
H          134.45889020157819      122.54143863283616      116.92768995387702
H          135.84799634602530      122.89027031397227      115.89739137015954
N          134.18496428747753      125.05071659118073      117.94240353988430
H          136.05216300670853      124.17696299269443      117.90570085180325
H          135.70775169168527      125.30311853017656      116.57236319048596
O          128.67084560179117      122.85369622452862      114.22016527739051
C          133.79129467853645      124.54496326507473      119.11596514280787
H          133.72801415891422      125.88720475967619      117.59815468639783
C          132.81185670865989      125.40507615764120      119.89314285892198
C          131.60669224854308      124.60496754197305      120.38536243631128
H          133.35917078326483      125.79367608219285      120.75637684834609
H          132.49079057388613      126.24701177604800      119.28095515257647
C          130.77036012030581      125.37363067241726      121.40577306669547
H          130.98506250790538      124.35041611610160      119.52650441301195
H          131.95902817181349      123.67845640371748      120.84412772981968
C          129.44123350359138      124.65713293261328      121.67751313613545
H          131.33409502514979      125.46255218028271      122.33714882262053
H          130.57155857311866      126.38307283617810      121.03988872102668
C          128.79273318057935      125.22159951808531      122.92593902884823
H          128.77292389610741      124.80358815436963      120.82824862699144
H          129.62756541355279      123.59365006563611      121.82166160172440
N          128.97760737126418      124.48623551725916      124.01979440830733
O          134.21452138369446      123.47482825376582      119.55326645272304
C          128.57814129811322      124.88589822355516      125.35280690919991
H          129.54790438854872      123.64584023009553      123.95572366942621
C          128.33133911893242      123.66205571430355      126.23262407242974
H          129.37374105084689      125.49815524841961      125.79682746337963
H          127.68641553588655      125.51139835190178      125.27206091938933
C          126.96876431435770      122.99890529247996      126.02045670818249
H          129.12476198174528      122.94022037094066      126.02762335140412
H          128.41832426627388      123.96153072518258      127.27796675876397
C          125.81393543085311      123.85425286298478      126.55225196529165
H          126.82747954594643      122.78604653436027      124.96040474798745
H          126.97168190738971      122.04878240876346      126.55781684366062
C          124.58697851508892      123.03626663326578      126.95328809096635
H          126.15673529213491      124.39013375971994      127.43945332560595
H          125.52042681684031      124.59910528268763      125.81116044468489
C          123.85912724162839      122.40350507447090      125.76979643512294
H          124.88404761141845      122.25276312321984      127.65267928001286
H          123.88287950407729      123.68459429160299      127.47808376991202
N          122.60002484280743      121.85185172155006      126.22575485727981
H          123.67452669000880      123.16692903389412      125.00183470111361
H          124.46992171783778      121.61049064042760      125.33164337034547
C          121.81375866044634      120.97980711550993      125.59519614799387
H          122.23630672710152      122.25955280908518      127.08848986038345
O          128.15707248944506      126.27791959145947      122.92098383349219
C          122.32022739531347      120.41428083504948      124.28422813019870
C          121.23281814657012      119.69101735744428      123.48868853435245
H          122.74045781090997      121.22747147046660      123.69064327040253
H          123.13465946358720      119.72009876698463      124.51157466125674
C          121.83641398218121      118.86446155957238      122.35753676558366
H          120.66002835092245      119.04297545697695      124.14873096994197
H          120.53461698521436      120.42611969877485      123.08324241504747
C          120.77833823046117      118.36834682516741      121.36809987489342
H          122.56293920726458      119.47642059400448      121.81958160846497
H          122.37817291454189      118.01178439957215      122.77043265842337
C          119.89884613900010      117.27436847073484      121.94330572550417
H          120.15335246813287      119.20288012308130      121.05204153435871
H          121.28815715340609      117.93777153563997      120.50446363709126
N          118.65859679266482      117.65931821636840      122.25826248465333
C          117.61377280943876      116.73835910114434      122.65674571267270
H          118.38451543020898      118.63079643009227      122.13658945873448
O          120.73446002059099      120.63476449410575      126.08521583557427
C          116.26850036154661      117.15876959724544      122.07100422601464
H          117.90014006542310      115.74384251698625      122.30188419652266
H          117.53180283013762      116.69485104029457      123.75043662484286
C          116.30175804720299      117.29101250560531      120.54968630645455
H          115.51500176844620      116.43479689209775      122.38224411796971
H          115.98547970301654      118.12041803517579      122.50249202729511
C          115.01799491788576      117.90127545237465      119.99073147578386
H          117.13480886406590      117.94289713380894      120.28149475472063
H          116.47529190362589      116.31555565423665      120.09151908046785
C          113.83557495158961      116.93661255146486      119.97345434408757
H          114.75680701258344      118.77651575569283      120.58775888248721
H          115.19961500589967      118.23454871873238      118.96766285540428
C          112.64251381313439      117.56769289126765      119.26816270010015
H          114.11755350866630      116.02382769915477      119.44468668873625
H          113.54947947887685      116.66085151985313      120.98975695779255
N          111.54401310548076      116.63713037912184      119.12122887873862
H          112.27432519905865      118.43438306117673      119.82460615895242
H          112.93277349486901      117.90590733409663      118.26556697585656
C          110.27497910406973      117.00224026161736      119.25100083483022
H          111.77070096814532      115.65156787937705      119.11143017104439
O          120.29791460638403      116.11805891134935      122.08078583346010
C          109.23900876186455      115.93123334677684      118.96957222911885
C          108.71939090100929      115.31044519415764      120.26878746724834
H          108.41087854139899      116.40701268351862      118.44014327611256
H          109.66684526030981      115.15785127017547      118.33434258495163
C          107.41902753014071      114.54033984627414      120.05040856712324
H          109.48709812079353      114.64788408195639      120.66989904271483
H          108.54539789685694      116.10270493509375      121.00032621183846
C          106.99700276947435      113.78354241665527      121.31161807173923
H          106.62610341602210      115.23939314939315      119.77153454866563
H          107.53433147789909      113.83350429994013      119.22751866072015
C          105.56192900138680      113.30176972573609      121.20613264638281
H          107.65419789409847      112.92313542987451      121.45410924151868
H          107.08941332531552      114.42058076118165      122.18991536167043
N          104.82381334072831      113.50928889556401      122.29782943035796
O          109.94042568769417      118.15426214343192      119.54475436990489
C          103.39449689900869      113.29977693613955      122.35050923263708
H          105.24967382261570      113.95031512509374      123.10512116682314
C          102.67387061195595      114.56812574367858      122.81524939446651
H          103.07113651263326      113.00528709965083      121.35007943359000
H          103.16678528979836      112.48219331811129      123.04282643513608
C          103.02450797461420      115.81343883086255      121.99785135976038
H          101.59908028116389      114.38995571655514      122.77237023351735
H          102.94723436248562      114.75354361095921      123.85598288876568
C          102.55764922254032      115.74600433169408      120.54453596842184
H          102.56937646230870      116.67552633854339      122.48647945732871
H          104.10733286901774      115.95539426743790      122.01305933066212
C          102.97434596883512      116.97293427667543      119.73195820680819
H          102.99843601898394      114.86849166779410      120.06882804937914
H          101.47212524053282      115.63914038826728      120.50917631132918
C          102.21077234865739      118.24542677951388      120.10805872876030
H          104.04252378385955      117.15423644460269      119.87680650957743
H          102.80922645547943      116.77373427887014      118.67079391966730
N          102.71351227494574      119.37150618520877      119.35186516758257
H          101.14920302875313      118.13894657996312      119.87707077532006
H          102.32769624662438      118.46192279256302      121.17325444342850
C          102.00474879095671      120.05524802280380      118.45495852619153
H          103.69330918782333      119.59879131389378      119.50648916355659
O          105.11781346016465      112.76605073520638      120.19167576454713
C          102.79088990307909      121.10061392712721      117.68207486284858
C          103.36879388861142      122.19758790830839      118.57922787567327
H          103.60283548257003      120.59094606469316      117.15609555639131
H          102.11679593762004      121.52939511532018      116.93926852498055
C          104.32150074423562      123.12941568159026      117.83085276787804
H          102.55564368302284      122.78333978524621      119.01075069915935
H          103.92114309166926      121.73758763803458      119.39730605806996
C          103.63428717439882      123.90953423482719      116.71756411098171
H          104.74587801360396      123.83471189428923      118.54824144804665
H          105.14148681998351      122.55040157128474      117.39829301978233
C          104.57798820293273      124.77056020107183      115.89879386414158
H          103.19330777837671      123.20919767099635      116.00282774208056
H          102.83046515342930      124.52929431392550      117.11564612863177
N          103.96749639937113      125.78493036143917      115.28216680737114
C          104.60201811227996      126.60029903351165      114.26598021379326
H          102.98905250200397      125.96746402294374      115.50575269798988
O          100.80592880347940      119.86306442700482      118.24562711159658
C          103.80099595110350      127.86587444225526      113.98760558781431
H          105.60771996787258      126.86094575203845      114.60891906399549
H          104.70890074283916      126.00059306581447      113.35354509501209
C          104.44713433141507      128.74037347531058      112.91232642822692
H          102.79123363909446      127.59720899163904      113.67008446960267
H          103.71304048724807      128.43435518601015      114.91560513627934
C          104.44825496037112      128.08819109837455      111.52990298522754
H          103.89386772182721      129.67920186390904      112.85609627415495
H          105.47298318584900      128.97288452498833      113.20360893571998
C          105.00256889631842      129.03673141507105      110.46568505754894
H          105.06211444611085      127.18597751804799      111.54936129270023
H          103.42925014293093      127.79480865980925      111.27033896873222
C          105.31029380207831      128.32496051933461      109.15606496898937
H          104.29215206250716      129.84418470323746      110.28411083223662
H          105.92938266905276      129.48303927348132      110.83031112592393
N          104.10479544261150      127.86529358776379      108.49262796169940
H          105.84012012750769      128.99269310397185      108.46838872250565
H          105.96302560379547      127.46287993820410      109.34080213058357
C          104.14515594989524      127.29667367992465      107.27855329860402
H          103.23745252141198      127.89873301946855      109.01048164299084
O          105.77772649339329      124.52755067646147      115.76976773931176
C          102.78077747856321      126.87191814711562      106.76008186836272
C          102.85195809837857      126.06771305344685      105.46236864021952
H          102.30289017858257      126.28171164725211      107.54163642533665
H          102.17624686878598      127.77048210714962      106.62108801700279
C          101.63635368058513      125.15414332412600      105.30371794669583
H          102.91343299741577      126.75277520997849      104.61678181447368
H          103.76513369282721      125.46946940219726      105.46142379795950
C          101.77189904773145      123.88663193827281      106.16056662254269
H          100.73950538003497      125.70489595954228      105.59745891945434
H          101.52614796754003      124.86295418497339      104.25903652104913
C          100.42093579043626      123.27927505983159      106.46938179973817
H          102.38140754953132      123.15615126352942      105.62378784521496
H          102.26856928680800      124.11766025917372      107.10362149541611
N           99.70867842114431      122.92831575675108      105.40747345323290
O          105.18570582666129      127.13764974387425      106.65442533943606
C           98.32939536854072      122.49514218181771      105.46486500149481
H          100.13176235453247      123.00365482586233      104.48248321475297
C           97.53235666294883      123.10750910716949      104.31560038081942
H           98.27817287531829      121.40207910018469      105.40112802217234
H           97.92964850183687      122.79988464692326      106.43433642547602
C           97.54635193434255      124.63738839454730      104.30701894538009
H           97.96347899892875      122.76078614480680      103.37424396099816
H           96.50871129410608      122.73891443007717      104.36723037088233
C           96.91916711447158      125.29746508497635      105.53691876374351
H           98.58143268331385      124.97646015932501      104.22792355915469
H           97.02681252458775      124.98116175911562      103.41214234499260
C           95.44953328359000      124.94873829649019      105.77568929963300
H           97.49248678440847      125.02631399115080      106.42566911990266
H           97.00334548648206      126.38043130589824      105.41705594673584
C           94.53240495951835      125.36194477985124      104.61596172987583
H           95.34132241890627      123.87733524665019      105.95733269425499
H           95.11706387540617      125.46944454332677      106.67908715091144
N           93.11052952802227      125.19770472746990      104.87920317045266
H           94.70154855264400      126.41576930522797      104.37557775090464
H           94.76181041069697      124.77102894612865      103.72650083297765
H           92.91321924149487      124.22732958832427      105.09913646756348
H           92.84382334183270      125.75038849119150      105.68698660867437
O          100.01614614781408      123.13357306226371      107.63168026393816
C          101.72654369855218      113.66432610090826      116.63459507362042
C          102.18289975863078      114.73110949410155      115.66468339306894
C          102.70582351220564      112.48599588295394      116.57626529668485
C          104.07321723538557      112.87381286340165      117.13555694494731
H          102.29822435733497      111.64242314000920      117.13415925532092
H          102.81037501783399      112.18188153438511      115.53295315111373
C          105.15981347364843      111.85333605208675      116.78930935003760
H          104.36884336494904      113.83661498774325      116.71496156933620
H          104.01108491382149      112.99849935163029      118.21591028240869
C          104.84124396094040      110.44955110800693      117.27788953208724
H          105.30008803360957      111.81541835772224      115.70835608151380
H          106.09473968236507      112.16551986112341      117.25811028695207
N          104.68711055116063      110.36822520319075      118.59765935347407
O          102.45725305106400      115.88196651749668      116.24699825755850
O          102.32338693145432      114.53667883865820      114.47472733707443
H          102.83871636426915      116.54691900277724      115.59632464836453
H          100.73347662245577      113.33101286757027      116.33156207793907
H          101.68169590725877      114.08990656336688      117.63578117867017
C          104.41582479553399      109.15746829039385      119.34033244440542
H          104.79025802066772      111.21370698060851      119.15033890205605
C          105.16710896041199      109.19548579358312      120.66921135655051
H          103.33804976161221      109.07315475299012      119.52505603970712
H          104.72547359299553      108.30787715414486      118.72628701222700
C          106.68059796616789      109.09901694960018      120.47445596971446
H          104.92631339403444      110.13923086678111      121.16358654901347
H          104.81627321379136      108.38309145777097      121.30531990663994
C          107.45019175845756      109.63087899133792      121.68312673250294
H          106.96010600945837      108.06139798968499      120.28558561907923
H          106.96004806031559      109.68430272850057      119.59647665569585
C          108.95747234685292      109.40996813806979      121.52767726376806
H          107.24462597049906      110.69827458358969      121.78448425401447
H          107.08453558374116      109.14075038728392      122.58668241498448
C          109.81111220184231      110.36954511685479      122.34540706315491
H          109.21308026531193      108.38293451184767      121.79300630590319
H          109.23290048894752      109.55244146346155      120.48194455121562
N          109.56020298116958      110.25097947580075      123.76978002593385
H          110.86994434808055      110.16400513681786      122.15045536363913
H          109.62053061304972      111.40824928085220      122.05338921253822