3258
 energy: -3427.482362716164 gnorm: 0.000986987669 xtb: 6.6.1 (8d0f1dd)
C          110.35229346038511      107.89383476899987       97.28015161575983
C          109.95400878036284      107.28444677760129       98.61851451840752
C          109.90869808535918      108.32865472573651       99.73108058636727
C          109.55816218604357      107.72196435660088      101.08793009240931
C          109.64754119204444      108.74848419065573      102.21575923970047
C          109.33462365856397      108.17431959418465      103.59994297499473
C          107.86397826428009      107.82739262090772      103.81405633926084
C          107.58026871227743      107.34460577096679      105.23510579071286
C          106.08955689852209      107.08920887288116      105.44598160151766
C          105.77923497987432      106.36006634269360      106.75084039835872
C          104.29522889859318      106.01164840440164      106.84779569600174
C          103.96246941936542      105.18242270508549      108.08634454965623
C          102.56895347994769      104.55488151826833      108.02137433283366
C          101.40294994448220      105.52339642777186      108.22813296639480
C          101.24880254148042      105.97630408650954      109.67786314818059
C           99.94129014526177      106.72562444607894      109.93814681119842
C           99.85588997057518      107.18847019408742      111.39165388489901
C           98.48748411096570      107.73328156335899      111.79743728143868
C           98.49963565074994      108.16379206545753      113.26527299234337
C           97.11782317967057      108.42573326858350      113.86377345042314
C           96.38458914734345      109.63923929756848      113.29260583989249
C           97.02237483300092      110.97457149557592      113.67806947993812
C           96.13790123347894      112.17605899929822      113.33569866231586
C           95.99136794386276      112.39350473756051      111.83177094608523
C           94.94642667889362      113.44958051138545      111.47688979838132
C           94.77779260197633      113.54604365917731      109.96151257499902
C           93.54010985502502      114.33009916961970      109.53131706063758
C           93.46073171966320      114.52306305923854      108.01441090042447
C           93.35113624378067      113.21090888284517      107.23832925022367
C           93.19512750539403      113.39559381977702      105.72725485872758
C           94.39155172951844      114.09784449369893      105.08807315093921
C           94.40793274687697      113.99130522574936      103.56526376619593
C           95.53057205620482      114.83641645334070      102.96683840845860
C           95.63668007490958      114.68300956067181      101.45150977312265
C           96.65032812042905      115.64448663944577      100.82693939322981
C           96.12341046414879      117.07472985641236      100.71845853912598
C           97.16891539580583      118.01953095150698      100.13144904155831
C           96.62712746128624      119.41517428710522       99.81868878480294
C           96.10207366043100      120.19687703391313      101.02446025434395
C           97.14265591800155      120.40359131546666      102.12368571650934
C           96.65751494025893      121.40608082759668      103.16943851777853
C           97.63497808202476      121.61000441964424      104.32900966180617
C           97.74680625232165      120.37619916482603      105.22224533165313
C           98.57338025727603      120.59820512652051      106.48914510816121
C           97.89050170741216      121.51220278646794      107.50587418444475
C           98.56728277613112      121.45359965562493      108.87396755876389
C           98.00819756938610      122.50572280626378      109.82937099151493
C           98.77097729474720      122.60643353951420      111.15120457200121
C           98.58991153228308      121.38880798429975      112.05533223061060
C           99.17912784028489      121.58891634017901      113.45406794715959
C          100.70622806680912      121.56545056473473      113.48247010697443
C          101.26798115844957      121.83005984150529      114.88037115936011
C          102.77791766480699      121.60102171720875      114.92900725399562
C          103.38985403585103      121.90411213142346      116.29493132089924
C          104.84251314780651      121.43523144578390      116.41884737280003
C          105.80921888800987      122.18295852818906      115.49983758757999
C          107.27838477460720      121.82688770059021      115.74822378837540
C          107.66111663685228      120.43669585149257      115.24457168425896
C          109.10747329164219      120.06742212462268      115.57199251191963
C          109.48621819380470      118.70508089645512      114.99225283470980
C          110.85972121569958      118.22126039152370      115.45339901053666
C          111.25688644655983      116.91043954928168      114.77789038323670
C          112.61192721041499      116.38720912917969      115.24990385229712
C          112.98588447262405      115.08494053520806      114.54583617542470
C          114.30884998237060      114.49951786697213      115.03495176523576
C          114.62258947102902      113.17818882376835      114.33646139895279
C          115.88949751005967      112.50896059871498      114.86330406351179
C          116.14137732977925      111.16861420722147      114.17545219850423
C          117.39838108029103      110.47067349134885      114.68756345337414
C          117.64130701469429      109.13390792310818      113.99129807323747
C          118.87747468157960      108.41944781910003      114.53188631599517
C          119.16384904333279      107.11216064671925      113.79524195879115
C          120.40858496621806      106.41593024207275      114.33884695407941
C          120.74992157988140      105.12426360288767      113.59934536856456
C          122.05328151775485      104.52710539125376      114.12661210239465
C          122.38956821833840      103.15041918557098      113.55528209818787
C          122.74003651953082      103.15723522676694      112.06863089220056
C          123.26998979569984      101.79382749012943      111.62548915657908
C          123.49248133742945      101.67466680555788      110.11690039446201
C          122.18977438917645      101.55868245643215      109.32852018269413
C          122.44022961093343      101.37809294254535      107.83449245612304
C          121.15523698963420      101.25148072243779      107.01558549337545
C          120.34574970943980      102.54496770619910      106.96001395353933
C          119.13314515928359      102.42757235169748      106.03625077910552
C          118.08725198208610      103.51076153143049      106.29177856852633
C          118.50083681614140      104.91363631501612      105.85314527376266
C          117.52468695164090      105.95301578065374      106.39909402479140
C          117.77553863566989      107.35928522070122      105.86460112275067
C          116.86159443975832      108.38178641236428      106.53558067623356
C          117.00932657791886      109.78016795247366      105.94327501667470
C          116.12293628280952      110.80025910808628      106.65405608831102
C          116.25522622925349      112.19564127480929      106.04983789089852
C          115.42557295787496      113.24260294398036      106.79121982441657
C          115.58434458527414      114.62138187568368      106.15462593740727
C          114.80551557299249      115.73510084937612      106.85602696994717
C          115.36763747629463      116.10579658686368      108.22695345253713
C          114.68759620356393      117.34267283804913      108.81351841016378
C          115.16554024575362      117.62718150171449      110.23520419833281
C          114.44437616890082      118.80202251439339      110.89076029649243
C          114.79531823621460      118.92962795196742      112.37281479797906
C          113.96147502553148      119.99955202626481      113.07163951010607
C          114.36199372511079      120.20429168434841      114.53202281265375
C          113.50039471338977      121.27145982532711      115.20173530419987
C          113.79836643618957      121.44738367834482      116.68803583221681
C          112.82883406719326      122.41809131492685      117.36588590870095
C          112.93745396670033      123.84891540816919      116.84094778477316
C          111.97466003262646      124.79540217977612      117.55528093887004
C          112.08962693337836      126.24370087192511      117.07498938168827
C          111.63437554464279      126.43039413948075      115.62856901484361
C          111.52588169551399      127.89816426474127      115.20957183713786
C          112.84194663514367      128.67934814869426      115.23259606352710
C          113.91447391848888      128.07161279401498      114.33248007899964
C          115.14519479540779      128.96498920639542      114.18615000927390
C          116.23061171813762      128.26419225534480      113.37193258432663
C          117.46833080478353      129.12721608609553      113.13876835303492
C          118.62294527674584      128.33602097102067      112.51910511055559
C          118.34883702356622      127.90131313926901      111.08046739297913
C          119.46828989666272      127.04823570913915      110.48110910569177
C          119.49735198537873      125.62823528436276      111.04276090626297
C          120.53676455053805      124.75765296300752      110.34754749056731
H          119.71545871165549      125.65723493169649      112.11151645726055
H          118.50972615709726      125.17946727597680      110.91829508205470
H          119.32208868135822      126.98845559399251      109.39911084270712
H          120.43254110380713      127.53139277087418      110.65530660999003
H          117.42178870499299      127.32944297069830      111.04046907603643
H          118.21228810549790      128.79534914474800      110.46713294537876
H          119.52493301057190      128.95303465061545      112.53315792232149
H          118.81420555631333      127.45788134678644      113.13858446670359
H          117.21267837403485      129.96990216655922      112.49251103012440
H          117.79921239206456      129.53485907773958      114.09745536739378
H          116.53317667613126      127.35485753577952      113.89691108525081
H          115.80468390759496      127.96938024965742      112.41175815199992
H          114.86295914136488      129.89893385628895      113.69486539079864
H          115.53399419051181      129.21598343457154      115.17601823560757
H          114.22956514281590      127.11091294707559      114.74464859269636
H          113.48973416108441      127.88954991660081      113.34173069015323
H          112.63677800041238      129.69986976932853      114.89897758639327
H          113.21756830702299      128.74114153414661      116.25541755920324
H          111.11874978246188      127.93746506388017      114.19502163404151
H          110.81289513651680      128.40279320279697      115.86715204085532
H          112.31790066386145      125.91400378336459      114.95457701027020
H          110.65011610792087      125.96904216219259      115.51213802019181
H          111.47261060728975      126.87522204296867      117.71943907321337
H          113.12521311991841      126.57108140718887      117.18278835611211
H          110.94985330959450      124.44676141621746      117.40273411736763
H          112.17653416674382      124.76322909689728      118.62912310832843
H          113.96163509810195      124.20594150960984      116.97503514867677
H          112.71371945147051      123.85920537575147      115.77474998923704
H          111.80685494286470      122.06005492125240      117.21469391993526
H          113.02329762442928      122.41771989656077      118.44143244399787
H          113.72659129161843      120.47582801515124      117.18337055383360
H          114.82277225260749      121.80508593000532      116.81557917587567
H          113.66547019565844      122.22032444635921      114.69118479822474
H          112.44513030473934      121.01180498838862      115.08239500251942
H          114.25759543557623      119.26158618540003      115.07411619662263
H          115.41284343739089      120.49720390808504      114.58554150058427
H          114.06446350602693      120.94344929645959      112.53300489464451
H          112.90810585973645      119.71062858057411      113.02890691423303
H          114.62449428308386      117.96913179388211      112.86570973763895
H          115.85674398616932      119.16737392488703      112.47621987325589
H          114.70491551259704      119.72730841772920      110.37249821237957
H          113.36597782957993      118.66246312680104      110.78892049844565
H          114.99978297826959      116.73297597793911      110.84323819348415
H          116.23893796554779      117.82778597790796      110.22037893987633
H          114.89054020560799      118.20917997056077      108.18063684156066
H          113.60652507595462      117.18772382824957      108.82240997125457
H          115.23054249866074      115.26817997474491      108.91310019872715
H          116.44158078439145      116.29093810448890      108.14364255934949
H          114.82800879979807      116.62248366246662      106.21767182609531
H          113.76102326941302      115.43302443492051      106.96616985372928
H          116.64408458851646      114.88350647216849      106.13660676912494
H          115.24763299996127      114.56323847466240      105.11552480986168
H          114.37257918139122      112.95194855196478      106.77078670785833
H          115.74472595264066      113.27763859646024      107.83373830347193
H          117.30663529072868      112.49601351041768      106.06441933802006
H          115.94028272054324      112.16326083274487      105.00337441385078
H          115.08115862596230      110.47737299356768      106.59127899581618
H          116.39826294738471      110.83691157685485      107.70986536384306
H          118.05357533649352      110.09623604546363      106.01594765806634
H          116.74760001694374      109.75090476643931      104.88290790578409
H          115.82352688400009      108.05708074211390      106.42993927489499
H          117.09194521489444      108.41848559908092      107.60302561096034
H          118.81862630739505      107.63474004363481      106.03942652805492
H          117.60547848339422      107.37176780728896      104.78600255953170
H          116.50463156449405      105.65263315195386      106.14796274983109
H          117.60380423756794      105.96975250830531      107.48952554979340
H          119.50417429460636      105.14040181244461      106.21681538655801
H          118.52182854654814      104.96343223534858      104.76272111940888
H          117.16516430252780      103.24152416327927      105.77326151684775
H          117.86405902947094      103.53138863387545      107.36163183497609
H          119.45352456270797      102.46508330800070      104.99346324264630
H          118.66411675105026      101.45461120534388      106.20100409594589
H          119.99860250982013      102.79426669116498      107.96460093459346
H          120.99301404379025      103.35674459221801      106.62286379670718
H          121.41608368197264      100.95555371036779      105.99623104441616
H          120.53569070272653      100.45388311857651      107.43509730354839
H          123.02260453574620      102.22226686519457      107.45975638235124
H          123.03813690535814      100.47666429092230      107.68726838216290
H          121.62537931876462      100.70000400692341      109.69594271315270
H          121.58723142565181      102.45172269387342      109.49149625759485
H          124.05621826511215      102.54175987789216      109.76600235901098
H          124.10096940701888      100.78857084507102      109.92092278052824
H          124.21589368514383      101.60528788966435      112.13896050464207
H          122.56905116649183      101.01891848003316      111.94568971980226
H          121.85285446809416      103.41478644793726      111.48886095148296
H          123.50148603746658      103.91779416000767      111.87705310747928
H          123.24360018757930      102.74990586279164      114.10839134270252
H          121.54512770030455      102.47799639606029      113.72030219881842
H          122.87451211076727      105.21604170994854      113.91267743424856
H          121.97492363733633      104.43789464022424      115.21371737827911
H          119.93918061046037      104.40284678640498      113.72578274729737
H          120.84454721339111      105.33390659464335      112.53197030353159
H          121.25842612678781      107.09700891636675      114.26040815949902
H          120.26295806250165      106.19304148960872      115.39844513917838
H          118.30157667579897      106.44743266264733      113.88490448746882
H          119.30294556205551      107.32212267553398      112.73184257259368
H          119.74347576656535      109.08132904607547      114.44167134705320
H          118.73375413799211      108.21017329117885      115.59551656252880
H          116.76714654592884      108.49303934510107      114.12365072427774
H          117.76342774239347      109.30341460981934      112.91930580011325
H          118.26298789520079      111.12063924158008      114.52755825794263
H          117.30606090954304      110.30521548642726      115.76349171653804
H          115.27942681340770      110.51743899009813      114.33705933627301
H          116.23085671779823      111.32914682797782      113.09908485715846
H          116.74636648199956      113.16909623496933      114.70463613498755
H          115.79388772605455      112.35255690900239      115.94087573682019
H          113.78134067869198      112.49432333429939      114.47381833402419
H          114.72832431994514      113.35571938026486      113.26426877206349
H          115.11586858376674      115.21074650976554      114.84869051693158
H          114.25630761832892      114.33851884772051      116.11465685347466
H          112.19247207826602      114.35156559046347      114.71209655486848
H          113.04783146725306      115.26410864744729      113.47003216421729
H          113.37915401945673      117.13946854313158      115.05215405726143
H          112.58427941003829      116.22308467860614      116.32958074782957
H          110.49318164575155      116.15506554536242      114.98049512381374
H          111.29472572446363      117.06378738606158      113.69691174359569
H          111.60802590013571      118.98124290958425      115.22487884768819
H          110.85233504189063      118.08494797655700      116.53686758985199
H          108.73223764415215      117.96888639322563      115.28052837310112
H          109.47938254801876      118.77163331560267      113.90230346739601
H          109.77822660213296      120.83218686872013      115.17198661618754
H          109.23960257536480      120.04998335070974      116.65594649705812
H          107.00206949338926      119.69143923014902      115.69167955411702
H          107.51543960733802      120.39669735572588      114.16296000045369
H          107.90942398906954      122.56612175630777      115.24692392423584
H          107.49123985002765      121.89294851197681      116.81729075874078
H          105.56595586029027      121.96973923037994      114.45736184599416
H          105.67807101356448      123.25629739835733      115.66023005884513
H          105.16442207778425      121.57556129228308      117.45395824390309
H          104.88392924448485      120.36537426635969      116.20459622994817
H          103.33250402260310      122.97771263042355      116.49052696042824
H          102.79675703199365      121.39742233470400      117.06164881721952
H          102.97940808302900      120.55652656985343      114.67895137330432
H          103.25442472420751      122.22889579514073      114.17363697390954
H          101.04400583413822      122.85803461312238      115.17598018612979
H          100.78051354301849      121.16675644168254      115.59831455663337
H          101.05292181551158      120.58791074060994      113.13774010278682
H          101.09968463254035      122.31533074388143      112.79408531277204
H           98.82141457758441      122.53762608574527      113.85849137155938
H           98.81070609699796      120.79506017310590      114.11003816749709
H           97.52078464403365      121.18378818459138      112.15493746980600
H           99.05153636082927      120.51599914684112      111.59084983514582
H           99.83104360171197      122.75378851432185      110.93560066001652
H           98.41658275057287      123.49098466755481      111.68426583418058
H           98.05205402604648      123.48033605636448      109.33522484552296
H           96.95566517680946      122.28942128076338      110.03023389463297
H           98.43758378316974      120.45640791998754      109.29874188525572
H           99.63978887526083      121.61663367723354      108.74793494466684
H           97.90907996912236      122.54228235983898      107.14367529346535
H           96.84378241052657      121.21957334271841      107.61323249223929
H           98.74961539176749      119.62619246938679      106.95645313152286
H           99.54817497711726      121.01374697327655      106.22320838094244
H           96.74116566455346      120.05875138397300      105.50932862594881
H           98.20084251316666      119.56309532608110      104.65236375064951
H           98.62062442821740      121.86925421701875      103.93473134634796
H           97.28624458686583      122.45374055383290      104.92742346856654
H           96.48542796040624      122.36756770122959      102.67772078129660
H           95.69708364554769      121.07053850819936      103.56944464966975
H           97.35501174415050      119.44890900827842      102.60445914323812
H           98.07210541333808      120.76895637713494      101.68054879015075
H           95.76603785368714      121.17488688355711      100.66906465026292
H           95.23112031176490      119.68975393073760      101.44399271336503
H           97.42360565058017      119.99654977817065       99.34890130679327
H           95.81738736575365      119.32090210001937       99.09051571780404
H           98.01153308265899      118.09612005831944      100.82080811653729
H           97.55121481746346      117.58910830537656       99.20212490318421
H           95.23506341270652      117.08011351943793      100.08213028934613
H           95.82793568423290      117.42990020656217      101.70592034704606
H           97.56774860006720      115.63893486194705      101.42094815553024
H           96.90745887293265      115.29105731667413       99.82539322723710
H           95.93006674313051      113.65529164296863      101.22452489856995
H           94.65685190019239      114.85217558779424      100.99885358289548
H           95.35404318575928      115.88315230012886      103.22104930892540
H           96.48145445271922      114.54485503926598      103.42020749356483
H           94.53903423295186      112.94736891067615      103.27083035569639
H           93.44898103598216      114.32897028090510      103.16502173510948
H           94.37377815324002      115.15498538294923      105.35671752565219
H           95.31515480996123      113.66680780909529      105.48091940843277
H           93.07957838542544      112.40794823200616      105.27273177117954
H           92.28517325715688      113.96210874019876      105.51628767708033
H           94.24463905331930      112.60939694347819      107.41281343678773
H           92.48998743226365      112.65151366143579      107.61270010385610
H           92.59199882786407      115.14456923710814      107.78253334603583
H           94.35153920514948      115.06251393147411      107.69253910275255
H           92.64289976839777      113.81161010889564      109.87926885176880
H           93.55755111635635      115.31377735841515      110.00775837321935
H           95.66795490443354      114.01011315768336      109.53218109878367
H           94.70925592295296      112.53157420558762      109.56499764861408
H           93.99352085715356      113.17236326137950      111.93280769879689
H           95.23690213981678      114.42040877821864      111.88514927137899
H           96.95772581384068      112.68212712751775      111.41024290000030
H           95.69493573684673      111.45416970762997      111.36191650703906
H           95.14848169003446      112.02918203575791      113.77661440515385
H           96.56498244867524      113.07559208832511      113.78689283403891
H           97.20911153106699      110.97458109394985      114.75511022466554
H           97.98553755344746      111.08552074838602      113.17606226396651
H           96.33505665426021      109.54668759969388      112.20705532743924
H           95.35859456581682      109.62513585467843      113.67183929275089
H           96.49962536948335      107.53873992395783      113.70903550238995
H           97.22579000527612      108.56053562730327      114.94358820583825
H           98.96479273666046      107.36295311904817      113.84696678615926
H           99.12387277793165      109.05081646911302      113.37725620645672
H           98.22540397188099      108.57740456070285      111.15659328858031
H           97.73368894791831      106.95609565836807      111.65295860594765
H          100.09637816173384      106.34256610691884      112.04116111587936
H          100.60986354916022      107.95980364061315      111.56498347856268
H           99.86874913235083      107.58705531389494      109.26991258090376
H           99.09833008841618      106.06616380347070      109.71843544145311
H          101.27806348925711      105.09399326110847      110.32195912040358
H          102.08817358868383      106.61657494512218      109.95677290058237
H          101.51898558789728      106.39139143884229      107.57675145053861
H          100.48598877269816      105.00914961641323      107.92947122185240
H          102.45508886649266      104.07544239204080      107.04584231614820
H          102.49937512003700      103.77148113723860      108.77902255796795
H          104.69410215865338      104.37469870556782      108.16620018862220
H          104.05621837007773      105.79578241107542      108.98420018511149
H          103.71120521722956      106.93189141535085      106.84062986791641
H          104.01014616409347      105.44268344821910      105.95913131466756
H          106.36616410199422      105.43877254962727      106.79071949325245
H          106.07283833030137      106.97655258648405      107.60340938009861
H          105.55283532069633      108.04094107519950      105.42130948751634
H          105.71726141035340      106.48378177460488      104.61755910315345
H          108.13908478578774      106.42434690457384      105.42111677330251
H          107.93057203052976      108.09108494481141      105.95028875570962
H          107.25276510576636      108.71112551513467      103.61973996963455
H          107.56063708374047      107.05065192958855      103.10912774861266
H          109.94132998397134      107.28150778653090      103.76832073561502
H          109.62098937304108      108.91401088278619      104.35250296658174
H          110.66288340369182      109.15321660363729      102.23430457255554
H          108.96940160677798      109.57863804512873      102.00746446810463
H          108.55032574140697      107.30596157150279      101.04050845482938
H          110.24867141781627      106.90279923657894      101.29979247691848
H          110.88380538238154      108.81493666654100       99.79549627427480
H          109.17633282857794      109.09798459302840       99.47641534050231
H          108.97504624505829      106.81107434856126       98.52404353780148
H          110.67431162975440      106.50714679051097       98.88655339049552
H          109.64168537316726      108.66461887940771       96.98593327919077
H          111.33981635570787      108.34655314607004       97.34654973679363
H          110.37445202974732      107.13142782592686       96.50418712164405
H          121.53192463538160      125.18093023252072      110.46626177046730
H          120.53865734184167      123.75469040783777      110.76935344976899
H          120.32496756688639      124.68295202234459      109.28230468074955
C          111.47195001355279      107.18933105608554       92.91301197243975
C          111.04652168818808      107.80268768773659       91.58407305278442
C          109.52938166624230      107.93859509361458       91.44524484899451
C          108.93310602762153      109.01057224087592       92.35456924018342
C          107.41510333056776      109.10214715462617       92.21301767901477
C          106.81680837455450      110.11414251167920       93.18679007640655
C          105.28872761160903      110.12004281181788       93.17355180004093
C          104.72354206488434      110.96842838303864       94.31191007372477
C          103.22613127231861      110.75053135927654       94.52138433815735
C          102.64067546824042      111.59679842692026       95.65531821115975
C          103.23638253710588      111.25188508797974       97.01838981656914
C          102.61302663008840      112.02154805615912       98.18265819643460
C          101.22869397256206      111.52443860467334       98.59339424106525
C          100.79460701198755      112.12432445093248       99.93028327445079
C           99.47912602330443      111.53312741966558      100.43086916111875
C           99.19346346132440      111.90889572578480      101.88297767133274
C           97.98320059108725      111.16409653479054      102.44144432190593
C           97.80379877091701      111.39061620678238      103.94003138499743
C           96.65903450935825      110.55833937456394      104.51346251781423
C           96.62105903579409      110.59539615477755      106.03932509696041
C           95.51971015554037      109.70339834538449      106.60807764716759