3795
 energy: -5103.670899381747 gnorm: 0.000929187066 xtb: 6.6.1 (8d0f1dd)
C          115.96751956275263      124.72032237782101      100.06726446494605
C          117.40219493098714      125.19983039148229      100.15246576628682
C          115.63829404409913      123.82706284010224      101.26595636001979
C          115.68026067115511      124.60347247011738      102.58731889189698
H          114.65261856276545      123.38024011071481      101.12734478245794
H          116.37306224058474      123.02053925758410      101.29116780732019
C          114.31143389665191      125.10345396886888      103.05830157741171
H          116.08928240413175      123.96353349435198      103.36996057518699
H          116.35720459839099      125.45284215248519      102.48310730121483
C          113.66824506440588      126.00883290571545      102.03049341735625
H          113.65783037086484      124.25277278522105      103.24998700027975
H          114.44321861490857      125.66403020416814      103.98432137792909
N          114.19126752936789      127.23487459639991      101.99516681122728
O          117.51168560404707      126.50879364858523      100.03515815629410
O          118.34673711493065      124.45927747784421      100.31705267239317
H          118.45749552346739      126.82012156917347      100.09337242064856
H          115.86521327330559      124.14677679800130       99.14369729703161
H          115.30823756968783      125.58537840521484      100.02522077262377
C          113.79159393602744      128.24518744503547      101.04052329840763
H          114.81971299392508      127.51070059844935      102.73795734904327
C          114.79337769097098      129.39322294600697      100.99725609883436
H          113.71337744591698      127.76345000782405      100.05990704559183
H          112.79548781247038      128.62348826986229      101.29814991192292
C          114.81428071804660      130.20852929277743      102.29057372271335
H          115.78783911789387      128.99021676316838      100.79431501730257
H          114.52253619932969      130.05263300145876      100.16939392836802
C          115.70742436019738      131.44131972539850      102.16244085702347
H          113.79701897186129      130.53260252709472      102.52483937685737
H          115.16152892994974      129.58640309842434      103.11552898197920
C          115.79064001322530      132.24308915482010      103.46581445750911
H          116.70897974526910      131.12937544757912      101.85965231452418
H          115.30696715192262      132.07926974445863      101.37213746178588
C          116.85859743319411      131.72468691074027      104.42488228924898
H          116.01043341911260      133.28849641421738      103.24044767972643
H          114.82535607022503      132.21372274957565      103.97185659621161
N          118.18112093955105      131.95868161145233      103.88033295395992
H          116.76369879845502      132.23102362241215      105.39293848284498
H          116.74978753837195      130.65136890290677      104.59550964704643
C          119.25565723471422      131.19607676459637      104.12737305651137
H          118.27747830009881      132.75766920590135      103.27303932127305
O          112.76417908809876      125.63799355124755      101.28165097307631
C          120.50087767091757      131.60327660720981      103.35786423924644
C          120.33333696550265      131.37012825915170      101.85134001312865
H          120.70920258598227      132.65826473478765      103.54302529687503
H          121.33726762815699      131.01536590234505      103.73554856511737
C          120.00935945942201      129.91709663188411      101.50476737784803
H          119.53086351276526      132.00437309148975      101.46966823859552
H          121.25499909806508      131.66347746696306      101.34554152036772
C          121.18104091680372      128.96766918767082      101.74098102500551
H          119.15396162419096      129.57865173516700      102.09422033340054
H          119.72660803371744      129.85202854032312      100.45189824610560
C          120.89128043834565      127.57230062586464      101.21846417466548
H          122.06361155524608      129.33389018495549      101.20990070423694
H          121.43609831842065      128.89594382547077      102.79755589952698
N          121.67560775480379      126.62331928257171      101.72120822043803
C          121.57961719913401      125.22369194754403      101.35540640233626
H          122.35757896470631      126.87361003705985      102.43505292595923
O          119.23918564286681      130.24940528891921      104.90237978370163
C          122.03500039582190      124.33342753857077      102.50528086822277
H          120.54052686073977      125.00824633771461      101.08732025654187
H          122.19292207246865      125.03375187795321      100.46545870868630
C          121.69751180368603      122.86707277251413      102.25052109633050
H          123.11109176302226      124.44722027919440      102.64401552213174
H          121.54505292628625      124.65529417492159      103.42511815836561
C          122.11335131022437      121.99310384650019      103.43296822009420
H          120.62088974298122      122.77920585301256      102.09166099436024
H          122.19479565500849      122.53617116042672      101.33753463032434
C          121.51990607146897      120.58800431308974      103.37975064489486
H          123.20248436194824      121.92749160784554      103.47154053137191
H          121.77033627645163      122.47509147870791      104.34930811470876
C          122.09387727118290      119.73219798579599      102.25441817761629
N          121.51885292467887      118.40488867815520      102.30650144850354
H          121.87027024655058      120.18881876588627      101.28429612890247
H          123.17833621862943      119.62873873282841      102.34503801308850
C          122.21941079332890      117.27670029643734      102.19501761773576
H          120.51142944467510      118.37114125626655      102.45976905584894
O          120.01958958121473      127.35066715074190      100.37072473651853
C          121.38443704670826      116.01301212569903      102.28080922416308
C          121.03657768845396      115.50414429006436      100.87803161478610
H          121.95424259328520      115.25126634756931      102.81154412078709
H          120.46755736298454      116.22191283434722      102.83092550633407
C          120.01998922049597      114.36321970245962      100.90727007721624
H          120.61149910231735      116.32910410197523      100.30382479290571
H          121.94835887821931      115.17542160618380      100.37431271199537
C          120.59740887668231      113.04274555870657      101.42023683339657
H          119.17716029203709      114.64983195776132      101.53752517700781
H          119.63017548190349      114.21045133293823       99.90032997162959
C          119.48365695587525      112.01589714415509      101.53532022389876
H          121.37047439307690      112.68303173582676      100.74334986937544
H          121.01872831216248      113.18785040712139      102.41466073342735
N          119.37582120503053      111.17545970580424      100.50053790998565
C          118.41077330851780      110.09323316444949      100.49917753298031
H          120.09282101304623      111.18454056352550       99.78574791903507
H          121.70737066059283      120.08307503856811      104.32788802833799
H          120.43790146164935      120.65129503446687      103.25187317083110
O          123.43791469504752      117.25436697636859      102.01687273161056
O          118.72367610289301      111.98500003490852      102.49849665148550
C          118.28805180664648      109.42023306621766       99.13841268816965
H          118.70670888968873      109.35143573973394      101.24923614657105
H          117.44775516672303      110.50679453388750      100.81427225326912
C          119.62714514973109      108.89170381027164       98.61038014553233
H          117.58960323087076      108.59070148526841       99.25346462607730
H          117.86288749102059      110.12179086770223       98.41820588466690
C          119.47471443188407      107.64573221896838       97.73604676050930
H          120.11434445664526      109.67213160441726       98.02732597138316
H          120.29427066368885      108.65206274898657       99.43969898477580
C          119.32320237967788      106.36788909509060       98.56071301808484
H          118.61511829154962      107.76575585720987       97.07445061749767
H          120.36424373881331      107.54245314011706       97.11374776235766
C          119.24792009323266      105.14714840539686       97.64970721127028
H          120.18335482240398      106.26892049075015       99.22510653485982
H          118.42034771941302      106.41659514606474       99.17125631675681
N          119.15538606098332      103.90197505452471       98.38103093891762
H          118.38135817857194      105.24002870308567       96.98427314359525
H          120.14597974354025      105.07699419191088       97.03175372601888
C          119.91354209452419      102.82905278805504       98.10021193097673
H          118.43740751664350      103.81653427510814       99.08848685853751
C          119.50127850725146      101.58024921166314       98.85663179154186
C          120.67236563335042      100.64161623665036       99.13219105400540
H          119.00007166752926      101.86966643390079       99.77835832329646
H          118.77388406004582      101.06371431590840       98.22260042139689
C          120.20778463460907       99.24378181535447       99.53762807436676
H          121.27836745889223      100.56944473551816       98.22648159996464
H          121.30810865201354      101.07221669027720       99.90839740170522
C          119.30822977335541       99.26019606069465      100.77717194027842
H          119.65871416789139       98.79110636400382       98.70880663728232
H          121.07871849909425       98.61697597001705       99.74057221111565
C          118.97194321457388       97.85055540354666      101.21720544103145
H          119.84342083653911       99.75155111731701      101.59321046072955
H          118.38744928038641       99.80174531533136      100.57070862134320
N          117.68973475521264       97.51229782633335      101.09379024719649
C          117.14081287842019       96.25432745002117      101.55194156235432
H          117.03413409576176       98.17515012349529      100.69488945743639
O          120.81682759725068      102.84875770154692       97.27163886716022
C          115.86132272996467       96.49551683659345      102.35124794629891
H          116.92691273403722       95.60792226676490      100.69319538219909
H          117.90659701898669       95.76815223505272      102.16202883056263
C          115.29482390894705       95.19638692165290      102.92481996539568
H          116.06949650624789       97.21429310600720      103.14320613436095
H          115.12463133406160       96.94534317787721      101.68491579809432
C          113.86496521221873       95.33834419508925      103.46216465361741
H          115.28916698823842       94.45567218930138      102.12237087569713
H          115.95218397088611       94.81573172865141      103.70879905825520
C          113.74003206310729       95.66471232931377      104.95354361492029
H          113.33375695771082       96.09335208705708      102.88379001149413
H          113.34001702683645       94.39351697123486      103.30874771710425
C          114.46606252246956       96.91799379751311      105.42538046259652
H          112.67744147745157       95.77186885455438      105.17839518166483
H          114.12431015667886       94.82775075616334      105.54005868180515
N          114.07092379902663       98.09728885162409      104.67983792462357
H          114.25617332412328       97.07502206296141      106.49103011906003
H          115.54947853258130       96.79160136258493      105.32657411081853
O          119.83055956034673       97.08306316954408      101.66146727366214
C          114.56096599142471       99.30503451603954      104.95759695877902
H          113.35896763200589       97.97571556285189      103.96551644181945
C          114.11921578131592      100.42093630948878      104.02376506996607
C          115.20864841409470      101.48189531162596      103.84908915884176
H          113.84359633355243       99.99390537449490      103.05985060766307
H          113.22790618126018      100.88005507094466      104.45814647583066
C          116.41914181942703      100.93255243116865      103.09555212673983
H          114.79665673078787      102.33701755570229      103.31122578076344
H          115.52964899325677      101.81705821335660      104.83788587935638
C          117.57464242436603      101.94015966743007      103.01866604527210
H          116.77979142236919      100.04301124341926      103.61730841996160
H          116.13121438525891      100.62617581452541      102.08743485085911
C          117.26431447388218      103.09985689138564      102.09340222553763
H          117.79296962639545      102.31918823151059      104.01688253362424
H          118.45800754021795      101.43089301067772      102.63019645437548
N          116.83931656169808      104.20455574764893      102.69934703459049
O          115.31909279217518       99.50724782894716      105.90708275884607
C          116.51852994721412      105.43845883655861      102.01138404795434
H          116.89292215689109      104.25226607606615      103.71558875936857
C          117.05844896610931      106.63815671835013      102.78210457400962
H          116.96014682241166      105.39052536268169      101.01214062093869
H          115.42992865543080      105.51855171541681      101.90893514169431
C          118.58220647101292      106.68697032942404      102.78810415623981
H          116.66168275015856      107.55695738308684      102.34971508451360
H          116.71799462434632      106.57229752637190      103.81532784582485
C          119.09785326748606      107.71123143825686      103.79649240785223
H          118.96929952262103      105.70605122285187      103.06667468336374
H          118.94407381255796      106.91721295318780      101.78540179747829
C          120.62005517066997      107.82855483647737      103.78562811510048
H          118.66426947449641      108.69424674154851      103.60090812559140
H          118.77517616945424      107.40369608218914      104.79271914306786
C          121.11510861371141      108.56928543758308      102.54957874891937
H          120.94936686735777      108.37518437479594      104.66866652064741
H          121.07020890278801      106.83399743931372      103.81978906062332
N          122.55405320016877      108.54946872021347      102.42628973497408
H          120.72851257132751      108.10635601649128      101.63998582141321
H          120.77324849183658      109.61023245340616      102.58845822525979
C          123.17296587762108      108.13081544387033      101.31830334713497
H          123.09795518145839      108.74189146428023      103.25686584070500
O          117.38092035593012      103.01223666158361      100.86651920986648
C          124.67573680448335      108.29285253882601      101.33303737014975
C          125.10579264742589      109.44164463790329      100.41476222420967
H          125.01540723298484      108.48352567315609      102.35035859037939
H          125.14410760913246      107.37247426134721      100.98315488968970
C          126.57059547140838      109.78322718137500      100.66522992080056
H          124.96068221887248      109.14114098148583       99.37668654115249
H          124.48348456175334      110.32015249294373      100.59954858622599
C          127.15677854980383      110.74833300592159       99.63049954725996
H          126.66873470003080      110.22815025310706      101.65749842149063
H          127.16535847004263      108.86731581835443      100.66822486078370
C          128.57898625579389      111.05130709994985      100.05892605361333
H          127.17239726493206      110.26914524546594       98.65090668882391
H          126.56826444632836      111.66415186831242       99.57926157120914
N          128.75447086441727      112.25416419928618      100.60652624252327
C          130.00854220883321      112.72095192501926      101.16232545058354
H          128.03092801685665      112.96333905452263      100.51223609274534
O          122.55990318834132      107.68786604044497      100.34807734349667
C          129.74248295156121      113.85094582145945      102.15048237645621
H          130.50026446544433      111.87510692559464      101.65077160321442
H          130.66109392620393      113.07513142558898      100.35734038685314
C          131.03019281472720      114.51681300876733      102.63249432226412
H          129.11075790620299      114.58375148182436      101.64792442199003
H          129.19726067546270      113.44507068552250      103.00392356730927
C          130.86251372996276      115.35056369517071      103.90535976324510
H          131.76815020865760      113.73787280260045      102.84242492543113
H          131.43359523623778      115.14742290345208      101.83817306463972
C          129.97123583348204      116.59123290662791      103.78057667482184
H          130.46751005377823      114.71165912426238      104.69519178470723
H          131.85789729976571      115.67625448384736      104.21127321531516
C          128.48608260685575      116.29160788803848      103.96155738164325
H          130.26333019574830      117.30830893469675      104.55013363952501
H          130.13199756895028      117.06453839094873      102.81045996609949
N          127.71324557091936      117.51744990461216      103.96157881668648
H          128.12508933937963      115.63969375890468      103.16272161168719
H          128.31116477065831      115.78613855707462      104.91548527281951
C          126.46368867548372      117.60073870291777      104.42543694984438
H          128.06431713804707      118.28282728386885      103.39711200348249
O          129.47406254880394      110.20990820379318       99.96678327071993
C          125.84220943340125      118.97194879514888      104.26550975410201
C          126.33438889662497      119.93178311183860      105.35402977390478
H          126.12395703847470      119.36894926363873      103.29041482849385
H          124.75744672000211      118.87323417623300      104.30751282856630
C          125.70166892468471      119.64631853807148      106.71189430420229
H          127.42009993106571      119.86125344484938      105.42023009349772
H          126.08492617779733      120.95090017522506      105.05203807617472
C          126.10112738027269      120.68095826342946      107.76569397184086
H          124.61908341355920      119.69047007113080      106.60007311223055
H          125.97019093723264      118.64485817616325      107.05159556118326
C          127.56573435809075      120.62379407004856      108.13256638599701
H          125.87991457729477      121.68157791867905      107.39065143503291
H          125.51850988624264      120.51218174162489      108.67209725827159
N          127.92485687383130      119.58346707870066      108.87776293302142
O          125.88891384699450      116.66020500633346      104.96893243046323
C          129.26668157243540      119.38829849936852      109.38099635095014
H          127.24639718746251      118.85587245162205      109.08262030795251
C          129.93886172038833      118.15437070731254      108.77912561818705
H          129.84366636150261      120.28179743813975      109.12925242636889
H          129.20999509318190      119.29094021799808      110.46816455105548
C          131.43337737606828      118.09107873563757      109.10546392450780
H          129.42747987537143      117.25943054919514      109.13293229484336
H          129.82662742623057      118.19269799233453      107.69367039919098
C          131.77434188601904      118.01018352688801      110.59651644458707
H          131.86266914822681      117.22430698796187      108.59974576846619
H          131.91497357011096      118.98015509294828      108.69338160671040
C          131.28796135453644      116.72473455295082      111.26163131600825
H          132.85965485874755      118.06676045709109      110.70144420448426
H          131.35534356088391      118.86888439458991      111.12187727162845
C          131.64408397057232      116.67701061102785      112.74214575273763
H          130.20627235398058      116.63335034191832      111.16533000963646
H          131.74317163385672      115.86124545580270      110.77542535213603
N          131.00126194121162      115.54856021481116      113.38604194729974
H          132.73193980273999      116.60871879353439      112.86727788748541
H          131.30355702731441      117.57664935917224      113.26323011468055
C          130.59606927696606      115.59840301095250      114.66110125036454
H          130.87974243475796      114.70775452461726      112.83305435002582
O          128.35337060471588      121.51691480739035      107.79495857355506
C          129.95880960253277      114.31768717417030      115.18314041287074
C          129.03817828819359      114.62259739189606      116.36251504859986
H          129.42838281360309      113.81157557038762      114.37587896205740
H          130.76975203195369      113.66258743045088      115.51168894361417
C          128.55679366860684      113.37625197455756      117.09549395703516
H          129.58575559690891      115.26331919537628      117.05676201704310
H          128.17885089292753      115.19322608645773      116.00199654713481
C          127.72683823326490      113.74121671003773      118.32347225448436
H          127.94926044625406      112.75703573617989      116.43377468250038
H          129.41284645069385      112.77435911752258      117.40742022543267
C          127.05784565192342      112.52570173631085      118.94821262140563
H          128.34522728180161      114.23389245043774      119.07360715300173
H          126.94040983567533      114.44163811011329      118.03369346221012
N          126.75903016184925      112.67810235671693      120.24726657842115
C          126.17363293598082      111.62477687102638      121.04859914398929
H          126.94230408944625      113.56916024002435      120.69856424497664
O          130.73295628631539      116.59689369043284      115.36107184299375
C          124.77798761993130      111.96649824109869      121.57471306858776
H          126.12730615245381      110.74306191892244      120.40349768907295
H          126.83956604785182      111.40968764206100      121.89046773746307
C          124.79068730460527      113.02353210443867      122.67816681844901
H          124.15474796493039      112.30806089404058      120.74601274009599
H          124.33496934960465      111.05126801182465      121.97164492146236
C          123.38332658620202      113.24352807950947      123.23244629306885
H          125.44836031692229      112.69272695008513      123.48437849547489
H          125.19204621615917      113.96177793028335      122.29352464987642
C          123.31536523920482      114.39407390708203      124.23560770525287
H          122.69838652297935      113.44619579307589      122.40797646497712
H          123.04390864011654      112.32620262352354      123.71843578051778
C          121.99898198705162      114.36659964790537      125.00457393140343
H          124.14017562923783      114.31554243835977      124.94471938229194
H          123.41355045227077      115.34774924453765      123.71556156747258
N          121.85762864884255      115.54196529850880      125.84126912362849
H          121.14783215743338      114.33101132759430      124.31949508072174
H          121.95988587815546      113.46079753963281      125.62026104158826
C          120.67081813491522      116.04338144425222      126.17765679454367
H          122.73545852665288      115.94295633822865      126.19422920076552
O          126.80332357637189      111.50885472073657      118.31240317865606
C          120.70311031152215      117.31828384429733      127.00600659534922
C          120.39741511224783      118.54781589057664      126.14158520765353
H          119.93958836415487      117.24133209708046      127.78396859061890
H          121.67501233547665      117.43450997936901      127.48172168079839
C          120.28503443168120      119.81621720274681      126.98749086794599
H          121.18355902566017      118.67286797665801      125.39389663432772
H          119.45775837581076      118.39164659199020      125.60740925020846
C          119.97255827061362      121.06119253827970      126.14755201889317
H          119.48650784457809      119.69348339547666      127.72183005027563
H          121.20983220905249      119.97945243408149      127.54430430112349
C          121.14824375069901      121.41800672832970      125.26145043255933
H          119.08764960337514      120.88277702292663      125.53370270723268
H          119.77310334429835      121.89479426597356      126.82218025452832
N          122.21996007226248      121.86727529023055      125.92244312547516
O          119.60399738721911      115.51793687869170      125.84577180456894
C          123.50681098506475      122.03177480831943      125.27574684425416
H          122.13163045182714      122.12635813733920      126.89741449078201
C          124.67363886423578      122.09538089185253      126.26349069132650
H          123.63434608025044      121.18892479904291      124.58859679326923
H          123.49991947279389      122.94798593745313      124.67410650443502
C          124.57874893013089      121.13019139358569      127.44877765213786
H          125.58651916298966      121.90048875868976      125.69934444353149
H          124.75092040583799      123.10451072416301      126.67329904076456
C          124.20815114438970      119.69260947169624      127.09047082554083
H          125.53859013159398      121.13792768095314      127.97017113520910
H          123.82976041706199      121.50707732737210      128.15037214606647
C          125.24911640610583      118.94709248022440      126.25620247034266
H          124.04122976468130      119.16263950043285      128.03333018032001
H          123.26720634435021      119.69341552898999      126.54111905116680
C          124.68250078925924      117.61506552033903      125.75318047556470
H          125.50728797242277      119.53740531843658      125.37800976398987
H          126.15623291193432      118.78145719526611      126.84249489316564
N          124.33273758776579      116.64341505960000      126.79120795145143
H          123.77370241902074      117.83264618600461      125.18553906878230
H          125.39074119399608      117.14006369934022      125.07241152182462
H          125.16460172614964      116.15667312700394      127.10658514250922
H          123.95867063424302      117.13377275328848      127.59799387738735
O          121.14021199368905      121.27389042785120      124.04080206962463
C          105.51840571367516      114.65721824918695      111.54949819804730
C          106.51944651668637      115.48609713839585      112.32279916686161
C          104.70146295368770      115.49290672087834      110.56996600799154
C          103.72751294507597      114.62468913502035      109.77883487877561
H          104.15566115182335      116.26096345487068      111.12036177483934
H          105.37402329298543      116.00200752141296      109.87852526598202
C          102.88225427394795      115.47545195712631      108.83426787555437
H          104.28521546557404      113.89547589989363      109.19189659159996
H          103.08020167772962      114.08097032221829      110.46740551436596
C          101.79040291987373      114.69758900331874      108.12978828255073
H          102.40942031565847      116.28869766894633      109.38980646754398
H          103.52289149931006      115.91313218916481      108.06615922068859
N          102.19763133809371      113.72351407096878      107.31655475572681
O          107.57190859885053      114.77777244803364      112.67989258417182
O          106.38359633217887      116.65974261666334      112.59127636786698
H          108.27552870612536      115.32727559980140      113.12437340318897
H          104.84133872110323      114.17431417103353      112.25864005631917
H          106.06477120271171      113.87528179165348      111.02208634196620
C          101.26846510479484      113.01729417700793      106.45539358297819
H          103.18912500365772      113.53266406459643      107.19614530848979
C          101.87297552415178      111.76103790769220      105.84833482393708
H          100.37343631321214      112.78279022218152      107.04071823255751
H          100.97185615257989      113.68425163520813      105.63519257270407
C          102.11698554503215      110.63190643549872      106.84650484904522
H          101.19156395893717      111.41517353518888      105.06914643225305
H          102.81531386028217      112.03250458442129      105.37057118783115
C          102.52929141360417      109.35950564161325      106.10652123242791
H          102.90595744655246      110.93021670766602      107.53715570579833
H          101.20929104734793      110.45461806708818      107.42497782905620
C          102.99803702703133      108.23031274883827      107.01927288879115
H          101.69475335779352      109.01043545965391      105.49747121358963
H          103.35215478086727      109.61121286485196      105.43386169998986
C          101.88852999520651      107.58676372151147      107.84833518628794
H          103.44847206951449      107.44203042666039      106.41053184629104
H          103.75406840879742      108.62043014573021      107.70254075293046
N          102.42370520133895      106.52938025135087      108.68165127320677
H          101.42353894000976      108.31914558468137      108.51095374754303
H          101.12251672923118      107.16362889332554      107.19295930495441