3258
 energy: -3427.488671352728 gnorm: 0.000660835845 xtb: 6.6.1 (8d0f1dd)
C          111.35889388581944      117.65045679642586       94.86431337124678
C          110.95476251800834      118.81851873147754       95.75530938712019
C          112.01332755878120      119.12677611052692       96.81149251606926
C          111.61572012198525      120.31336789263065       97.68539559263611
C          112.63517468898738      120.58631451632994       98.78950589183131
C          112.33493229252396      121.85716324535584       99.58680960931170
C          110.97093706618016      121.81319873909200      100.27209504188849
C          110.77437904944945      122.95186602832088      101.27198442586796
C          109.33481008287518      123.04154435383900      101.78472746655869
C          108.87473151204976      121.75127627428502      102.45696143502555
C          107.48231857129176      121.84538544810029      103.07794410171488
C          106.98617408176744      120.45380686244712      103.46132451845197
C          105.61452340143551      120.43199492009219      104.12934513951954
C          105.12728976064379      118.99245407954733      104.28551326934225
C          103.95031279904629      118.81808777900565      105.24044808909758
C          102.63569091379539      119.43758642182117      104.76964341481802
C          101.50370699717149      119.02949635464364      105.70951386569148
C          100.11687744603212      119.51750935110533      105.29354498013228
C           99.03502587750323      118.77683533891717      106.07871652286953
C           97.61650074343746      119.26310972924898      105.79436619805395
C           96.57546976065051      118.34641509573461      106.43792915469466
C           95.15258401854152      118.88936341776075      106.30302862801214
C           94.06994007734177      117.82158547418526      106.46863157219462
C           94.06706555707422      117.09389493696114      107.81298556014777
C           93.58894387456228      117.93409370751149      108.99656499580382
C           93.69396617800103      117.12621440002019      110.28812434022527
C           93.22287422024191      117.86117224999307      111.54204830999505
C           93.68856781168408      117.11930724609974      112.79394381991237
C           93.17113774356550      117.70282885628197      114.10671933387894
C           93.81995024457431      116.99541716986769      115.29490418201887
C           93.24608982329920      117.39227436459005      116.65363279621698
C           94.00947986598590      116.69981942551343      117.78233554686743
C           93.35710006655682      116.81014717731787      119.15862082497512
C           93.32509347061607      118.22531053810856      119.73079601660550
C           92.87666480765057      118.20895226965702      121.19197263965073
C           92.82345750827739      119.59354306562778      121.85308024404644
C           94.04795618960526      119.93605987046449      122.70608208835387
C           95.32008466329343      120.18582816160395      121.90174492187207
C           96.50390754378972      120.55067405709863      122.79592502669281
C           97.72536370725079      120.97184445430494      121.98208002184953
C           98.98276015324596      121.11073175157141      122.83722654514703
C          100.17382331917788      121.59501099091803      122.01362963197651
C          101.48087820056098      121.58535615028852      122.80320444248791
C          102.64776730108079      122.10328098580599      121.96491119906372
C          104.00027924899626      121.85162314066226      122.62715952670160
C          105.16714348794822      122.53171255665443      121.90556035889446
C          105.31826979973206      122.17058479799253      120.42667670074994
C          105.64738001114078      120.70087528046439      120.17618359737237
C          105.71080261883273      120.39188265023817      118.68180767076990
C          106.17341581028825      118.96564735032041      118.39170120292363
C          106.02837916133485      118.61767487267974      116.91141548266418
C          106.65710550819996      117.27767005797652      116.52670624737023
C          108.18339799153719      117.32403680781097      116.51658841738998
C          108.80869080527657      116.13033423290578      115.79880899582798
C          110.33067134036644      116.23777885810313      115.77663385055770
C          111.00731805883110      115.11256232153461      115.00022256745285
C          112.52591740760259      115.25985751926132      115.03053020974596
C          113.24690805938734      114.17595453384735      114.23594799138391
C          114.76249209050495      114.31164132753599      114.34855180094380
C          115.51046386411666      113.26042040233703      113.53450811003459
C          117.01822359006580      113.34326790405881      113.75199360369132
C          117.78031947784970      112.28691188468706      112.95580247758348
C          119.26372440715589      112.22107176947588      113.32362266342668
C          119.48062899639292      111.49616688170076      114.64797946919519
C          120.93768090493012      111.48746621646055      115.09837885601063
C          121.12234792979473      110.77045866720059      116.43660809907018
C          120.57477548352563      111.56817617219555      117.61801039700707
C          120.73128732136111      110.81393450558986      118.93510954548989
C          120.20454071439706      111.58766911129771      120.14428193048646
C          118.70190015856041      111.86182441579278      120.08229089363073
C          118.14986892003175      112.31367728809954      121.43195771822636
C          116.66105061358709      112.64720027983319      121.36795706395304
C          116.10732645141033      113.01858277913793      122.74095325834047
C          114.65350934485748      113.48965679078051      122.71122412256292
C          113.64609314339386      112.39031095293980      122.37687663160962
C          112.21792782403197      112.86590609275056      122.63466243611980
C          111.15794302111449      111.82079944315748      122.29423781049472
C          109.76510876145861      112.30149960951012      122.69711213052318
C          108.64991429700413      111.37011407599745      122.22904987284890
C          107.28213618665721      111.84324209702136      122.71810003220378
C          106.13111457952630      111.06457381558945      122.08672705249111
C          104.77087126842592      111.53777444939209      122.59524128510294
C          103.61468700764975      110.92521241394604      121.80907553218110
C          102.25396471036123      111.42109071032775      122.29393858809121
C          101.12352101306540      110.99462424300557      121.36121056487164
C           99.76251102349538      111.52142133551554      121.80953896796584
C           98.66128941850172      111.14892653430213      120.82038803002392
C           97.27845437912508      111.61214621685357      121.27134055095456
C           96.22254549233332      111.30907704852557      120.21002056249515
C           94.78902050230744      111.59666721521408      120.65808656620268
C           94.49297762129449      113.08526785755855      120.82982563634313
C           93.04605477357448      113.36403652485785      121.24181840218432
C           92.03434366897277      113.11729440805372      120.12425803184446
C           90.61027243211946      113.42859844199283      120.57993768996523
C           89.54107989205572      113.05876802558487      119.54910251615220
C           89.59477718872607      113.85309469135703      118.24274679197543
C           89.32398417632496      115.34378936691689      118.42640942415738
C           89.28846386074395      116.08947018153015      117.09401864634125
C           89.14690660107949      117.59620788128281      117.30168503001025
C           89.25969140548169      118.41122525525142      116.01349457342917
C           88.07308285853220      118.24478161049883      115.06693702326858
C           88.22117798505550      119.13581987921631      113.83565617567346
C           87.00625590244489      119.07250492500512      112.91294696264647
C           87.14633764000398      119.97665825064882      111.68613554982652
C           88.14797179388181      119.44137365985776      110.66603645195146
C           88.32566263576064      120.37417386065307      109.47143696829880
C           89.35644965594403      119.83098680427280      108.48471525359442
C           89.56474091474453      120.75808659557555      107.29028644096667
C           90.59368890358995      120.19791516302821      106.31183714147876
C           90.79237999113408      121.10696712820003      105.10150034434592
C           91.78512390547833      120.54694359639993      104.08143400076216
C           91.27667291279116      119.26517109474518      103.42372130485158
C           92.05009688926987      118.86168294234724      102.16912972717778
C           93.47656918463264      118.38956487594250      102.44206811234615
C           94.12560191389808      117.85910510430773      101.16579420385354
C           95.53900720887093      117.32471185150234      101.38114687223334
C           96.16913764823150      116.89189336592693      100.05944925623720
C           97.60464045375566      116.39724181950996      100.21239008516513
C           98.21229157232324      116.01580601054734       98.86420319986533
C           99.64635729569130      115.52114195558413       98.99780850430102
H           97.60143357546772      115.23523902210167       98.40361219398007
H           98.18765575470991      116.88438363066572       98.20085607598872
H           98.20955915897460      117.18356021308789      100.66998593762193
H           97.62496848904823      115.53049439180889      100.87708322239111
H           95.56099210059556      116.10048742208524       99.61260400788069
H           96.15750363592045      117.73906750994298       99.36802512347506
H           96.15436378905056      118.10257113646368      101.83671860374334
H           95.51045708858049      116.47687259277728      102.06971885986887
H           93.50286974805344      117.06126176115522      100.75080347535497
H           94.15837727163851      118.66269452127953      100.42503446995454
H           94.07266404627104      119.21529093358819      102.83438877404028
H           93.45817944199135      117.60189257295855      103.19850658939757
H           91.50664035201972      118.04934605028484      101.67726436754904
H           92.07523546165261      119.70312928530849      101.47163893657468
H           91.32004842152715      118.44587943512786      104.14204346904374
H           90.22854093973548      119.40975807093545      103.14701104949398
H           91.95034076021582      121.30086490901384      103.30698219682270
H           92.74036056992662      120.36053008072180      104.57437408541546
H           89.82856394017612      121.26770513570676      104.61049645055682
H           91.14770118741983      122.08215949891583      105.44555176579745
H           91.54845769854509      120.07202673052375      106.82721192909032
H           90.25848975891941      119.21418728579611      105.98020187623679
H           88.61243078235688      120.90013584054461      106.77240721823686
H           89.89251312704216      121.73897525892843      107.64457895857686
H           90.30900270392853      119.69324304685814      109.00202420840010
H           89.03159711240427      118.85074551870257      108.12714035945352
H           87.36704243991228      120.50575435500187      108.96303481687102
H           88.64567807673184      121.35790080477571      109.82530395200277
H           89.11864830527671      119.30112614059132      111.14441800027679
H           87.80646609236999      118.46633311489212      110.31147427909960
H           86.17112403082265      120.07538308476867      111.20227952133358
H           87.45323698536141      120.97453955554664      112.01016370858133
H           86.84728462251735      118.04285618396078      112.58404241287307
H           86.12166955345495      119.37695692110059      113.47857797270322
H           88.36386900582178      120.17056597638799      114.15780321636532
H           89.11631444609203      118.83251329821468      113.29058788710618
H           87.99410105483679      117.20368049391787      114.74843868349389
H           87.15117362031394      118.50180189349580      115.59519724539233
H           89.34231563056170      119.46857906391551      116.28058587774740
H           90.17820892463295      118.13419793506057      115.49090510501892
H           88.18743513019321      117.80714260578496      117.78070371742477
H           89.93284081448832      117.92582438633765      117.98715613002979
H           90.21092992950659      115.88433043328614      116.54489201636162
H           88.45784569249973      115.71487411760869      116.49287353940871
H           88.37125738781138      115.48058202673644      118.94468748051837
H           90.10410197273286      115.78152269780109      119.05235473614167
H           90.56888513513367      113.72122144097926      117.76986646176151
H           88.84364046629773      113.44114241815792      117.56265755707464
H           89.63912929521749      111.99551794679115      119.31309674138373
H           88.55704751667196      113.20264955351553      120.00383271269455
H           90.40618704917176      112.86404268069471      121.49425302548836
H           90.53198726043203      114.48740673578189      120.83300718567645
H           92.29698720150401      113.74349873732120      119.27055924679705
H           92.08085833876832      112.07392250531146      119.80588438576210
H           92.79374604662125      112.74179541873131      122.10460302310850
H           92.96348386740598      114.40761415468903      121.55719083957868
H           95.15279969902841      113.48940892605012      121.60057374789660
H           94.70971974299367      113.60834534848331      119.89499208339271
H           94.10904021210271      111.18045402464531      119.91197970000333
H           94.59621619670585      111.08085505372725      121.60244149584557
H           96.44222041174406      111.88849396950027      119.31015303546829
H           96.29542560973780      110.25111072979666      119.94364662268561
H           97.01262919644419      111.10813208283480      122.20423282857517
H           97.30916933279570      112.68411681784305      121.47417543463506
H           98.88762591954399      111.59443760291518      119.84933131780839
H           98.64781668038327      110.06374202981630      120.68885127790904
H           99.52160933284993      111.11667826344474      122.79588070018481
H           99.80965281325479      112.60918605699059      121.90470462874458
H          101.33343594866803      111.36562724892740      120.35484313924307
H          101.08798618403773      109.90306103605829      121.31043782601238
H          102.06266384123472      111.04246174630855      123.30119568409565
H          102.27054215283648      112.51164251120436      122.35289619648901
H          103.73178259997864      111.18450743565582      120.75415608010155
H          103.65404163086679      109.83551250605920      121.88824849703788
H          104.66862736845084      111.28912416961202      123.65473575050598
H          104.71758676033559      112.62610655637742      122.50997957395781
H          106.17168386295184      111.19130996743083      121.00260686454602
H          106.24836723697729      109.99892894952013      122.30078810948775
H          107.23333383822818      111.75013439113410      123.80631606302168
H          107.16480135583581      112.90378185369185      122.47925368821031
H          108.65013532100298      111.32897060590143      121.13790806496179
H          108.83788498337914      110.35833725826748      122.59733802372018
H          109.72129044250734      112.39843593350356      123.78537450559062
H          109.59607901997755      113.29707314413743      122.27768038492093
H          111.17805325444473      111.61530092398340      121.22188086283840
H          111.38450223091701      110.88482602776523      122.81104605445900
H          112.12116859150426      113.13610905959601      123.69009878025564
H          112.03062348121517      113.76899564121933      122.04841856674851
H          113.74892772395688      112.09870277120936      121.33006415507478
H          113.85055967790569      111.50857243607371      122.98985174749302
H          114.40545182937016      113.89468460580973      123.69678163521149
H          114.55129411209548      114.30002795667058      121.98551433219346
H          116.19448476868639      112.15890727139279      123.41097542273657
H          116.72267966457112      113.81942884066596      123.16115193360456
H          116.50470806857491      113.47784014956724      120.67541391659145
H          116.11972938374387      111.78266319222111      120.97890895619004
H          118.31026854525915      111.52249268854185      122.16984560264082
H          118.70285037227305      113.19310858889430      121.77315971907142
H          118.49535570068689      112.63497240209558      119.33998484031554
H          118.18407101876763      110.95111754133427      119.77208745173840
H          120.41844612019391      111.00494893731616      121.04476331979131
H          120.74313670004275      112.53473192004392      120.23369562093740
H          120.20084506435761      109.86036865360357      118.86605430953259
H          121.78967165090353      110.58831054174570      119.09493234886358
H          121.09589182962280      112.52710640806960      117.68220329468336
H          119.51778146758295      111.77616017306127      117.45549303619424
H          120.62273824385269      109.79908704209731      116.39444040508812
H          122.18566667501379      110.57723635948874      116.60405425011683
H          121.54279351382870      110.98943601303083      114.33651591399652
H          121.30356982678428      112.51362445013174      115.18615648238088
H          118.87167728721532      111.97297760337352      115.41574601841464
H          119.13533243806815      110.46505070674698      114.54629048742102
H          119.81059280042727      111.69363160864096      112.53661043982468
H          119.67036763206332      113.23324632702243      113.38730727385314
H          117.33284689586905      111.30622239807694      113.13312918084665
H          117.67622996506023      112.50740730377522      111.88969052065309
H          117.37417858842583      114.33553876158012      113.46580530330381
H          117.22031411682012      113.21766074644887      114.81688214881278
H          115.16227010295607      112.26576748458433      113.82568989919736
H          115.28378321339852      113.38937839117850      112.47299274617279
H          115.06096068485934      115.30717470713125      114.01096361938059
H          115.05096162038687      114.22072542037866      115.39867147361770
H          112.94410415026719      113.19386465985055      114.60773984207746
H          112.95124915713220      114.23730671972990      113.18535689325050
H          112.79689825773555      116.23943934208015      114.62808473857638
H          112.86713304355108      115.22672521368628      116.06894865498572
H          110.72508227163303      114.14938324127668      115.43122011923622
H          110.66039545898064      115.12516089587710      113.96352758948733
H          110.61235577063819      117.19443970539608      115.32999257618624
H          110.70448754225664      116.23478287945403      116.80483264706027
H          108.51117313811524      115.20437629582139      116.29557558248908
H          108.43346679860360      116.08951345625208      114.77232986839687
H          108.50550646132575      118.24023257541023      116.01552906868432
H          108.56148242689865      117.36328479638401      117.54087884075545
H          106.31191123078304      116.49862571558513      117.21045279478123
H          106.31220468856516      117.00689656710381      115.52525696987576
H          104.96316519586146      118.59599098767872      116.66323119996997
H          106.48492044879433      119.40869441696832      116.31006295465733
H          107.21616032099583      118.86395759729989      118.69852015816406
H          105.58126694626854      118.26313866678456      118.98411621537224
H          104.72211174877651      120.54771037318604      118.24478035826955
H          106.39360237830833      121.09563286526810      118.19686399010772
H          106.60450772446490      120.45989699217253      120.64480129601193
H          104.88702363065052      120.06836413524223      120.63804518052088
H          104.40327257096098      122.43400773970230      119.89255659747573
H          106.12032948394169      122.78496661885124      120.00755036004678
H          105.03750742809483      123.61520447044768      121.98044293282983
H          106.09331555218709      122.27620467437993      122.42732971987454
H          103.96984771168943      122.22802739959852      123.65358923616284
H          104.17668143270394      120.77589668777787      122.68402334713117
H          102.62229664147740      121.59932031839887      120.99844118693559
H          102.52075404534048      123.17420833226892      121.78646949826371
H          101.37257271697504      122.19510237713079      123.70368837306081
H          101.69606770332835      120.56358297175915      123.12341128814823
H          100.28791261473413      120.94877765762187      121.13968669984972
H           99.97475733853410      122.60660319343646      121.65013169800967
H           98.79464472718925      121.81145740373458      123.65455265628435
H           99.22360084446700      120.14262078930761      123.28415022148889
H           97.90671684793435      120.23071181012563      121.20069130581622
H           97.51795404047688      121.92427697341594      121.48929073145369
H           96.22023283926825      121.36420967884729      123.46868055269155
H           96.76203436354616      119.68904464636944      123.41742133811481
H           95.57722441746874      119.29017778985367      121.33647171274916
H           95.14020370472591      120.99600111907237      121.19231324453276
H           93.82232566502100      120.83543251653956      123.28658275436321
H           94.22331721657289      119.12720839056527      123.42071763947926
H           92.69248071516760      120.35922697502953      121.08624415444541
H           91.94746023070414      119.63810113466562      122.50493171564496
H           91.88213783657129      117.75622174049766      121.23184023266003
H           93.54595023855090      117.56169537571745      121.76391991873891
H           94.31894654134324      118.66808710368583      119.65220370758826
H           92.63746720423978      118.84547252367959      119.15107365271835
H           92.33780576295482      116.41975404688750      119.10654452134411
H           93.91602140519394      116.17309237601570      119.84981728625944
H           94.09082423888341      115.63632316743049      117.53994558435620
H           95.02375571161205      117.10460461562552      117.83180883648517
H           93.30072096679103      118.47581488793477      116.77212419402899
H           92.19310222987001      117.10716711535731      116.70112594608709
H           93.70282318534318      115.91663887142865      115.16434179853987
H           94.89311707438240      117.20617056046066      115.28643018587073
H           93.39179594811851      118.77203704402405      114.15002339092695
H           92.08445805863848      117.59137010708284      114.15683551463346
H           93.37182153177078      116.07530200235590      112.72605449325847
H           94.78139077207855      117.12994368335347      112.81585539976099
H           93.63446349693628      118.87287938861985      111.54970684559896
H           92.13303108631986      117.94344645670859      111.53584386847918
H           93.12173978896087      116.20101978011400      110.17957938519493
H           94.74089350090350      116.84513237820548      110.42858859040447
H           94.19845135769951      118.83579015339613      109.08798119443912
H           92.55359084736101      118.24587162371374      108.83262667547810
H           93.41118879515986      116.22256446191368      107.73077930457229
H           95.07142364296335      116.72131847170959      108.02116405205898
H           93.09363302206150      118.28731844982023      106.31055864629865
H           94.20839558710991      117.07864257865774      105.67757489903624
H           94.99816412547806      119.69274738992115      107.02658833167781
H           95.03576261334032      119.32278279482283      105.30520150546060
H           96.63250063122507      117.36440954065128      105.96202739626808
H           96.82041093746436      118.21841848641034      107.49489170115615
H           97.49236842604618      120.28310992150047      106.16776489468643
H           97.45393502678451      119.28871292645498      104.71387084552866
H           99.09384234074270      117.71546428190179      105.82577855095970
H           99.23925782590619      118.86879587749272      107.14923665516841
H          100.03159355869607      120.59400256126797      105.46305367623489
H           99.96975215750467      119.33962708367511      104.22550418825743
H          101.48416991663058      117.93759535403872      105.76303823994363
H          101.72611357467964      119.39494066848881      106.71331173897566
H          102.72000456943488      120.52562931259710      104.73399430134334
H          102.41009832256458      119.08906752484383      103.75807936209840
H          103.79269020185210      117.74583618141430      105.37890741166653
H          104.21416365055209      119.23581875056340      106.21363127163112
H          104.85764973819060      118.59847998520949      103.30157313687053
H          105.95747270631800      118.38726435855607      104.66157583873333
H          105.67753371898395      120.91151738693846      105.10907203477066
H          104.90358758885057      120.99985202947676      103.52514301028538
H          106.94155976353022      119.84318686351062      102.55538684025520
H          107.71506651332784      119.98782177604436      104.12946632827114
H          107.50773708445338      122.49216745916132      103.95860164038643
H          106.79038482839067      122.29354179556429      102.35985635700307
H          108.85870791720404      120.95432572054729      101.71193432917590
H          109.59493887418361      121.47022078216636      103.22890889423860
H          109.25961238299853      123.87004024570335      102.49306472099586
H          108.66849125750231      123.26669156951540      100.94758234157371
H          111.45340977037245      122.81433171139466      102.11696406321896
H          111.03649005591014      123.89842985793713      100.79160254545251
H          110.18352201286754      121.87081121844261       99.51828836704230
H          110.87506769916509      120.85563552264450      100.78665290623017
H          113.11135652363008      121.98316447858519      100.34637403372342
H          112.38253955716573      122.72410464084297       98.92297506791820
H          112.66164020171517      119.73334350728312       99.47225276775204
H          113.62810186510458      120.67758413006335       98.34190861955611
H          111.51530732860189      121.20374667797923       97.05917912401172
H          110.64038246457685      120.10765777156186       98.12982366514198
H          112.15958846225286      118.24531362791512       97.44085933780107
H          112.96283913629530      119.34246684817273       96.31737369162128
H          110.79312637450560      119.70537610740293       95.13750477124222
H          110.00916049032368      118.58646649466517       96.25141054596980
H          110.58578634053438      117.44269971548596       94.12793359022510
H          112.28383942004405      117.87389015751531       94.33715119216296
H          111.51421821406117      116.75384634546042       95.46091155711092
H          100.05204982856742      115.24838790412539       98.02617050621669
H          100.27873181198230      116.29480676718447       99.42731981211517
H           99.68459578057866      114.64707697584649       99.64276156400894
C           88.04076468585924      102.08938220368286      110.26038602669897
C           87.61826754243630      102.62071287845562      108.89631502757221
C           87.14157009141542      104.06929707210887      108.97231312757170
C           86.77693444556911      104.65063105611645      107.60406854677673
C           87.98440900296136      104.98246499802946      106.72486396676540
C           88.73869443659113      106.22281089874419      107.19581685329459
C           89.98666708273257      106.49714937430596      106.36059774404931
C           90.70279888753053      107.75771594722441      106.83244960323070
C           91.99639872557889      108.03618640406714      106.07376128566132
C           92.55213896190811      109.40752884928288      106.44869581087332
C           93.83339086911541      109.77967961998459      105.70352120859081
C           95.06717424979051      109.07502493062989      106.25866056693391
C           96.36074042328434      109.59512048891457      105.63832158902557
C           97.60874960329647      108.91579538318445      106.20203040276344
C           97.92923575963373      109.34147186919849      107.63429373739778
C           99.03699949962370      108.50246396674312      108.26867786024872
C          100.42430137198095      108.78021676215559      107.70173761036578
C          101.46779056969308      107.82995087128982      108.28061084727798
C          102.85950393125289      108.09421711266796      107.71648791495556
C          103.85973122317367      107.01185370412261      108.10639601144764
C          105.23049429124099      107.24447432609198      107.47922645993255