3258
 energy: -3427.477467973116 gnorm: 0.000985637431 xtb: 6.6.1 (8d0f1dd)
C          111.35903197851152      117.64903506379649       94.86654234799357
C          110.95436157113669      118.81689058493635       95.75728864063073
C          112.01314637782059      119.12544089651952       96.81317907192896
C          111.61528682706590      120.31233389829957       97.68672380232520
C          112.63504147963458      120.58515042313644       98.79074148120614
C          112.33454085812912      121.85627005967633       99.58759655027715
C          110.97040168560210      121.81218483835508      100.27283692958578
C          110.77446298384854      122.95130504999648      101.27259077469313
C          109.33478845612069      123.04159267848263      101.78490593433106
C          108.87459817904025      121.75118570850810      102.45718253383971
C          107.48218939824613      121.84630310319919      103.07858948111783
C          106.98625262186087      120.45433547765359      103.46172900748638
C          105.61421193416930      120.43284949362048      104.12971184928801
C          105.12738472881368      118.99284937223740      104.28546068507005
C          103.94996848813824      118.81836785444366      105.24053523408504
C          102.63539272026308      119.43840676605122      104.76920421283157
C          101.50343304840428      119.02990582776070      105.70952832999356
C          100.11641815812521      119.51823117116599      105.29328096231275
C           99.03476031916365      118.77711435981165      106.07891170338162
C           97.61618882375738      119.26390603873665      105.79401357134336
C           96.57546213736993      118.34668037538654      106.43800965494231
C           95.15249535059151      118.89012498324684      106.30309165263583
C           94.06990578069788      117.82209357411872      106.46838980478903
C           94.06718804729583      117.09414615620186      107.81295009271609
C           93.58933370362080      117.93499970066252      108.99655811567244
C           93.69450205676266      117.12658699141332      110.28811464422347
C           93.22339606311530      117.86202206176917      111.54210116773388
C           93.68957333432712      117.11975533169044      112.79398884925097
C           93.17175203994482      117.70368666405381      114.10679088902351
C           93.82063135888023      116.99570376693158      115.29496996720677
C           93.24613454879739      117.39285772914862      116.65367816343358
C           94.00989397408031      116.69995033059796      117.78221113752770
C           93.35704549768602      116.81049732241281      119.15851803802441
C           93.32525787491406      118.22591093961555      119.73050103467499
C           92.87706951847301      118.20880940546229      121.19190060080295
C           92.82414901803926      119.59349501283027      121.85278657900668
C           94.04858972305234      119.93565901877977      122.70582697225805
C           95.32078059073226      120.18562801709500      121.90142147603231
C           96.50439117364741      120.55037316879954      122.79618963900484
C           97.72585491943833      120.97174237577494      121.98217861271206
C           98.98316326498602      121.11071771845336      122.83768413521852
C          100.17403019821634      121.59499764361929      122.01355547501726
C          101.48122609191067      121.58492303289714      122.80314612527421
C          102.64783909869921      122.10267184020194      121.96411089150153
C          104.00022762598348      121.85070859020246      122.62677089163917
C          105.16711406716287      122.53112270742859      121.90563186164668
C          105.31831117536791      122.17141352650125      120.42641562364840
C          105.64732808407324      120.70141158186951      120.17619472336766
C          105.71048979296296      120.39262905103143      118.68151305130046
C          106.17341521273420      118.96599029179714      118.39209244150133
C          106.02835902571768      118.61825714383133      116.91145202635447
C          106.65675653850660      117.27762928884569      116.52683462946295
C          108.18343680653619      117.32438230355130      116.51706939368803
C          108.80838634703993      116.13006843676519      115.79919689231437
C          110.33073015794275      116.23798008723335      115.77699757702798
C          111.00685375239169      115.11203168685283      115.00035854635112
C          112.52580883372768      115.26006623543179      115.03074965674995
C          113.24665522522655      114.17560140780681      114.23602678441951
C          114.76257028731506      114.31186491200222      114.34903942869867
C          115.51033252097228      113.26017635831906      113.53466763658516
C          117.01837143808163      113.34350292252904      113.75270243959609
C          117.78037940035146      112.28672671468570      112.95629463116826
C          119.26407056227099      112.22136544112145      113.32451713926503
C          119.48068314490658      111.49581989045518      114.64889466753047
C          120.93815533016522      111.48729102729628      115.09910087829817
C          121.12174376727259      110.77000341758797      116.43755136615417
C          120.57372905439445      111.56848808850576      117.61853145757094
C          120.73032357157976      110.81385454571070      118.93560690555454
C          120.20392111848103      111.58826776244889      120.14437021897245
C          118.70102202094688      111.86182568102501      120.08258359963587
C          118.14960913371816      112.31385591037072      121.43267216487581
C          116.66059312655918      112.64733057752441      121.36825007583563
C          116.10681186755414      113.01904666466106      122.74136103332783
C          114.65297222427121      113.49019447104834      122.71113798521931
C          113.64579462074228      112.39027961578937      122.37702696640771
C          112.21757305182480      112.86634756184974      122.63479033718690
C          111.15761049679922      111.82095824036071      122.29429323621298
C          109.76473439553872      112.30211498322667      122.69730274814329
C          108.64961363789112      111.37043652134535      122.22897751148861
C          107.28183387818383      111.84398119289260      122.71831476577525
C          106.13090786953688      111.06494955376320      122.08671944959526
C          104.77065802252942      111.53850254736507      122.59553093572293
C          103.61457602638104      110.92573455335456      121.80902123513329
C          102.25382080837235      111.42171896345366      122.29433173328755
C          101.12353373415120      110.99505661193012      121.36121193887163
C           99.76251486184823      111.52200161174284      121.80998826942468
C           98.66145624199191      111.14953736986935      120.82036862944148
C           97.27852962931624      111.61305414269371      121.27136202316741
C           96.22288769631196      111.30985028113935      120.20956654615915
C           94.78929753664622      111.59744145771639      120.65776666159901
C           94.49335778471303      113.08616464452061      120.82959188659558
C           93.04613738528565      113.36450215146277      121.24118931560415
C           92.03485085535202      113.11793824823846      120.12316994510209
C           90.61087955343758      113.42978861749380      120.57905471505872
C           89.54216828347120      113.05990126456565      119.54802574341488
C           89.59600184764651      113.85413404527193      118.24168201536078
C           89.32492764990995      115.34476507111283      118.42595900887628
C           89.28946279631731      116.09010587356686      117.09326183893248
C           89.14786008739760      117.59686935660841      117.30120211654744
C           89.26073925970869      118.41209930939225      116.01307670724172
C           88.07392099600962      118.24521462467159      115.06668234055452
C           88.22230083096528      119.13639160912528      113.83543071359279
C           87.00733732724134      119.07283970902742      112.91269164041735
C           87.14741770390762      119.97718138030163      111.68621128791482
C           88.14875783042936      119.44171934601449      110.66582845938926
C           88.32610803158738      120.37504013574036      109.47147469027809
C           89.35685028978327      119.83160385397909      108.48469240918701
C           89.56509376170690      120.75904079682516      107.29037481113717
C           90.59394144119872      120.19838024518550      106.31186901601166
C           90.79273519271518      121.10748828966292      105.10139111577384
C           91.78580319376768      120.54740314458746      104.08158245987514
C           91.27692078669254      119.26549759166413      103.42409930578430
C           92.05007130920566      118.86201011737003      102.16937739568174
C           93.47664278054727      118.38993717723694      102.44247265761288
C           94.12560987332101      117.85944849545751      101.16604381768985
C           95.53893848367349      117.32473161475316      101.38228955403112
C           96.16892453556396      116.89180392995532      100.06037687480237
C           97.60438900155683      116.39675797483179      100.21384954003773
C           98.21192938517557      116.01619822304586       98.86525267281968
C           99.64603098762323      115.52131005410057       98.99852232819303
H           97.60131865793936      115.23563203018813       98.40528697408294
H           98.18768299899368      116.88507274742530       98.20315240874531
H           98.20920187090844      117.18259896340811      100.67240005879465
H           97.62428925292032      115.52941126792054      100.87808386716515
H           95.56108876719557      116.10048789113694       99.61402483787015
H           96.15810173905456      117.73920590314728       99.37006926497152
H           96.15441380902388      118.10240115113511      101.83815927314284
H           95.51047771590112      116.47739431769075      102.07179172623499
H           93.50323865435749      117.06175496309744      100.75128467000138
H           94.15946613107255      118.66331476807723      100.42641023933423
H           94.07266591010898      119.21575376550180      102.83459415755853
H           93.45883902200785      117.60245971297482      103.19935594947469
H           91.50687303261840      118.04975250965454      101.67785034345394
H           92.07602782509036      119.70359047909599      101.47284495455364
H           91.31965313405269      118.44618439782383      104.14258239389750
H           90.22935629537849      119.41105358225278      103.14737986754818
H           91.95079970187028      121.30060090392827      103.30684767204595
H           92.74135540599133      120.36119444589292      104.57431252453088
H           89.82927106053930      121.26671832229700      104.61042058652711
H           91.14784320291187      122.08243332226483      105.44537730470329
H           91.54886391355457      120.07158097363092      106.82721393870625
H           90.25831871843120      119.21481349443485      105.98029168265033
H           88.61324220414497      120.89997503024213      106.77256663199650
H           89.89319889375807      121.73947868590020      107.64452182035848
H           90.30957032460998      119.69289786113688      109.00190044309973
H           89.03171213402214      118.85164644878800      108.12686277649736
H           87.36797574867740      120.50558442144029      108.96299749061406
H           88.64629282447845      121.35836194560112      109.82534519969515
H           89.11977954539753      119.30071963005948      111.14370383687428
H           87.80686851594874      118.46701429695457      110.31098574633734
H           86.17267281028292      120.07536055605217      111.20220605326431
H           87.45465841880808      120.97469819715987      112.01020517234662
H           86.84817241670233      118.04329356278285      112.58390551837866
H           86.12361193250189      119.37780439730336      113.47861456919122
H           88.36436074143079      120.17091436157031      114.15784604341015
H           89.11800866991607      118.83364862003418      113.29066739732096
H           87.99496945831153      117.20416220430404      114.74851261575461
H           87.15284139126913      118.50307935756915      115.59492980347936
H           89.34296381374122      119.46917819048232      116.28051233270504
H           90.17961161333446      118.13575847956352      115.49041869007850
H           88.18816039615388      117.80703431699648      117.77894927135745
H           89.93332323190243      117.92680699299427      117.98700428037478
H           90.21161622448840      115.88449577603164      116.54346732498213
H           88.45855782567305      115.71579445393026      116.49290216543911
H           88.37199772650034      115.48075579973563      118.94294748366899
H           90.10443324773398      115.78277694934005      119.05237332445705
H           90.57001720313436      113.72238290429510      117.76833307256373
H           88.84477556232271      113.44271833242537      117.56181533775498
H           89.64049647587883      111.99687556661961      119.31195010964913
H           88.55844370860152      113.20431382920391      120.00223867159600
H           90.40740058516175      112.86469635506781      121.49267241690855
H           90.53303085375082      114.48842434891483      120.83232953059573
H           92.29814168531105      113.74362148038738      119.26909741982880
H           92.08118708864708      112.07455794981954      119.80542350143618
H           92.79410443659567      112.74131958129396      122.10268918317834
H           92.96367503406157      114.40780405853940      121.55706245491238
H           95.15279476845714      113.48971669094024      121.60073044439839
H           94.71089433327965      113.60970243982217      119.89493610062040
H           94.10946239468518      111.18102958436151      119.91185191409224
H           94.59759813697772      111.08257160855133      121.60217057458286
H           96.44280656774531      111.88849896672022      119.30898663591235
H           96.29592685383128      110.25198637503557      119.94385852784688
H           97.01271239900478      111.10793877016940      122.20287901545245
H           97.30917658803955      112.68479057402575      121.47478227351122
H           98.88804803295123      111.59435150983403      119.84882086541548
H           98.64760191537475      110.06463430028036      120.68957639867570
H           99.52167175906020      111.11581922161074      122.79500285111223
H           99.80964268225875      112.60958668965792      121.90597194748436
H          101.33332970628243      111.36547122897292      120.35437161032749
H          101.08786954786517      109.90384829352472      121.31129883478579
H          102.06259547171443      111.04144198917076      123.30020795258842
H          102.26998934356693      112.51214344749746      122.35435725037615
H          103.73163512517615      111.18420058371311      120.75368794617462
H          103.65382811165576      109.83653914696045      121.88909672792764
H          104.66851847267395      111.28824376879082      123.65388611854767
H          104.71734717905932      112.62682542091702      122.51114847397366
H          106.17159776435167      111.19057527721743      121.00229242261474
H          106.24820582871847      110.00004144398464      122.30194930455971
H          107.23329990632145      111.74919227242754      123.80561937240043
H          107.16458525417936      112.90470937283301      122.48039077006854
H          108.65009598589492      111.32823583288368      121.13770015245905
H          108.83771389944380      110.35963001281584      122.59825033713432
H          109.72108714762248      112.39730552169513      123.78497512612658
H          109.59583888277623      113.29812785320992      122.27877997526691
H          111.17804684976915      111.61448748341665      121.22196198701596
H          111.38414246186757      110.88613662560947      122.81196782543752
H          112.12098567775655      113.13522054226637      123.68988001204092
H          112.03037531005225      113.76995029559487      122.04910410900953
H          113.74883654461038      112.09788064737423      121.33031395707476
H          113.85000401326370      111.50972385108543      122.99077581510453
H          114.40432858647245      113.89465079334043      123.69619493140725
H          114.55051281694391      114.30051161692099      121.98519737614744
H          116.19337090254983      112.15924818863999      123.41031815090551
H          116.72184222870813      113.81996256773846      123.16074228672886
H          116.50401824494399      113.47751770708034      120.67492481454649
H          116.11942215943394      111.78271959971157      120.97920300977857
H          118.30928761688195      111.52238256610148      122.16945669786556
H          118.70223842722511      113.19326069487175      121.77303156005752
H          118.49335942075115      112.63446996561213      119.33980231593534
H          118.18363644240594      110.95070520920397      119.77295937087830
H          120.41699255274246      111.00539010141500      121.04410396890870
H          120.74210601496517      112.53516342582766      120.23283348699525
H          120.19964374184180      109.86067727291970      118.86574906277230
H          121.78845910571991      110.58922850279912      119.09434705041463
H          121.09509916449400      112.52691861634520      117.68186959615349
H          119.51681551347545      111.77680176505233      117.45540274396549
H          120.62189631444083      109.79913107626216      116.39443450169095
H          122.18457455797014      110.57767391383756      116.60483022707314
H          121.54218099971160      110.98966016960800      114.33650395582116
H          121.30259773603738      112.51359191517058      115.18640547070675
H          118.87154653235794      111.97266011899842      115.41616912402114
H          119.13500008646204      110.46515915473213      114.54609123622899
H          119.81013408836792      111.69403954521506      112.53735278005854
H          119.66975135632362      113.23349391163114      113.38834492468655
H          117.33279748085724      111.30642202770093      113.13413849712393
H          117.67609781029304      112.50738389098950      111.89047023200357
H          117.37387093524143      114.33529028215317      113.46595524631809
H          117.21996757795677      113.21746204294340      114.81721198286431
H          115.16223178363063      112.26589418184955      113.82600195850334
H          115.28394885212417      113.38944203792066      112.47341214356892
H          115.06068759473433      115.30683952692821      114.01090057015610
H          115.05074703564208      114.22040822018718      115.39870328593821
H          112.94421583348937      113.19398649776197      114.60828901613914
H          112.95134806755512      114.23699974831958      113.18564566822444
H          112.79649080644329      116.23908712551452      114.62781687607580
H          112.86679079041986      115.22637833299336      116.06870604606587
H          110.72536321520666      114.14946549950731      115.43229743875698
H          110.65981962756567      115.12402618757599      113.96395507987592
H          110.61228432187146      117.19411265935511      115.32999288102164
H          110.70448212053010      116.23415463355416      116.80464096965454
H          108.51149033231803      115.20454343558617      116.29635440529069
H          108.43343394164377      116.08897700073868      114.77290550566634
H          108.50546182958193      118.23998404191842      116.01564074317130
H          108.56119199081405      117.36287010272019      117.54090105721167
H          106.31191417496447      116.49886209535501      117.21053849969063
H          106.31244221273903      117.00651812331222      115.52539819547165
H          104.96356281428102      118.59586984491293      116.66298089780715
H          106.48526539443566      119.40856323006514      116.31007168724247
H          107.21604559693019      118.86418081738452      118.69812955874028
H          105.58114179446677      118.26321779837104      118.98345399551397
H          104.72221606924400      120.54754291993316      118.24371963899067
H          106.39353738407755      121.09528258269997      118.19622357561579
H          106.60455595465055      120.45988629243087      120.64356554753330
H          104.88709657972271      120.06872633419334      120.63749003727736
H          104.40359045875464      122.43417178802083      119.89192860592946
H          106.12064875996515      122.78494685341980      120.00746982013411
H          105.03690817307765      123.61398350729631      121.97994559510238
H          106.09323142358342      122.27507216570102      122.42658553885572
H          103.96905962170132      122.22807892847661      123.65220550839106
H          104.17667644672446      120.77508713517730      122.68447434399661
H          102.62191667917561      121.59880197024071      120.99748580930091
H          102.52120389083244      123.17324482049222      121.78597929407253
H          101.37297013817746      122.19532577182693      123.70240483617887
H          101.69627625557771      120.56327376724352      123.12344748994482
H          100.28759696721123      120.94890754571307      121.13917584668755
H           99.97521822287271      122.60654247200874      121.65070164120120
H           98.79465697805885      121.81219159622788      123.65347281125720
H           99.22401066081494      120.14293873288958      123.28483262915103
H           97.90735635115355      120.23111851548940      121.20000331359785
H           97.51851330511745      121.92420878364432      121.48982993996508
H           96.22072171866226      121.36426190046488      123.46758339253179
H           96.76242541376607      119.68887930992823      123.41730636014368
H           95.57819754227454      119.29029432616456      121.33549731524127
H           95.14109883768006      120.99597369995702      121.19222884167176
H           93.82337178646418      120.83504061901964      123.28553496630197
H           94.22410651164755      119.12663365167380      123.41969866841953
H           92.69262653772761      120.35887547310267      121.08586379693313
H           91.94873164958587      119.63715788173388      122.50478982342881
H           91.88285999852158      117.75621800017736      121.23074635706178
H           93.54660861722734      117.56146367739950      121.76315605255039
H           94.31926614047228      118.66822190340821      119.65117523140485
H           92.63750452408843      118.84544363097308      119.15081485839431
H           92.33821472595525      116.42030058256988      119.10517485649559
H           93.91613899645796      116.17320854434503      119.84904135894432
H           94.09094831335437      115.63657932369131      117.53941243754682
H           95.02429610651872      117.10445263716659      117.83111716256663
H           93.30131489559926      118.47600881646041      116.77185186557098
H           92.19380080677446      117.10703541498060      116.70086080685549
H           93.70331099831789      115.91709337165408      115.16409038771249
H           94.89381641600262      117.20613595601336      115.28659029014121
H           93.39340270926485      118.77222083394916      114.14987408766945
H           92.08569969062651      117.59162250371303      114.15662514890009
H           93.37286007234545      116.07589418503235      112.72582384180348
H           94.78237285166766      117.13071113002782      112.81575171904682
H           93.63555825238555      118.87309435394951      111.54957850081722
H           92.13402764992327      117.94333738689906      111.53589650270693
H           93.12220604855958      116.20175672258701      110.17945195811318
H           94.74141885627289      116.84544612445201      110.42846730320430
H           94.19949015217003      118.83580231255050      109.08788504768297
H           92.55430633601691      118.24596336604999      108.83283381063272
H           93.41102768910876      116.22331109503594      107.73097314554654
H           95.07146112364954      116.72128094558097      108.02110729381570
H           93.09399441650305      118.28796688432683      106.31129488589754
H           94.20871850582012      117.07914545911183      105.67775582418808
H           94.99829587751630      119.69291680499683      107.02672452160695
H           95.03627772177055      119.32231143982077      105.30523563095214
H           96.63220937613386      117.36509918899513      105.96144359960923
H           96.82074482540771      118.21832645023055      107.49480702836446
H           97.49229701578896      120.28339335779296      106.16758166212627
H           97.45407898641066      119.28795640273019      104.71391365179363
H           99.09334594569050      117.71582058285003      105.82594333299831
H           99.23896204313877      118.86883421803562      107.14934452982106
H          100.03130020900284      120.59390467028364      105.46392123343311
H           99.96938849800222      119.33955540458230      104.22589493550576
H          101.48397591421811      117.93799048980165      105.76316513546872
H          101.72591223468976      119.39503831440955      106.71327118418634
H          102.71999638285918      120.52581429628417      104.73490040720509
H          102.40990139523855      119.08938867975742      103.75837869284420
H          103.79237293901772      117.74608024854078      105.37896728368693
H          104.21352655258600      119.23583880025848      106.21375566230220
H          104.85710889003471      118.59894049414459      103.30211182159792
H          105.95675289487532      118.38681193571998      104.66206490077428
H          105.67701869321705      120.91145938725319      105.10957161913866
H          104.90327557379926      120.99919263628280      103.52514522619926
H          106.94105647971072      119.84341630510170      102.55631211088769
H          107.71462747321755      119.98802568513334      104.13024445769210
H          107.50832566525418      122.49194261739630      103.95957795000639
H          106.79039928335796      122.29357020200275      102.36078021111683
H          108.85763409763229      120.95431306313144      101.71225041436387
H          109.59451763388553      121.46925662904056      103.22909144555970
H          109.25932378326195      123.86970084828526      102.49315383942438
H          108.66888203619266      123.26521313223046      100.94772829236410
H          111.45376365968448      122.81446849693955      102.11738770080296
H          111.03597053092282      123.89689519132993      100.79119678959522
H          110.18333425773555      121.87065780463229       99.51920392348154
H          110.87402875234632      120.85431161606535      100.78700644418551
H          113.11101699158574      121.98277850524003      100.34687793577713
H          112.38100328895587      122.72211798973115       98.92312675257449
H          112.66254998416554      119.73207188646460       99.47377656613287
H          113.62752693665524      120.67700223344347       98.34286284254303
H          111.51610113913392      121.20244200966854       97.06070319421197
H          110.63989551141316      120.10699091479790       98.13095974248688
H          112.15973597112726      118.24422051415355       97.44295435977115
H          112.96227180746217      119.34145497350242       96.31888510618107
H          110.79314135940481      119.70345635429545       95.13957832330296
H          110.00894821636285      118.58446638336878       96.25343657973325
H          110.58634867436913      117.44187910278701       94.12959769275723
H          112.28429349649143      117.87231984540151       94.33990235275198
H          111.51353568133693      116.75183352387820       95.46250811424451
H          100.05087451402537      115.24783469702308       98.02688879103405
H          100.27935440013428      116.29486495166529       99.42697920675701
H           99.68437194309726      114.64733058475112       99.64383605951716
C           88.04188211437803      102.08883640802310      110.25950601677867
C           87.61941907003120      102.62026658667659      108.89555074510982
C           87.14303703364928      104.06893731860227      108.97242650621482
C           86.77794955160653      104.65032624320126      107.60448904768981
C           87.98505168336357      104.98217185343945      106.72493380757415
C           88.73865797535757      106.22288835313286      107.19652670172196
C           89.98671886888961      106.49693946023048      106.36103768315253
C           90.70304010486709      107.75750239160645      106.83327684798027
C           91.99670361439394      108.03543866708890      106.07399627160602
C           92.55234597088865      109.40687526625985      106.44987570903915
C           93.83345348966405      109.77943655531296      105.70414450624850
C           95.06741221054912      109.07466941711812      106.25964639433208
C           96.36074878212176      109.59544484894232      105.63859916568438
C           97.60909542252746      108.91570263316967      106.20180942733812
C           97.92964904795330      109.34197163882895      107.63423225959774
C           99.03700293725039      108.50181899122454      108.26853711483967
C          100.42445467156148      108.78011926974945      107.70126995596310
C          101.46779752108429      107.82935732267664      108.28058936475682
C          102.85975714250274      108.09381763164734      107.71607037490097
C          103.85982790505111      107.01084541317168      108.10632858617006
C          105.23074628623819      107.24410688098047      107.47874180841229