3536
 energy: -3716.261421723068 gnorm: 0.000663620179 xtb: 6.6.1 (8d0f1dd)
C           59.27819638856358       55.23053521103266       51.02665614569531
C           59.99593885881651       55.28530870418405       49.67982343775866
C           59.51106169108605       54.14220368109569       48.79270142951658
C           61.51806840168448       55.23169757752504       49.86378074677511
C           62.29731462410285       55.78862727262808       48.66331994243230
C           63.71852143280587       55.22949745567128       48.65117730407714
C           62.32556361325540       57.32267789481748       48.69709438748843
C           62.50116606918067       57.99051586090449       47.32575163957072
C           62.97600248294341       59.42887570519053       47.52167916768958
C           61.18639260400523       57.94287525402707       46.53904988137906
C           61.26805084056907       58.41219943682677       45.08101689610803
C           59.86068093646673       58.46907987554124       44.48665711286041
C           62.18497788971346       57.51147433870852       44.23270444709392
C           63.37114629935425       58.25534632326936       43.61250387259296
C           62.89009682292004       59.20590516147593       42.51656474794164
C           64.40357915219023       57.29785510389310       43.00398433489291
C           65.15328083926832       56.37476159983589       43.97227941488145
C           65.90674036652132       57.17569628161429       45.03302341396476
C           66.15555605560057       55.50159158726336       43.20070782280086
C           65.53622120773818       54.35328160165363       42.38979008812513
C           65.28180486401791       53.15387784197576       43.29954127156610
C           66.46492974645737       53.98823687546670       41.22413611115898
C           65.90412337012357       52.98761313683057       40.20349428120787
C           67.05067008554613       52.46778799925283       39.33571276591370
C           64.81662476037511       53.63388335660754       39.33741411575147
C           63.94866874723783       52.64352635806271       38.54823440611439
C           63.13090642445422       53.41447096886125       37.51026095238930
C           63.04115657645071       51.81799239135899       39.48071379330266
C           63.12372047140426       50.30458007192748       39.25153805372235
C           62.44974150001429       49.91950774513268       37.93397118205435
C           62.46863543448223       49.51295314261893       40.39207121442833
C           63.14285928134650       49.58893643796466       41.77079877590047
C           64.60817552452777       49.16625945654310       41.71094441805378
C           62.35159156601353       48.69286681858386       42.73523468711810
C           62.71084281172703       48.79385633190797       44.22505419451576
C           62.06719155847326       47.62727348627806       44.97347110915593
C           62.25462925225819       50.13703906814153       44.80272426548006
C           62.72121930060566       50.46720261467350       46.22809206394868
C           62.06307486965282       51.77911586773218       46.65393105681621
C           64.25116516972544       50.54665123971187       46.29221353122767
C           64.84194445129098       51.02287480896907       47.62518834470526
C           66.34778195984191       51.23146649859827       47.45056712311747
C           64.55343027656549       50.04606940413676       48.78049085233337
C           63.91948349225596       50.69025574271017       50.02332638765655
C           64.83982876956361       51.74823113606158       50.62344298028224
C           63.59782686807096       49.57949376363617       51.03388852012068
C           63.07018838419339       50.02557927372109       52.40418005653289
C           63.08373223473713       48.82483053968276       53.34941042098636
C           61.66344351793714       50.62917469834039       52.31918175755984
C           61.26490974220872       51.44910291656287       53.55623218443235
C           59.74395229901250       51.55628509162143       53.64842198228694
C           61.89852446053222       52.84570549107463       53.51841915905850
C           61.93481951521612       53.55662849335526       54.88443568598304
C           61.32708539095782       54.95463723979180       54.78083211370561
C           63.36434067728711       53.67185492992162       55.42898368852141
C           64.05071008368924       52.34357222035774       55.76773954605459
C           63.47472760977850       51.73184690018148       57.04160432235079
C           65.56344161518253       52.56662328337637       55.91749103973379
C           66.31571254929965       52.55211106200291       54.57595171255472
C           66.66887499703977       51.11748301971953       54.19381610561102
C           67.56211374088122       53.43800580885321       54.67419052992941
C           68.44623723634486       53.54703086750996       53.42242921225763
C           69.60365333302381       54.48980420938427       53.74675966082334
C           67.63000047278751       54.04878139774264       52.22675825810867
C           68.40554143678089       54.42961637806950       50.95644499964339
C           67.39657023559393       54.91380592135895       49.91539068537188
C           69.22746225794194       53.24944757288421       50.42505417450372
C           69.98914717942759       53.49597042019055       49.11379709651172
C           70.53034861082972       52.16383745675839       48.59267888342073
C           71.13173436964036       54.50773662565831       49.28565928090515
C           71.55766713849619       55.19593429321245       47.97710541497315
C           72.97582151340553       55.74804214410585       48.10983728207160
C           70.56563104583734       56.31237995259694       47.63476407930013
C           70.63213619874185       56.91995336235473       46.22426118095562
C           69.55102224198711       57.99800451122938       46.15121136785387
C           70.46738933323471       55.82239233366833       45.15975823864548
C           69.98947919302100       56.24085078155444       43.76098477294118
C           69.88137421342473       54.98013698408574       42.90140132658958
C           70.90844771861063       57.26833704107348       43.08773712314809
C           70.29014710299499       57.96812408095234       41.86333063337680
C           71.38740099998589       58.68791543862447       41.08018346279022
C           69.19326046076898       58.95082119372263       42.29156971961403
C           68.30509505162533       59.54471482079381       41.18404091108579
C           67.37769025611234       60.57224276967634       41.83514974249749
C           67.50769811927732       58.44388284131291       40.47607715888155
C           66.54177659403560       58.88321284578075       39.36742390962163
C           65.71218483124025       57.66961079820931       38.94049737965217
C           67.26688334407127       59.48544426464603       38.15001814584352
C           67.24662162818160       61.01242561620545       38.10421164216856
C           67.91748124204155       61.54725834002127       36.84456299906638
H           59.52371006727500       54.30863276332624       51.55026353359437
H           59.56625903764017       56.07037144597021       51.65459781657477
H           58.19906371991308       55.26410338800320       50.88984114858701
H           67.89170836435001       62.63466663493904       36.82791403560373
H           68.95702714443631       61.22872014244430       36.79994036061129
H           67.41001274042496       61.17888867331587       35.95511997499423
H           68.30298318103245       59.13920088088611       38.13088158415803
H           66.79233058383919       59.12006788220059       37.23555054905684
H           68.20421812020759       57.72560197586873       40.03735199573813
H           66.92929056030941       57.91200664252673       41.23537686076643
H           68.93728814544866       60.05860665429200       40.45388516840977
H           67.95981511106518       61.32085501166349       42.36768037092836
H           66.76658057557374       61.08603334457842       41.09889579371055
H           66.71647687574188       60.08544388250204       42.54950037867214
H           68.52914997284023       58.45128078300913       42.99965478873352
H           69.67439932517993       59.77862412167499       42.82126820791976
H           71.20379190940415       58.03425377564695       43.80622891399604
H           71.82207114920190       56.75656782142795       42.77306968530300
H           65.84703039726540       59.62727468341305       39.76834937904263
H           64.97770446785245       57.95060995845986       38.18843679374460
H           66.35505436676023       56.89904081829226       38.51849878720336
H           65.18291599205091       57.24595523520689       39.79104488445244
H           69.85728843613921       57.20244192687846       41.21482180547318
H           72.15674668662827       57.98587613907417       40.76474036190692
H           70.98316918269954       59.16519785645573       40.19092084801395
H           71.85534414833388       59.45312529968228       41.69703282972620
H           68.98741116895809       56.66289062673123       43.86008540938533
H           69.46263463979628       55.20434364411964       41.92440820446070
H           70.86242209949874       54.52989029839700       42.75871774392549
H           69.23840288258906       54.24570156744512       43.38127670090407
H           71.42301445166038       55.30295544701550       45.05121403744450
H           69.74294382578545       55.09440190021948       45.53620278929912
H           71.60492978742312       57.40454329666264       46.08642403107809
H           68.56487536120815       57.55905564745436       46.27822493285125
H           69.70629366583624       58.72130632515920       46.94897828472993
H           69.57557275390825       58.53352573648834       45.20823510424792
H           69.55285744326000       55.92662209154085       47.76780818994061
H           70.69968677756603       57.11849057047542       48.36103403086097
H           71.55438585670878       54.45077814344728       47.17679236257597
H           73.68202748210911       54.94737234560154       48.32148283611857
H           73.28798368463771       56.23910428231697       47.19124558391033
H           73.02843701223709       56.47319578854390       48.92020341253063
H           70.83843830418537       55.28279103746259       49.99615078298754
H           71.99277396606938       53.98812166185476       49.71387293971548
H           69.28720664908087       53.87498411565018       48.36717667300216
H           71.16640550166602       51.69070957340961       49.33881705258532
H           69.71447514893050       51.48299434307734       48.35953052163374
H           71.11819056932973       52.30801208135533       47.68894043537671
H           69.95045132991169       52.94321263543328       51.18438810420034
H           68.54372313718365       52.41121838017169       50.26583232798460
H           69.07470092473265       55.26188518989877       51.19526384068312
H           66.71014345077332       55.63012238908378       50.36027820621253
H           67.89130484852382       55.40210168245989       49.08053660028880
H           66.81426190225355       54.08039483543531       49.52986589629636
H           66.90021555570739       53.28591183366688       51.95248516589845
H           67.07428294734730       54.93188999976306       52.55348520897493
H           68.85985446504031       52.55991013336288       53.19387774337385
H           70.35151606194273       54.48830385381129       52.95929170011267
H           69.24061730629487       55.50732995451013       53.87295297781993
H           70.08654032755361       54.18587649707219       54.67318993576362
H           67.23611565409880       54.44729815737144       54.93991319092161
H           68.18125213868659       53.07057458730858       55.49648547784438
H           65.65777982062357       52.96486139328906       53.80482540772452
H           67.39019931013237       50.70698357474551       54.89891716206147
H           65.78247467704793       50.48696298226198       54.21122202192157
H           67.10158603111529       51.07011221709440       53.19797591101159
H           65.72444495733757       53.52228864404712       56.42223472913183
H           65.98636277251232       51.79238141133613       56.56123396315018
H           63.88511855892933       51.63687869588691       54.95020061012666
H           62.40664530598789       51.55398594225513       56.93883360596176
H           63.95601183316381       50.78026553598100       57.25588562680632
H           63.63351702414519       52.39284223668018       57.88989548534036
H           63.96825658039970       54.20378478417884       54.68822919662114
H           63.35003586128705       54.28830041679664       56.33292160054668
H           61.33458630614849       52.98675386189347       55.60042874055697
H           61.90381524840206       55.56537594233868       54.08867663943376
H           60.30206542252217       54.90317392695823       54.42112877532062
H           61.32276163960073       55.44894020248648       55.75085059118701
H           62.91642027077562       52.77064060058600       53.13343157835766
H           61.33991871923760       53.45360848716818       52.80324751067872
H           61.61982768285796       50.92954762286975       54.45174057922193
H           59.29916350916622       50.57338764381790       53.78787865966520
H           59.44821771192924       52.18530691903167       54.48438373235848
H           59.33547303503194       51.98755176689344       52.73623803802184
H           61.59247343601029       51.27599436081700       51.44237250957772
H           60.94939742609455       49.81315510911885       52.17976880743286
H           63.75533282432735       50.77377562141620       52.81006136806744
H           62.44983847813842       48.02958121687828       52.96314790219177
H           64.09483561633375       48.43481967759060       53.45378299593511
H           62.72506457270936       49.09778586852253       54.33913170818209
H           62.86951207435206       48.89773171981303       50.58585922616039
H           64.51612993964021       49.00749499278248       51.19826608738047
H           62.98611586121461       51.17542508978259       49.71649250473393
H           65.72103067162703       51.27966168600030       51.05585337607468
H           65.16313105688833       52.45469358182766       49.86481360668947
H           64.33071703626696       52.31577286710929       51.39750226357059
H           63.88587422591008       49.25611260338186       48.43223008684223
H           65.48433102609802       49.56111800045861       49.08249139471508
H           64.40338794789535       51.99593627684509       47.85890030877075
H           66.54667936305307       51.98513595712035       46.69058476258699
H           66.80761228041909       51.55666702284545       48.38052964971853
H           66.82880625060302       50.30454848099620       47.14024846969755
H           64.66801038881229       49.56008710535625       46.07470328160655
H           64.59097390603385       51.22688964536479       45.50631535575346
H           62.37411426722797       49.68397859755174       46.90625514278749
H           62.22746582857548       51.98122905062284       47.70787150149335
H           62.45822254258204       52.61019507283488       46.07348819750593
H           60.98908308221836       51.72588458912004       46.49178621217484
H           62.60562392443463       50.93947213174362       44.15126299391733
H           61.16127886614311       50.15834353385857       44.78334312363162
H           63.79394879970611       48.70397885361375       44.32783675268541
H           60.98209912898043       47.68555902599915       44.91385573650500
H           62.38094935463812       46.67783971192017       44.54416982920325
H           62.35337322855160       47.63217245141654       46.02134992473454
H           61.28890356678051       48.92384722554824       42.62668696808299
H           62.49214498799634       47.65653230950632       42.41490606207678
H           63.09416202764419       50.62187763894388       42.12841031607977
H           65.17980539986709       49.81641851004019       41.05398886175774
H           65.06279738506176       49.22030662563049       42.69651590817718
H           64.69620421582644       48.14488779713255       41.34568234406859
H           61.43536485283856       49.85518057737748       40.49469189948688
H           62.43454822509271       48.46092931444409       40.09504358624647
H           64.17780836100260       50.01749547529149       39.18187294266792
H           61.39409803004853       50.18586088032440       37.95452606419527
H           62.91702647629450       50.42775538326828       37.09430799009792
H           62.52662822281003       48.84728598784267       37.76276196564455
H           63.31055368263321       52.03114029457608       40.51472597070605
H           62.00309300162927       52.13033241328415       39.35071486837742
H           64.61101777925894       51.95967114226182       38.00740937313885
H           63.78743629860202       53.90955857226621       36.79689020513364
H           62.47189141057761       52.74861462723541       36.95829596871713
H           62.52221299964548       54.17597514860876       37.99319126847424
H           64.15604167407670       54.23191758149378       39.96807776449180
H           65.29846874816755       54.31983893674817       38.63592911264102
H           65.47827350687983       52.13609617967207       40.73968159225851
H           67.53332486064488       53.29001148664348       38.81024373791605
H           67.79876222358349       51.96931578671267       39.94908552146943
H           66.69383480164133       51.75491558975042       38.59625586285029
H           66.73038308312246       54.90218337125116       40.68567957337012
H           67.38669226146452       53.57671336715908       41.64272484794606
H           64.57726062197059       54.68589727127272       41.98393749952071
H           64.73845884453264       52.36908722379394       42.78015026258836
H           66.22475211472133       52.73722661679061       43.65051677172367
H           64.69450302165870       53.45394118539159       44.16400848906339
H           66.72727639195395       56.14875994270970       42.53211367240619
H           66.86700764357649       55.07031528087315       43.90848722630805
H           64.43764231901807       55.71811032388365       44.47671185619972
H           66.46800350282588       56.50576056318872       45.68178279515730
H           66.60592936910743       57.86442679650362       44.56156731750230
H           65.22930943125235       57.75267595832939       45.65608163618709
H           63.89637969037673       56.68905513448669       42.25153089265078
H           65.14619311367350       57.90527660932211       42.47915543873912
H           63.85807904634801       58.85114037838759       44.39088362495304
H           62.40331152588001       58.64525492161075       41.72192363413892
H           62.18200636875955       59.93133647605846       42.90891432620631
H           63.72669427909853       59.75045757675898       42.08206388613200
H           62.56029577415762       56.69877086383320       44.85343237351034
H           61.60699475883234       57.05357406665912       43.42764094217373
H           61.66677050160467       59.43116588744564       45.07232548133775
H           59.23399446258814       59.16071239508310       45.04603497476748
H           59.89319670914701       58.80523265666475       43.45269848110315
H           59.39366670410449       57.48608393764704       44.51377781042962
H           60.79808257052353       56.92146982428861       46.54620585809825
H           60.45913373507643       58.56685539796693       47.06372411113374
H           63.27287473916745       57.44726863763683       46.77199598549690
H           63.14515030708422       59.92513286122828       46.56908609773144
H           62.23415625526522       59.99681146145143       48.07937490244736
H           63.91084734074570       59.44904150750303       48.07768010477540
H           61.40500046093020       57.70087662380661       49.14460828452874
H           63.14966445316365       57.63119811403424       49.34537200295605
H           61.80000398186601       55.45994392002802       47.74532045932001
H           64.30593922508622       55.67357497267215       47.85059171158103
H           64.21705757450231       55.43700395532660       49.59542212511987
H           63.70340080982945       54.15191348742420       48.50319780627571
H           61.80033435126391       55.80043201303371       50.75300454986456
H           61.81178172358216       54.19337420281438       50.03705407256906
H           59.73615067897027       56.23055294583935       49.18963300208370
H           60.02301432245122       54.14582613490802       47.83344372531430
H           59.69582185383627       53.18294069333248       49.27270329466124
H           58.44218132288372       54.23193024070120       48.61093841914079
H           66.20925546080129       61.35624361372741       38.12748452251715
H           67.75262298656550       61.42148585362787       38.97976951339829
C           47.29679056658912       46.55795550621845       36.81204548105181
C           46.43127693099551       47.56919396787001       37.56216831348875
C           44.96059825336650       47.30369182212129       37.23718509028143
C           46.79953815058845       49.02064760658298       37.20996692135233
C           47.79795686476119       49.73203204859577       38.13834852325061
C           49.19240224816985       49.10802508595119       38.08032535278666
C           47.35717376856905       49.79955326772085       39.60684254060475
C           45.96002060249913       50.36419844285164       39.88653657320501
C           45.84563110838315       51.81127537435996       39.40896092636678
C           45.65863402377736       50.29600130278772       41.39236569410831
C           45.33033002566424       48.89558028324518       41.92289548864019
C           43.91996928919419       48.47897121443383       41.50297589194541
C           45.42373871074023       48.81777430362443       43.45403428449181
C           46.76668003894309       49.19896894161126       44.09663254478650
C           47.93497602931853       48.47593537142011       43.43764190167391
C           46.69702426408908       48.86577484498751       45.59353648882716
C           47.84768946798837       49.38796421908598       46.46727954165716
C           47.76863553996977       48.72312363060777       47.84099497841800
C           47.79971791927798       50.91518701290297       46.58183458934037
C           48.85860195435388       51.56437331757436       47.48661403750011
C           48.62888583192208       53.07364972381199       47.48672024633093
C           50.27269833109063       51.20801784181953       47.01256109838141
C           51.44159683085819       51.89608848012030       47.73505278078622
C           52.74640772942559       51.43772186572944       47.08444349725616
C           51.43194215026957       51.57890011267308       49.23362306249272
C           52.49635910914697       52.30249901405882       50.07069576828779
C           52.54473345398164       51.66878018799235       51.46132486455409
C           52.21791758829794       53.81387481615484       50.16683282897451
C           53.42260129530006       54.71451193414081       49.85636800565731
C           54.50721753087175       54.56866204850859       50.92002334088585
C           52.92715407020082       56.16341408313817       49.74665127281099
C           53.98596173270776       57.24862021234738       49.50222637490736
C           53.28075053656953       58.60333267205153       49.43340144967756
C           54.78015377649813       56.96504005448821       48.22235406021860
C           55.76508362711638       58.05846501002225       47.78368660438310
C           56.41492050426029       57.63912280527979       46.46601528563610
C           56.82601541692723       58.31074167874162       48.85946955810647
C           57.86839924420286       59.38780296971225       48.52523511623259
C           58.88199173030334       59.45745382276695       49.66557928505136
C           57.18321660986322       60.73838785906099       48.28789914738291
C           58.09505609446840       61.96795525193313       48.16786995753201
C           57.21245623215150       63.21111654085291       48.05430996713424
C           59.03189182502550       61.82385794931706       46.96362327338493
C           59.99085020089320       62.99321614547076       46.71192206799616
C           60.58786428572674       62.85730838244179       45.31152908925816
C           61.11413460159203       63.04580195292738       47.75599543687536
C           61.68724150580056       64.45497282561696       47.96888151529952
C           63.12384997179883       64.36305664443992       48.47705922588175
C           60.80694392589240       65.23220795743876       48.95541241787073
C           60.99659894714256       66.75586587533235       48.94642204439613
C           60.48061484601052       67.33354749230536       50.26278957257142
C           60.26919536485455       67.38070642415680       47.75165290847235
C           60.52574803871629       68.87581885987328       47.51910050153526
C           59.62697705641715       69.35583667127807       46.37741674381429
C           61.99984839236475       69.18184342304352       47.19858988755082
C           62.83733202444400       69.68850834021373       48.38123358766541
C           62.44765364311110       71.12353213552565       48.73591196025927
C           64.33577088932280       69.63979291044707       48.04384087748767
C           64.96585566833069       68.23991202253451       48.05025187189754
C           65.10903086733293       67.70585678651300       49.47436913253526
C           66.34190499742373       68.26290934914338       47.36399785892876
C           66.73489601896209       66.92745388363672       46.71001316811128
C           68.25490432211836       66.84039055999473       46.58408517203544
C           66.05145393558837       66.80983240296209       45.34119363324766
C           66.18749863107517       65.46590059787766       44.61102071757084
C           65.69351852573922       65.63795465291670       43.17413289026891
C           65.40171227364806       64.35514741795257       45.31493208339332
C           65.70092908256916       62.93935620843688       44.78378895977244
C           64.42372985933078       62.28019657746320       44.26396354263139
C           66.32809667007218       62.03898717464354       45.85701664093224
C           67.71395192854602       62.47143784924491       46.34827914628362
C           68.76357124749691       62.30621486295449       45.24869389153996
C           68.15628279245875       61.64419129492469       47.56525003473025
C           67.28544846396161       61.76257132894373       48.82084539202958
C           67.12653760712483       63.22085611278624       49.24757848237007
C           67.88166869776909       60.96464512261333       49.99226777755693
C           68.11797460806280       59.47049658519549       49.74097822426705
C           66.85892013034304       58.78025682670168       49.21764053535098
C           68.56633862865903       58.75058170172088       51.02184971589135
C           69.84654167276044       59.26174719088721       51.69734872279696
C           71.02410878565496       59.29489102307456       50.72537271020911
C           70.18046034707926       58.35555243536400       52.89339077150421
C           71.07065999234419       59.01107899051437       53.96017566044362
C           71.78166214057622       57.93233496170040       54.77643605436101
C           70.22842345045707       59.90680557247652       54.87599154341294
C           71.00892466552069       60.98996868848107       55.63352961919045
C           70.23221528625969       61.39720537329161       56.88488347708538
C           71.25121096208557       62.19522999941835       54.71804516314182
C           72.24627508611225       63.21325615601072       55.26903097163139
C           72.47778328544261       64.35035324579897       54.28058120521401
H           47.13636079808144       46.64637906744938       35.73893323524666
H           48.35233252726155       46.71253183800695       37.01112505829608
H           47.03790195399249       45.54378290854618       37.11106644110867
H           73.17809097571548       65.07815568646835       54.68476486504835
H           72.88317168231592       63.96898322704199       53.34547774801621
H           71.54121598271009       64.85912282079984       54.06252948750644
H           71.62479259670324       61.83903778570134       53.75462521603244
H           70.29730992497994       62.69629260510570       54.53481309412273
H           69.46121216788384       60.40774231884298       54.28359647986884
H           69.71853128884388       59.26397114185237       55.59669606718393
H           71.83200478367738       59.62091386579101       53.46259702917474
H           72.37161311674846       58.37499654764722       55.57577448240475
H           71.05526799795675       57.25575968516843       55.22183278665928
H           72.44866106286592       57.34794918486133       54.14642646471749
H           69.25382891996787       58.03502293293560       53.37633181958233
H           70.67456652101569       57.45728942080959       52.51591197426399
H           67.75083752837631       58.80651494224997       51.74857114725602
H           68.71353230448149       57.69496850604936       50.77784557263021
H           71.97937171608409       60.58655978624105       55.94423347933643
H           70.06914251381264       60.53510423239312       57.52816998310001
H           70.77193173087414       62.14527382464459       57.45925110139540