3258
 energy: -3427.614897317208 gnorm: 0.000784691510 xtb: 6.6.1 (8d0f1dd)
C          112.85876392879977       94.89398750712601      121.81237685800076
C          111.84304593194398       95.53687524542237      120.87800212364662
C          111.36804548630695       94.57234688182777      119.79438810642299
C          110.44850947639250       95.25141092028807      118.78357073395014
C          109.91878423371740       94.27393284792849      117.73880012432146
C          109.07796109006917       94.97027584490276      116.67224502992933
C          108.47559682059359       93.97603717024687      115.68154897854519
C          107.87162642889217       94.64277526673125      114.44551067483518
C          106.68158300733678       95.54378546201102      114.76355614567309
C          106.04396370285785       96.11534996532426      113.50027752482751
C          104.87480766823212       97.04570836307612      113.81495458804660
C          104.22301062699313       97.58002865556716      112.54272626376665
C          103.17701219213860       98.66458660612625      112.79334110971243
C          101.98254869506134       98.17877201456876      113.61307750743055
C          100.81623825295983       99.15967493243681      113.52714752024187
C           99.62079994166182       98.77978275653199      114.40180604156131
C           99.87420044884679       98.99257507710163      115.89438869871316
C           98.57614858853567       98.95136539747853      116.69913520318947
C           98.74311575301653       99.31452171285056      118.17818052741501
C           99.43225628574854      100.65791897121774      118.43807554817393
C           98.82197221244945      101.82579813871405      117.66602583512986
C           99.61210807688387      103.12041203952742      117.86353261524778
C           99.36931734193122      104.14327239864789      116.75174694848850
C           99.94083484594991      103.69185201115847      115.40544311218238
C          100.08238957815833      104.82557656337947      114.39201809051254
C           98.75143960913303      105.43177904738164      113.95696158484449
C           98.95011811550668      106.49719842242513      112.88264216323465
C           97.64210527199012      107.16730893587746      112.47042520678198
C           97.88739874743904      108.33507338093808      111.51993221999071
C           96.59847718029694      109.02033887963786      111.07432296443247
C           96.89298545970696      110.28164123447030      110.26743195480560
C           95.63286165495896      110.97666425052206      109.75976863653985
C           95.97102387395059      112.28584254054408      109.05211341445585
C           94.74266639511411      112.99699316953573      108.49196063381821
C           95.11038678807269      114.33857671282091      107.86316457721539
C           93.90228486968256      115.07110166785598      107.28574596922630
C           94.26999283430241      116.46536763032402      106.78342192304061
C           93.06598541271109      117.20466361121466      106.20477084478716
C           93.36610379654159      118.65443240936067      105.81699714705164
C           93.74869330545343      119.56912042334028      106.98224918235290
C           92.64429751888902      119.71773828280121      108.02513374951315
C           93.00326793020564      120.68468665256704      109.15465857328059
C           94.21392895415684      120.23221216713746      109.97165569929372
C           94.31152339907577      120.97062432332719      111.30539189293690
C           95.63559964977526      120.73344985933635      112.03287048521953
C           95.92410729332190      119.26121844202424      112.32202428619095
C           97.10838766279900      119.09136313831171      113.27132520823866
C           97.56320500331033      117.63800491083701      113.37554608779931
C           98.69249701537660      117.45472239079844      114.38524771593852
C           99.09744615430428      115.98953248702300      114.53164710399616
C          100.37482105893336      115.83202756023690      115.35092490385537
C          100.76370752515665      114.37078332307358      115.56642372127858
C          102.17626810901172      114.25407744730187      116.13080718494412
C          102.59416855742714      112.81711244758971      116.43008677895861
C          104.07371165303955      112.74712052831508      116.79505989038138
C          104.55761295674138      111.33704234976607      117.11833417769687
C          106.06533333723266      111.32093097419005      117.35321720706548
C          106.62931102904223      109.92099906141790      117.57275899336746
C          108.14971498949525      109.95236442586550      117.70330514952612
C          108.76515879523889      108.55939874758667      117.79111550117194
C          110.29002298312487      108.61804691332628      117.84193827841557
C          110.92451717938930      107.23321782430587      117.75100698281041
C          112.45262314001745      107.27425255564172      117.70521016222514
C          113.08991924430798      107.51033531603839      119.07215472005517
C          114.61838815423017      107.51553102887812      119.02050109940051
C          115.25159752910042      108.73958185988188      118.35499752199729
C          114.95663907822997      110.05855190986124      119.08001622029172
C          113.80679253506996      110.85463203579981      118.46438625875685
C          113.38492352743907      112.01812233725929      119.35643450465398
C          112.19381923437946      112.78567082223886      118.79374087499426
C          111.77872365153596      113.94275218897066      119.69883607294467
C          110.60374582221860      114.72406354433706      119.11997813380003
C          110.18752350232539      115.90894663622373      119.98792789160812
C          108.95751199889672      116.60691336981489      119.41428500962719
C          108.44908405464921      117.75361152154385      120.28386645981712
C          107.20676549871827      118.39735484207873      119.67392705516008
C          106.64087592847807      119.53889588512469      120.51494892769104
C          105.37679005180267      120.11956810036293      119.88337566695317
C          104.77500433866454      121.25908800582435      120.70416283083210
C          103.36316914467994      121.63998209709962      120.25301428532595
C          103.31205282313388      122.22111434570107      118.84239880652457
C          101.88355448904493      122.54162879432492      118.40424964412996
C          101.78205537491888      122.92983488861684      116.92841806620692
C          102.36563812176426      124.30650457020980      116.61559776349733
C          102.30955375023902      124.64610424719770      115.12453932836770
C          103.33465954466145      123.87541737725044      114.29652942987056
C          103.18914974188945      124.13581717370349      112.79937912485109
C          104.17909953937499      123.30152747285774      111.99129446644787
C          103.95552418770900      123.41099676002874      110.48501750675801
C          104.80997382715753      122.42083765569828      109.69116631611992
C          106.27943327681768      122.82569898724275      109.62361774830973
C          107.14498508742041      121.77680274010200      108.92784484070616
C          108.53194685902484      122.31602679379421      108.55376818887821
C          109.65370327188900      121.31504774016952      108.80960137519922
C          109.55727383230095      120.02294834595494      108.00639899603163
C          110.62971276909791      119.04013299518564      108.46737197700774
C          110.49639711957876      117.65929897703973      107.83735711194019
C          111.52436061085558      116.69151153450619      108.41391058715368
C          111.40711280306857      115.29229769847768      107.82226384550643
C          112.44820330649929      114.34202378153944      108.40436759478293
C          112.37029083763116      112.95377312280866      107.78016401641021
C          113.44976692918040      112.01929302431732      108.31605545422900
C          113.37241845962814      110.63810026913981      107.67527116896898
C          114.47456372191742      109.70644840695515      108.16783522863150
C          114.35282517516013      108.31354084835918      107.55912308511840
C          115.45278779133587      107.37338599472784      108.04049503601723
C          115.25331406787724      105.94858910535834      107.53296105488349
C          116.33168166192333      105.00250805316399      108.05142612404103
C          116.05608762181424      103.54524409475815      107.69338321781127
C          117.08731793655132      102.60457245217715      108.31002975462543
C          116.77304938418696      101.13626771587225      108.04348372332683
C          117.80381209922179      100.20276560109593      108.67185329965028
C          117.54061018140312       98.73644274204209      108.33927108859280
C          118.57743362408914       97.80697769210957      108.96333374141335
C          118.45592788128955       96.37947768594799      108.43811711195968
C          119.52990257888412       95.46504707504826      109.02065758077262
C          119.50020806941623       94.04125318762931      108.46174421455277
C          119.73665616046495       93.92913032040364      106.95475148043116
C          121.09065796409732       94.47289515998425      106.50659739437542
C          121.32738047424847       94.23716177513703      105.01999926309823
H          121.14450730319069       95.54477009831803      106.70402643105665
H          121.88104115978361       93.98714532579187      107.08455332163928
H          119.67550872582267       92.87270455198238      106.67930173161064
H          118.94299094945269       94.44711763936040      106.41288235096492
H          120.26397456344236       93.45311908806094      108.97776236803405
H          118.53172431516437       93.58825213139195      108.69041651180579
H          120.51430103619745       95.90489388250666      108.84497250025666
H          119.39143945826721       95.40890887303472      110.10295004600430
H          117.46703446123715       95.98434888425351      108.67888700062728
H          118.54447674316636       96.40335957589089      107.35104091939407
H          119.57847322398474       98.18533757164674      108.73873497731346
H          118.46430566542153       97.80864305998053      110.05000537250302
H          116.54247403602466       98.45203503478844      108.68184315715628
H          117.56163135539637       98.60562189707845      107.25616889521346
H          118.80126290453619      100.47559211312128      108.31589893642030
H          117.79914379279380      100.33925651900535      109.75539756849760
H          115.78230066569070      100.89955368982504      108.43929076369737
H          116.74432739388729      100.96944590021452      106.96353760078267
H          118.07732581504115      102.83762787970215      107.90931387549374
H          117.12154914580036      102.77216742481345      109.38933125255494
H          115.06278984313718      103.27150037752089      108.05796536933396
H          116.05584248497107      103.42993413072830      106.60643290546116
H          117.30254561186574      105.30277857008905      107.64754398196712
H          116.38563246071340      105.09155477352624      109.14075646664226
H          114.27551714077462      105.58961603939301      107.86439624073540
H          115.25625499778343      105.94598877025508      106.44022458724811
H          116.42545976681846      107.74846008464148      107.71214132720490
H          115.45927368195233      107.36221529783762      109.13452450327864
H          113.38031261228498      107.89337171544462      107.82849543534309
H          114.39009499210732      108.38856672368593      106.46954007789799
H          115.45007471608282      110.13024278787626      107.91727528028241
H          114.42358247609415      109.62998648201561      109.25730690304187
H          112.39947632603426      110.19440663541479      107.90074012786279
H          113.44452237477523      110.73935830940597      106.58910575713305
H          114.43397656161261      112.45368263577990      108.12196654724022
H          113.34357588917946      111.92411848429792      109.39961659785411
H          111.38694428381361      112.52307693803024      107.98305163969609
H          112.47490782220433      113.04121705299758      106.69526307759860
H          113.44682868937859      114.75577946605732      108.23867879652997
H          112.30106877727364      114.26246869032875      109.48460868981653
H          110.40757440678755      114.89856871567288      108.02115266664541
H          111.53115225995190      115.34791201257575      106.73762767179444
H          112.52922400881764      117.07974546102777      108.22811376093733
H          111.39143547378799      116.63396248354545      109.49852598631169
H          109.49177617657448      117.27177973157600      108.02453344802603
H          110.62727178504925      117.73390286710207      106.75566159512985
H          111.61835251564585      119.44808095601620      108.24312435456231
H          110.56407802089061      118.93436681326628      109.55485811435298
H          108.57252179473963      119.57367969702673      108.14773821769782
H          109.67801489848972      120.23370623621470      106.94186251927701
H          110.61405919003769      121.79106143572361      108.59304649196140
H          109.64694704767334      121.06161321920553      109.87188889336460
H          108.55192482965603      122.62051636090743      107.50458468777953
H          108.74145804703753      123.20454649761272      109.15470575929223
H          107.25953265465679      120.92285432277528      109.59724026839073
H          106.62749443747208      121.42172133290305      108.03607617687425
H          106.35276878046132      123.77398685953753      109.09134576149756
H          106.66425018079372      122.98073745222317      110.63330270469319
H          104.71883763717723      121.42949691062942      110.14431249766908
H          104.42293835691524      122.34935412969494      108.67048314955477
H          102.89993505212682      123.21458460501286      110.27947407099388
H          104.16853502300854      124.43039900783685      110.15131652945600
H          105.19348749548749      123.61757554870705      112.24304288876237
H          104.07532072195423      122.25322279915115      112.28432969232269
H          102.17180310456187      123.88243601621974      112.48985744829342
H          103.34021851238786      125.19767733770773      112.59026423573860
H          104.34171867599872      124.15107184635795      114.61738862053708
H          103.21633004394106      122.80477412583851      114.47458180090413
H          101.30749514192330      124.43060964021127      114.74844892499291
H          102.48441519203894      125.71756337679520      114.99451091272867
H          101.80399410384888      125.05925683656851      117.17629161141552
H          103.40228186428935      124.35521136323955      116.95286092396776
H          102.29186636733505      122.16899949710651      116.33479978471664
H          100.72966793719245      122.92389197036567      116.63270153121221
H          101.26336634487367      121.65629684330315      118.56968418325995
H          101.47854010703411      123.34507931784674      119.02512997575661
H          103.92290468280211      123.12479978845285      118.81444031007840
H          103.74034616983987      121.50345669184779      118.14070751153196
H          102.72567992111595      120.75273621985325      120.29908624240504
H          102.95195736338762      122.37182162153688      120.95385016354574
H          104.73011415047749      120.95225562469540      121.75297113389139
H          105.42557880618382      122.13509013164064      120.64637689125580
H          105.61589664015558      120.47462363011809      118.87973284792398
H          104.63330494071410      119.32482462637309      119.78433609605472
H          106.40990873844351      119.17061826569189      121.51860392381968
H          107.39232637800812      120.32536163075724      120.62049559665118
H          107.45208675796844      118.77262258949249      118.67813938245817
H          106.43645835002603      117.63241551187016      119.55202943597627
H          108.21296913797489      117.37832481033990      121.28393063114235
H          109.23290743696089      118.50585009389879      120.39570592542245
H          109.19388201372165      116.98946524770153      118.41892003873080
H          108.15771621523233      115.87164177648309      119.30087351705073
H          109.97182790389418      115.55902317143409      121.00083912505409
H          111.01440835218223      116.62005946044827      120.06310166967565
H          110.86537004452383      115.08567674902196      118.12314403778589
H          109.75009652919935      114.05061699321901      119.00951253269578
H          111.50435609196111      113.55169754661165      120.68136686118135
H          112.62826597007889      114.61471729550124      119.83822509434748
H          112.45062798543422      113.17335157108218      117.80593855917019
H          111.34926785762266      112.10165526036313      118.67221114979772
H          113.12403169274658      111.63329214880349      120.34589826367181
H          114.22688603897602      112.70222460086946      119.47967077929304
H          114.11852133015194      111.23736144619743      117.49001234323433
H          112.94699194385701      110.20431436775357      118.30408080033861
H          114.72974005396355      109.84847737317061      120.12883720414230
H          115.84969435064831      110.68856464187674      119.06748712633049
H          116.33194372354133      108.57679536195842      118.33741851104081
H          114.92607369713284      108.81418834674074      117.31662787643715
H          115.00448632236544      107.45285438478693      120.04313837989535
H          114.95358656595717      106.61794003467979      118.49291080224725
H          112.73528185723612      108.44500583364216      119.50522611211515
H          112.76948017307181      106.70942418851068      119.74393288075393
H          112.82437277098499      106.32449182723671      117.31159880516681
H          112.76091827012299      108.05468253762601      117.00798570970305
H          110.59942699777076      106.62501354655524      118.59884126353005
H          110.55745946541410      106.75093226188501      116.84094112953214
H          110.64699118780645      109.22587251472514      117.00585963947481
H          110.60127991926804      109.11219105676255      118.76572468362734
H          108.38541813337758      108.04220673164046      118.67598058190562
H          108.45847543404288      107.98119873921783      116.91554201884949
H          108.56741434884857      110.46812769653069      116.83434309830014
H          108.42430377798512      110.53131374081524      118.58869823110832
H          106.18809608313734      109.47773010768557      118.46966730444758
H          106.35393624566457      109.28725056143757      116.72591424674684
H          106.55858281717548      111.76346342396640      116.48410986458137
H          106.30242858979560      111.94731350801136      118.21649534844627
H          104.03838449773575      110.95860580761192      118.00247335806208
H          104.31222325990841      110.66937876498611      116.28850634845081
H          104.65596631495495      113.13177691343779      115.95416770313125
H          104.26524250750140      113.39776210942019      117.65133447883291
H          101.98872936915784      112.41818653790800      117.24737183035582
H          102.40699959048879      112.19171944809109      115.55337900306617
H          102.87496088644096      114.67921205933223      115.40578777367726
H          102.25046769229077      114.84648274289442      117.04589367916357
H          100.05121780055578      113.89516050348185      116.24432978425408
H          100.71122820798246      113.83660421389405      114.61387379468096
H          101.18949253547490      116.34301457415977      114.83102383020335
H          100.24935113928936      116.31982236451293      116.32110138091473
H           98.28532625901370      115.43235311730534      115.00446199875947
H           99.25306682940999      115.55684948740812      113.53972715562917
H           99.55946071692840      118.03871919500604      114.06584990866064
H           98.37947037206798      117.84354735930151      115.35734724054765
H           96.71795525447067      117.01106766140134      113.66732137299145
H           97.90010273368247      117.29723298159540      112.39344793995488
H           97.94190268712993      119.70275545110179      112.91788902686329
H           96.83255030420766      119.46142965505105      114.26269719025427
H           95.03805475137455      118.79415203640401      112.76044965654773
H           96.14626696568632      118.74380202262635      111.38697433060733
H           96.45137564930030      121.14158145561819      111.43132806996975
H           95.61577588645083      121.28243532982871      112.97850926043139
H           94.20069065262817      122.04409448978871      111.12622256025999
H           93.48327249771185      120.66071244805434      111.94833062758380
H           94.13401256059274      119.15956980517277      110.15883440463169
H           95.12905339773174      120.40829681227980      109.40344112097424
H           93.19194916503641      121.67910217146003      108.74265236769051
H           92.14005759956531      120.76847252663489      109.82102613779773
H           91.73492041090371      120.07270769153530      107.53216872456527
H           92.42302599585513      118.74407926997327      108.46665803530317
H           94.65073613241996      119.18849825934718      107.45888347748009
H           93.98399557911820      120.55717965831789      106.57857269023384
H           94.18467612322701      118.65809290098774      105.09202801349488
H           92.48561884976247      119.06936925649063      105.31850269628929
H           92.72326801050288      116.67350930053938      105.31254191292942
H           92.24605612048913      117.18121335808823      106.92538124985809
H           94.68606849649520      117.03344729194832      107.61709453685705
H           95.04414312290100      116.38324441407156      106.01600452506486
H           93.47780096211527      114.48547098096184      106.46730501145299
H           93.13284830880754      115.16090305364871      108.05787148583946
H           95.58030927190329      114.96807429276708      108.62317770943577
H           95.84349269340922      114.17475705219009      107.06907350118792
H           94.26297714191378      112.36183333713775      107.74383311951705
H           94.02038480679485      113.16088707036977      109.29628337760728
H           96.47492943090207      112.94881653681269      109.75957274473582
H           96.66792040739142      112.08108097953453      108.23493115040245
H           95.10197641939661      110.31377723710969      109.07250374508585
H           94.96567238441796      111.18169182589519      110.60142407387377
H           97.45584122509906      110.97857272683916      110.89341824825253
H           97.52552028302199      110.02219441378047      109.41410659195971
H           96.00367718526302      108.32820367756409      110.47339860040375
H           96.00506509562969      109.28354641198221      111.95430070145969
H           98.52621985964797      109.06822461648046      112.01839117073777
H           98.42794631684153      107.97694146728041      110.63963132032303
H           96.98668753380214      106.43411587481118      111.99304982802818
H           97.12787360424258      107.53403705618597      113.36308347958997
H           99.63428608068646      107.25937736529518      113.26258203314002
H           99.42125815260296      106.04615602564539      112.00518675826561
H           98.09675325514660      104.64301355070317      113.57583330024644
H           98.25581845385177      105.88354374584732      114.81878837733525
H          100.70712130124875      105.61321574665844      114.81907163240395
H          100.60202171918246      104.44334658503341      113.50917735991918
H          100.92980047976695      103.25954201328685      115.57704225978674
H           99.31028086812897      102.91274189541687      114.97164392974460
H           98.29768440517435      104.33072218046983      116.66032422629348
H           99.84869506384936      105.08252018435968      117.03721740902573
H           99.35348053278574      103.56342297144349      118.82861581316641
H          100.67894549883032      102.88650810104650      117.88999121195452
H           98.81941997182066      101.58275093788221      116.60579812044826
H           97.78407884306107      101.97252343120124      117.97422539448144
H           99.38678351370881      100.86882195176376      119.51003309465689
H          100.48759989831444      100.57440020752442      118.17337992434095
H           97.75067962408555       99.32657597273369      118.63664632940112
H           99.32305558784289       98.53262464627571      118.67546975311080
H           97.85281406647796       99.63199910021953      116.24465896352983
H           98.14874028319339       97.94680265584796      116.63714801180515
H          100.55837147885543       98.23214543362830      116.27545000410281
H          100.34978322524546       99.96526457922789      116.02281822776938
H           98.77077781207484       99.40136378414130      114.10586585802511
H           99.34327862993079       97.73942284821730      114.21530769031551
H          101.16086850860212      100.15790994983048      113.80928993361327
H          100.48527768882143       99.21193790579764      112.48634169387115
H          101.65614195873358       97.20474253025876      113.23877541807042
H          102.28241519746020       98.05293630759037      114.65382756903516
H          103.64225163377944       99.51190298559472      113.30347191872886
H          102.81591481263550       99.02495802144047      111.82631214116007
H          105.00246570241393       97.99046510937599      111.89411627888751
H          103.75661375790817       96.75044242168600      112.00818136925274
H          104.13609756634342       96.50589445463076      114.41058394109608
H          105.23283606777609       97.88356028402832      114.41820320838573
H          106.80015801855157       96.66558625870829      112.93455606070896
H          105.69271842221370       95.29628459889783      112.86696285740578
H          105.93390616464038       94.97217353600692      115.31964948828977
H          107.01018295291537       96.37010417204181      115.39617877736332
H          108.64162952743327       95.23302308188983      113.94353503028078
H          107.54820665287512       93.86385327905873      113.74868796290934
H          109.25861595112232       93.28464165600475      115.35720132470098
H          107.70772794119199       93.38261307157373      116.18518809718648
H          108.27698210775714       95.52820650204926      117.16048148620574
H          109.70350430510706       95.68475597547813      116.13133841343972
H          110.75959266987529       93.76200129009631      117.26380477346923
H          109.31290274858536       93.51149440278063      118.23393129971869
H          109.60506509791324       95.70635405351537      119.30892676238848
H          110.99656554329231       96.05427423455824      118.28319834175275
H          112.23583077077529       94.15942876017793      119.27336189549067
H          110.83825432647694       93.73643480218371      120.25933568891176
H          110.98242907512495       95.88381431651251      121.45646668252262
H          112.29553493713094       96.41157131079284      120.40287957927966
H          113.72814951846610       94.55905494360387      121.25064226885576
H          113.19017136522646       95.60272783730305      122.56808308169008
H          112.42642689694792       94.03319155647584      122.31795291532329
H          121.30991787661864       93.17326110651508      104.79134702004443
H          120.55291728994294       94.72473663469106      104.43116530480947
H          122.29239499211405       94.63726805625448      104.71552596223690
C          122.63893787304863      110.12055230540147      102.38910141196801
C          122.50679198257025      111.57855659260687      102.81253723527577
C          121.18059111317331      112.18536006283644      102.36221008437204
C          121.04942363557350      113.65191510383671      102.76762282426013
C          119.72102520835820      114.24571816920407      102.30589834266195
C          119.61119861772079      115.75547955428492      102.51710229426399
C          119.61013974898846      116.18281194232823      103.98413721873700
C          119.27743417974693      117.66654586298890      104.12599623740904
C          119.15494229850600      118.12133943376858      105.57920728809337
C          118.88466548707099      119.62316406548860      105.66184487450268
C          118.47547007074662      120.10937462326727      107.05149891717026
C          119.54433462673022      119.90127442421743      108.12123058813496
C          119.18575465286220      120.63498870412627      109.41167469721218
C          120.15546127447548      120.32877111188114      110.54947589743495
C          119.81276353064573      121.10666448669801      111.81756013805992
C          120.68816377706347      120.69546359903283      112.99813822395275
C          120.27440674773207      121.39237113143464      114.29253193596598
C          120.99412217961719      120.80785423998823      115.50534142942756
C          120.58630013471608      121.45257796272219      116.83033006226516
C          119.12707920850511      121.19190168668207      117.20162200788198
C          118.81810792136000      121.60964832759080      118.63836747620432