      -----------------------------------------------------------      
     |                   =====================                   |     
     |                           x T B                           |     
     |                   =====================                   |     
     |                         S. Grimme                         |     
     |          Mulliken Center for Theoretical Chemistry        |     
     |                    University of Bonn                     |     
      -----------------------------------------------------------      

   * xtb version 6.6.1 (8d0f1dd) compiled by 'stahn@M-Bot' on 2023-08-01

   xtb is free software: you can redistribute it and/or modify it under
   the terms of the GNU Lesser General Public License as published by
   the Free Software Foundation, either version 3 of the License, or
   (at your option) any later version.
   
   xtb is distributed in the hope that it will be useful,
   but WITHOUT ANY WARRANTY; without even the implied warranty of
   MERCHANTABILITY or FITNESS FOR A PARTICULAR PURPOSE.  See the
   GNU Lesser General Public License for more details.
   
   Cite this work as:
   * C. Bannwarth, E. Caldeweyher, S. Ehlert, A. Hansen, P. Pracht,
     J. Seibert, S. Spicher, S. Grimme, WIREs Comput. Mol. Sci., 2020, 11,
     e01493. DOI: 10.1002/wcms.1493
   
   for GFN2-xTB:
   * C. Bannwarth, S. Ehlert and S. Grimme., J. Chem. Theory Comput., 2019,
     15, 1652-1671. DOI: 10.1021/acs.jctc.8b01176
   for GFN1-xTB:
   * S. Grimme, C. Bannwarth, P. Shushkov, J. Chem. Theory Comput., 2017,
     13, 1989-2009. DOI: 10.1021/acs.jctc.7b00118
   for GFN0-xTB:
   * P. Pracht, E. Caldeweyher, S. Ehlert, S. Grimme, ChemRxiv, 2019, preprint.
     DOI: 10.26434/chemrxiv.8326202.v1
   for GFN-FF:
   * S. Spicher and S. Grimme, Angew. Chem. Int. Ed., 2020, 59, 15665-15673.
     DOI: 10.1002/anie.202004239
   
   for ALPB and GBSA implicit solvation:
   * S. Ehlert, M. Stahn, S. Spicher, S. Grimme, J. Chem. Theory Comput.,
     2021, 17, 4250-4261. DOI: 10.1021/acs.jctc.1c00471
   
   for DFT-D4:
   * E. Caldeweyher, C. Bannwarth and S. Grimme, J. Chem. Phys., 2017,
     147, 034112. DOI: 10.1063/1.4993215
   * E. Caldeweyher, S. Ehlert, A. Hansen, H. Neugebauer, S. Spicher,
     C. Bannwarth and S. Grimme, J. Chem. Phys., 2019, 150, 154122.
     DOI: 10.1063/1.5090222
   * E. Caldeweyher, J.-M. Mewes, S. Ehlert and S. Grimme, Phys. Chem. Chem. Phys.
     2020, 22, 8499-8512. DOI: 10.1039/D0CP00502A
   
   for sTDA-xTB:
   * S. Grimme and C. Bannwarth, J. Chem. Phys., 2016, 145, 054103.
     DOI: 10.1063/1.4959605
   
   in the mass-spec context:
   * V. Asgeirsson, C. Bauer and S. Grimme, Chem. Sci., 2017, 8, 4879.
     DOI: 10.1039/c7sc00601b
   * J. Koopman and S. Grimme, ACS Omega 2019, 4, 12, 15120-15133.
     DOI: 10.1021/acsomega.9b02011
   
   for metadynamics refer to:
   * S. Grimme, J. Chem. Theory Comput., 2019, 155, 2847-2862
     DOI: 10.1021/acs.jctc.9b00143
   
   for SPH calculations refer to:
   * S. Spicher and S. Grimme, J. Chem. Theory Comput., 2021, 17, 1701-1714
     DOI: 10.1021/acs.jctc.0c01306
   
   with help from (in alphabetical order)
   P. Atkinson, C. Bannwarth, F. Bohle, G. Brandenburg, E. Caldeweyher
   M. Checinski, S. Dohm, S. Ehlert, S. Ehrlich, I. Gerasimov, C. Hölzer
   A. Katbashev, J. Koopman, C. Lavigne, S. Lehtola, F. März, M. Müller,
   F. Musil, H. Neugebauer, J. Pisarek, C. Plett, P. Pracht, F. Pultar,
   J. Seibert, P. Shushkov, S. Spicher, M. Stahn, M. Steiner, T. Strunk,
   J. Stückrath, T. Rose, and J. Unsleber
   
 * started run on 2024/06/17 at 15:18:46.830     

           -------------------------------------------------
          |                Calculation Setup                |
           -------------------------------------------------

          program call               : /home/abt-grimme/AK-bin/xtb input.xyz --input input.inp --opt --gbsa water
          hostname                   : boar044.thch.uni-bonn.de
          coordinate file            : input.xyz
          omp threads                :                     8

   ID    Z sym.   atoms
    1    6 C      1-120, 363-482, 725-844, 1087-1206, 1449-1568, 1811-1930,
                  2173-2292, 2535-2654, 2897-3016
    2    1 H      121-362, 483-724, 845-1086, 1207-1448, 1569-1810,
                  1931-2172, 2293-2534, 2655-2896, 3017-3258

molecular fragmentation (1/2 indicates fragments):
111111111111111111111111111111111111111111111111111111111111111111111111
111111111111111111111111111111111111111111111111111111111111111111111111
111111111111111111111111111111111111111111111111111111111111111111111111
111111111111111111111111111111111111111111111111111111111111111111111111
111111111111111111111111111111111111111111111111111111111111111111111111
112222222222222222222222222222222222222222222222222222222222222222222222
222222222222222222222222222222222222222222222222222222222222222222222222
222222222222222222222222222222222222222222222222222222222222222222222222
222222222222222222222222222222222222222222222222222222222222222222222222
222222222222222222222222222222222222222222222222222222222222222222222222
222222222222222222222222222222222222222222222222222222222222222222222222
222222222222222222222222222222222222222222222222222222222222222222222222
222222222222222222222222222222222222222222222222222222222222222222222222
222222222222222222222222222222222222222222222222222222222222222222222222
222222222222222222222222222222222222222222222222222222222222222222222222
222222222222222222222222222222222222222222222222222222222222222222222222
222222222222222222222222222222222222222222222222222222222222222222222222
222222222222222222222222222222222222222222222222222222222222222222222222
222222222222222222222222222222222222222222222222222222222222222222222222
222222222222222222222222222222222222222222222222222222222222222222222222
222222222222222222222222222222222222222222222222222222222222222222222222
222222222222222222222222222222222222222222222222222222222222222222222222
222222222222222222222222222222222222222222222222222222222222222222222222
222222222222222222222222222222222222222222222222222222222222222222222222
222222222222222222222222222222222222222222222222222222222222222222222222
222222222222222222222222222222222222222222222222222222222222222222222222
222222222222222222222222222222222222222222222222222222222222222222222222
222222222222222222222222222222222222222222222222222222222222222222222222
222222222222222222222222222222222222222222222222222222222222222222222222
222222222222222222222222222222222222222222222222222222222222222222222222
222222222222222222222222222222222222222222222222222222222222222222222222
222222222222222222222222222222222222222222222222222222222222222222222222
222222222222222222222222222222222222222222222222222222222222222222222222
222222222222222222222222222222222222222222222222222222222222222222222222
222222222222222222222222222222222222222222222222222222222222222222222222
222222222222222222222222222222222222222222222222222222222222222222222222
222222222222222222222222222222222222222222222222222222222222222222222222
222222222222222222222222222222222222222222222222222222222222222222222222
222222222222222222222222222222222222222222222222222222222222222222222222
222222222222222222222222222222222222222222222222222222222222222222222222
222222222222222222222222222222222222222222222222222222222222222222222222
222222222222222222222222222222222222222222222222222222222222222222222222
222222222222222222222222222222222222222222222222222222222222222222222222
222222222222222222222222222222222222222222222222222222222222222222222222
222222222222222222222222222222222222222222222222222222222222222222222222
222222222222222222
# atoms in fragment 1/2:   362  2896
 fragment masses (1/2) :     1685.21    13481.68
CMA distance (Bohr)    :  10.653
constraining FC (au)   :  0.0500

           -------------------------------------------------
          |                 G F N 2 - x T B                 |
           -------------------------------------------------

        Reference                      10.1021/acs.jctc.8b01176
      * Hamiltonian:
        H0-scaling (s, p, d)           1.850000    2.230000    2.230000
        zeta-weighting                 0.500000
      * Dispersion:
        s8                             2.700000
        a1                             0.520000
        a2                             5.000000
        s9                             5.000000
      * Repulsion:
        kExp                           1.500000    1.000000
        rExp                           1.000000
      * Coulomb:
        alpha                          2.000000
        third order                    shell-resolved
        anisotropic                    true
        a3                             3.000000
        a5                             4.000000
        cn-shift                       1.200000
        cn-exp                         4.000000
        max-rad                        5.000000

      * Solvation model:               GBSA
        Solvent                        water
        Parameter file                 internal GFN2-xTB/GBSA
        Dielectric constant                8.0200E+01
        Reference state                gsolv [1 M gas/solution]
        Free energy shift                  1.8574E-03 Eh       1.1656E+00 kcal/mol
        Temperature                        2.9815E+02 K
        Density                            1.0000E+00 kg/L
        Solvent mass                       1.8000E+01 g/mol
        Interaction kernel             Still
        Born radius scaling (c1)           1.5524E+00
        Born radii integrator          GBOBC
        Born offset                        2.4628E-02 a0       4.6540E-02 AA
        H-bond correction              true
        Ion screening                  false
        Surface tension                    1.0000E-05 Eh       1.5569E+01 dyn/cm
        Grid points                               230 per atom
q/qsh data taken from xtbrestart
CAMM data taken from xtbrestart

          ...................................................
          :                      SETUP                      :
          :.................................................:
          :  # basis functions                6498          :
          :  # atomic orbitals                6498          :
          :  # shells                         4338          :
          :  # electrons                      6498          :
          :  max. iterations                   250          :
          :  Hamiltonian                  GFN2-xTB          :
          :  restarted?                       true          :
          :  GBSA solvation                   true          :
          :  PC potential                    false          :
          :  electronic temp.          300.0000000     K    :
          :  accuracy                    1.0000000          :
          :  -> integral cutoff          0.2500000E+02      :
          :  -> integral neglect         0.1000000E-07      :
          :  -> SCF convergence          0.1000000E-05 Eh   :
          :  -> wf. convergence          0.1000000E-03 e    :
          :  Broyden damping             0.4000000          :
          ...................................................

 iter      E             dE          RMSdq      gap      omega  full diag
   1  -3472.3565254 -0.347236E+04  0.757E-05   10.52       0.0  T
   2  -3472.3565254 -0.469936E-08  0.607E-05   10.52      28.9  T
   3  -3472.3565254 -0.777436E-08  0.319E-05   10.52      55.0  T

   *** convergence criteria satisfied after 3 iterations ***

         #    Occupation            Energy/Eh            Energy/eV
      -------------------------------------------------------------
         1        2.0000           -0.6161151             -16.7653
       ...           ...                  ...                  ...
      3243        2.0000           -0.3834556             -10.4344
      3244        2.0000           -0.3829985             -10.4219
      3245        2.0000           -0.3825191             -10.4089
      3246        2.0000           -0.3818849             -10.3916
      3247        2.0000           -0.3812846             -10.3753
      3248        2.0000           -0.3806329             -10.3575
      3249        2.0000           -0.3773438             -10.2680 (HOMO)
      3250                          0.0091480               0.2489 (LUMO)
      3251                          0.0133475               0.3632
      3252                          0.0139713               0.3802
      3253                          0.0175853               0.4785
      3254                          0.0184654               0.5025
       ...                                ...                  ...
      6498                          0.3985291              10.8445
      -------------------------------------------------------------
                  HL-Gap            0.3864918 Eh           10.5170 eV
             Fermi-level           -0.1840979 Eh           -5.0096 eV

 SCC (total)                   0 d,  0 h,  6 min, 37.576 sec
 SCC setup                      ...        0 min,  1.698 sec (  0.427%)
 Dispersion                     ...        0 min,  3.502 sec (  0.881%)
 classical contributions        ...        0 min,  0.132 sec (  0.033%)
 integral evaluation            ...        0 min,  5.956 sec (  1.498%)
 iterations                     ...        2 min, 45.820 sec ( 41.708%)
 molecular gradient             ...        3 min, 32.772 sec ( 53.517%)
 printout                       ...        0 min,  7.696 sec (  1.936%)

         :::::::::::::::::::::::::::::::::::::::::::::::::::::
         ::                     SUMMARY                     ::
         :::::::::::::::::::::::::::::::::::::::::::::::::::::
         :: total energy           -3426.878630364740 Eh    ::
         :: total w/o Gsasa/hb     -3426.788297954873 Eh    ::
         :: gradient norm              0.638081537136 Eh/a0 ::
         :: HOMO-LUMO gap             10.516978240187 eV    ::
         ::.................................................::
         :: SCC energy             -3472.356525385339 Eh    ::
         :: -> isotropic ES            0.277186890122 Eh    ::
         :: -> anisotropic ES          1.289782575165 Eh    ::
         :: -> anisotropic XC          2.132955036827 Eh    ::
         :: -> dispersion             -4.301978788820 Eh    ::
         :: -> Gsolv                  -0.027122821587 Eh    ::
         ::    -> Gelec                0.063209588281 Eh    ::
         ::    -> Gsasa               -0.088301046455 Eh    ::
         ::    -> Ghb                 -0.003888806539 Eh    ::
         ::    -> Gshift               0.001857443127 Eh    ::
         :: repulsion energy          44.750748298105 Eh    ::
         :: add. restraining           0.000000000000 Eh    ::
         :: total charge              -0.000000000009 e     ::
         :::::::::::::::::::::::::::::::::::::::::::::::::::::

      ----------------------------------------------------------- 
     |              Fast Inertial Relaxation Engine              |
      ----------------------------------------------------------- 

          ...................................................
          :                      SETUP                      :
          :.................................................:
          :   energy convergence        0.5000000E-05 Eh    :
          :   grad. convergence         0.1000000E-02 Eh/a0 :
          :   optimization log               true           :
          :   writing optlog all                1     steps :
          :   Hessian reset                    20     steps :
          :   time step scaling                 5     steps :
          :   maximium step len.        1.0000000     a0    :
          :   initial time step         0.2500000     fs    :
          :   maximum time step         1.2500000     fs    :
          :   power reset thr           0.0000000     au    :
          :   alpha parameter           0.1000000           :
          :   BFGS update                   false           :
          :   preconditioning               false           :
          ...................................................

........................................................................
.............................. CYCLE    1 ..............................
........................................................................

 iter      E             dE          RMSdq      gap      omega  full diag
   1  -3472.5923957 -0.347259E+04  0.753E-03   10.56       0.0  T
   2  -3472.5924408 -0.450185E-04  0.395E-03   10.56       1.0  T
   3  -3472.5924412 -0.426667E-06  0.184E-03   10.56       1.0  T
   4  -3472.5924413 -0.155809E-06  0.226E-04   10.56       7.8  T
   5  -3472.5924414 -0.378245E-07  0.145E-04   10.56      12.1  T
     SCC iter.                  ...        4 min, 29.855 sec
     gradient                   ...        3 min, 32.113 sec
 * total energy  : -3426.9248843 Eh     change    :  -0.4625391E-01 Eh
   gradient norm :     0.6038688 Eh/a0  converged?    E=F G=F D=F
   time step     :     0.2500000 fs     power     :   0.2386535E-05
   step length   :     0.0747818 a0     speed     :   0.7235541E-02

........................................................................
.............................. CYCLE    2 ..............................
........................................................................

 iter      E             dE          RMSdq      gap      omega  full diag
   1  -3472.9399766 -0.347294E+04  0.110E-02   10.61       0.0  T
   2  -3472.9400729 -0.963470E-04  0.578E-03   10.61       1.0  T
   3  -3472.9400739 -0.983940E-06  0.268E-03   10.61       1.0  T
   4  -3472.9400743 -0.382183E-06  0.349E-04   10.61       5.0  T
   5  -3472.9400744 -0.902191E-07  0.231E-04   10.61       7.6  T
     SCC iter.                  ...        4 min, 26.983 sec
     gradient                   ...        3 min, 32.237 sec
 * total energy  : -3426.9884801 Eh     change    :  -0.6359580E-01 Eh
   gradient norm :     0.5545713 Eh/a0  converged?    E=F G=F D=F
   time step     :     0.2500000 fs     power     :   0.3227121E-05
   step length   :     0.1100544 a0     speed     :   0.1064835E-01

........................................................................
.............................. CYCLE    3 ..............................
........................................................................

 iter      E             dE          RMSdq      gap      omega  full diag
   1  -3473.3900434 -0.347339E+04  0.141E-02   10.68       0.0  T
   2  -3473.3902001 -0.156637E-03  0.740E-03   10.68       1.0  T
   3  -3473.3902018 -0.169176E-05  0.342E-03   10.68       1.0  T
   4  -3473.3902024 -0.650989E-06  0.457E-04   10.68       3.8  T
   5  -3473.3902026 -0.150779E-06  0.304E-04   10.68       5.8  T
     SCC iter.                  ...        4 min, 26.312 sec
     gradient                   ...        3 min, 32.503 sec
 * total energy  : -3427.0627648 Eh     change    :  -0.7428472E-01 Eh
   gradient norm :     0.4930619 Eh/a0  converged?    E=F G=F D=F
   time step     :     0.2500000 fs     power     :   0.3696549E-05
   step length   :     0.1424360 a0     speed     :   0.1378145E-01

........................................................................
.............................. CYCLE    4 ..............................
........................................................................

 iter      E             dE          RMSdq      gap      omega  full diag
   1  -3473.9309133 -0.347393E+04  0.167E-02   10.76       0.0  T
   2  -3473.9311290 -0.215651E-03  0.875E-03   10.76       1.0  T
   3  -3473.9311315 -0.250025E-05  0.400E-03   10.76       1.0  T
   4  -3473.9311324 -0.929233E-06  0.552E-04   10.76       3.2  T
   5  -3473.9311326 -0.209285E-06  0.366E-04   10.76       4.8  T
     SCC iter.                  ...        4 min, 28.572 sec
     gradient                   ...        3 min, 33.122 sec
 * total energy  : -3427.1402691 Eh     change    :  -0.7750435E-01 Eh
   gradient norm :     0.4238800 Eh/a0  converged?    E=F G=F D=F
   time step     :     0.2500000 fs     power     :   0.3765120E-05
   step length   :     0.1710593 a0     speed     :   0.1655091E-01

........................................................................
.............................. CYCLE    5 ..............................
........................................................................

 iter      E             dE          RMSdq      gap      omega  full diag
   1  -3474.5485510 -0.347455E+04  0.187E-02   10.82       0.0  T
   2  -3474.5488134 -0.262406E-03  0.978E-03   10.82       1.0  T
   3  -3474.5488168 -0.335511E-05  0.441E-03   10.82       1.0  T
   4  -3474.5488180 -0.117987E-05  0.632E-04   10.82       2.8  T
   5  -3474.5488182 -0.254624E-06  0.415E-04   10.82       4.2  T
   6  -3474.5488184 -0.154731E-06  0.182E-04   10.81       9.6  T
     SCC iter.                  ...        5 min, 26.146 sec
     gradient                   ...        3 min, 32.608 sec
 * total energy  : -3427.2137778 Eh     change    :  -0.7350870E-01 Eh
   gradient norm :     0.3539489 Eh/a0  converged?    E=F G=F D=F
   time step     :     0.2500000 fs     power     :   0.3463993E-05
   step length   :     0.1951818 a0     speed     :   0.1888488E-01

........................................................................
.............................. CYCLE    6 ..............................
........................................................................

 iter      E             dE          RMSdq      gap      omega  full diag
   1  -3475.3005468 -0.347530E+04  0.221E-02   10.82       0.0  T
   2  -3475.3008974 -0.350598E-03  0.116E-02   10.82       1.0  T
   3  -3475.3009025 -0.507898E-05  0.509E-03   10.82       1.0  T
   4  -3475.3009041 -0.159026E-05  0.757E-04   10.82       2.3  T
   5  -3475.3009044 -0.322848E-06  0.484E-04   10.82       3.6  T
   6  -3475.3009046 -0.173655E-06  0.194E-04   10.82       9.0  T
     SCC iter.                  ...        5 min, 20.882 sec
     gradient                   ...        3 min, 33.282 sec
 * total energy  : -3427.2834341 Eh     change    :  -0.6965626E-01 Eh
   gradient norm :     0.2870063 Eh/a0  converged?    E=F G=F D=F
   time step     :     0.2750000 fs     power     :   0.2802101E-05
   step length   :     0.2377115 a0     speed     :   0.2090897E-01

........................................................................
.............................. CYCLE    7 ..............................
........................................................................

 iter      E             dE          RMSdq      gap      omega  full diag
   1  -3476.1811229 -0.347618E+04  0.252E-02   10.82       0.0  T
   2  -3476.1815335 -0.410544E-03  0.132E-02   10.82       1.0  T
   3  -3476.1815409 -0.744672E-05  0.552E-03   10.82       1.0  T
   4  -3476.1815430 -0.205512E-05  0.890E-04   10.82       2.0  T
   5  -3476.1815433 -0.367089E-06  0.557E-04   10.82       3.1  T
   6  -3476.1815435 -0.192922E-06  0.202E-04   10.81       8.7  T
     SCC iter.                  ...        5 min, 21.158 sec
     gradient                   ...        3 min, 33.640 sec
 * total energy  : -3427.3410066 Eh     change    :  -0.5757254E-01 Eh
   gradient norm :     0.2436595 Eh/a0  converged?    E=F G=F D=F
   time step     :     0.3025000 fs     power     :   0.1881852E-05
   step length   :     0.2798478 a0     speed     :   0.2237750E-01

........................................................................
.............................. CYCLE    8 ..............................
........................................................................

 iter      E             dE          RMSdq      gap      omega  full diag
   1  -3477.1530380 -0.347715E+04  0.276E-02   10.82       0.0  T
   2  -3477.1534293 -0.391342E-03  0.147E-02   10.82       1.0  T
   3  -3477.1534395 -0.101439E-04  0.542E-03   10.82       1.0  T
   4  -3477.1534418 -0.229665E-05  0.998E-04   10.81       1.8  T
   5  -3477.1534421 -0.332273E-06  0.603E-04   10.81       2.9  T
   6  -3477.1534423 -0.175631E-06  0.185E-04   10.81       9.5  T
     SCC iter.                  ...        5 min, 22.580 sec
     gradient                   ...        3 min, 33.348 sec
 * total energy  : -3427.3810939 Eh     change    :  -0.4008725E-01 Eh
   gradient norm :     0.2390455 Eh/a0  converged?    E=F G=F D=F
   time step     :     0.3327500 fs     power     :   0.9526703E-06
   step length   :     0.3155170 a0     speed     :   0.2293611E-01

........................................................................
.............................. CYCLE    9 ..............................
........................................................................

 iter      E             dE          RMSdq      gap      omega  full diag
   1  -3478.1389920 -0.347814E+04  0.295E-02   10.81       0.0  T
   2  -3478.1392693 -0.277319E-03  0.161E-02   10.81       1.0  T
   3  -3478.1392818 -0.124545E-04  0.454E-03   10.81       1.0  T
   4  -3478.1392838 -0.204909E-05  0.105E-03   10.81       1.7  T
   5  -3478.1392840 -0.209619E-06  0.597E-04   10.81       2.9  T
   6  -3478.1392842 -0.122190E-06  0.139E-04   10.81      12.6  T
     SCC iter.                  ...        5 min, 23.566 sec
     gradient                   ...        3 min, 31.251 sec
 * total energy  : -3427.4044762 Eh     change    :  -0.2338227E-01 Eh
   gradient norm :     0.2532527 Eh/a0  converged?    E=F G=F D=F
   time step     :     0.3660250 fs     power     :   0.2772665E-06
   step length   :     0.3389983 a0     speed     :   0.2240278E-01

........................................................................
.............................. CYCLE   10 ..............................
........................................................................

 iter      E             dE          RMSdq      gap      omega  full diag
   1  -3479.0443537 -0.347904E+04  0.319E-02   10.81       0.0  T
   2  -3479.0444846 -0.130911E-03  0.181E-02   10.81       1.0  T
   3  -3479.0444982 -0.136246E-04  0.290E-03   10.81       1.0  T
   4  -3479.0444997 -0.149872E-05  0.105E-03   10.81       1.7  T
   5  -3479.0444998 -0.675523E-07  0.523E-04   10.81       3.4  T
   6  -3479.0444999 -0.693003E-07  0.748E-05   10.81      23.4  T
     SCC iter.                  ...        5 min, 20.399 sec
     gradient                   ...        3 min, 33.583 sec
 * total energy  : -3427.4159245 Eh     change    :  -0.1144830E-01 Eh
   gradient norm :     0.2521938 Eh/a0  converged?    E=F G=F D=F
   time step     :     0.4026275 fs     power     :  -0.1193180E-06
   step length   :     0.3515774 a0     speed     :   0.2112188E-01

........................................................................
.............................. CYCLE   11 ..............................
........................................................................
 * reset velocities

 iter      E             dE          RMSdq      gap      omega  full diag
   1  -3479.0271366 -0.347903E+04  0.119E-03   10.81       0.0  T
   2  -3479.0271374 -0.792559E-06  0.684E-04   10.81       2.6  T
   3  -3479.0271374 -0.411592E-08  0.266E-04   10.81       6.6  T
     SCC iter.                  ...        2 min, 41.900 sec
     gradient                   ...        3 min, 32.024 sec
 * total energy  : -3427.4183067 Eh     change    :  -0.2382199E-02 Eh
   gradient norm :     0.2449960 Eh/a0  converged?    E=F G=F D=F
   time step     :     0.2013138 fs     power     :   0.1547481E-06
   step length   :     0.0095828 a0     speed     :   0.1151417E-02

........................................................................
.............................. CYCLE   12 ..............................
........................................................................

 iter      E             dE          RMSdq      gap      omega  full diag
   1  -3478.9928511 -0.347899E+04  0.235E-03   10.80       0.0  T
   2  -3478.9928542 -0.306710E-05  0.135E-03   10.80       1.3  T
   3  -3478.9928542 -0.183127E-07  0.524E-04   10.80       3.3  T
   4  -3478.9928542 -0.932187E-08  0.459E-05   10.81      38.2  T
     SCC iter.                  ...        3 min, 31.751 sec
     gradient                   ...        3 min, 32.738 sec
 * total energy  : -3427.4228018 Eh     change    :  -0.4495118E-02 Eh
   gradient norm :     0.2308899 Eh/a0  converged?    E=F G=F D=F
   time step     :     0.2013138 fs     power     :   0.2874890E-06
   step length   :     0.0188920 a0     speed     :   0.2269964E-02

........................................................................
.............................. CYCLE   13 ..............................
........................................................................

 iter      E             dE          RMSdq      gap      omega  full diag
   1  -3478.9425189 -0.347894E+04  0.344E-03   10.80       0.0  T
   2  -3478.9425256 -0.663634E-05  0.197E-03   10.80       1.0  T
   3  -3478.9425256 -0.458526E-07  0.773E-04   10.80       2.3  T
   4  -3478.9425256 -0.251957E-07  0.765E-05   10.81      22.9  T
     SCC iter.                  ...        3 min, 34.555 sec
     gradient                   ...        3 min, 33.582 sec
 * total energy  : -3427.4289040 Eh     change    :  -0.6102211E-02 Eh
   gradient norm :     0.2103315 Eh/a0  converged?    E=F G=F D=F
   time step     :     0.2013138 fs     power     :   0.3833881E-06
   step length   :     0.0276646 a0     speed     :   0.3324038E-02

........................................................................
.............................. CYCLE   14 ..............................
........................................................................

 iter      E             dE          RMSdq      gap      omega  full diag
   1  -3478.8774493 -0.347888E+04  0.442E-03   10.80       0.0  T
   2  -3478.8774604 -0.110379E-04  0.253E-03   10.80       1.0  T
   3  -3478.8774604 -0.802197E-07  0.998E-04   10.81       1.8  T
   4  -3478.8774605 -0.448445E-07  0.102E-04   10.81      17.1  T
     SCC iter.                  ...        3 min, 32.747 sec
     gradient                   ...        3 min, 32.466 sec
 * total energy  : -3427.4359304 Eh     change    :  -0.7026439E-02 Eh
   gradient norm :     0.1840577 Eh/a0  converged?    E=F G=F D=F
   time step     :     0.2013138 fs     power     :   0.4319959E-06
   step length   :     0.0356537 a0     speed     :   0.4283972E-02

........................................................................
.............................. CYCLE   15 ..............................
........................................................................

 iter      E             dE          RMSdq      gap      omega  full diag
   1  -3478.7993809 -0.347880E+04  0.527E-03   10.81       0.0  T
   2  -3478.7993967 -0.157888E-04  0.302E-03   10.81       1.0  T
   3  -3478.7993968 -0.117307E-06  0.119E-03   10.81       1.5  T
   4  -3478.7993969 -0.660298E-07  0.125E-04   10.81      14.1  T
   5  -3478.7993969 -0.175933E-07  0.874E-05   10.81      20.1  T
     SCC iter.                  ...        4 min, 28.940 sec
     gradient                   ...        3 min, 32.819 sec
 * total energy  : -3427.4431030 Eh     change    :  -0.7172534E-02 Eh
   gradient norm :     0.1530583 Eh/a0  converged?    E=F G=F D=F
   time step     :     0.2013138 fs     power     :   0.4284656E-06
   step length   :     0.0426372 a0     speed     :   0.5123074E-02

........................................................................
.............................. CYCLE   16 ..............................
........................................................................

 iter      E             dE          RMSdq      gap      omega  full diag
   1  -3478.7104964 -0.347871E+04  0.595E-03   10.81       0.0  T
   2  -3478.7105167 -0.203102E-04  0.341E-03   10.81       1.0  T
   3  -3478.7105168 -0.136925E-06  0.135E-03   10.81       1.3  T
   4  -3478.7105169 -0.746695E-07  0.132E-04   10.81      13.3  T
   5  -3478.7105169 -0.204818E-07  0.900E-05   10.81      19.5  T
     SCC iter.                  ...        4 min, 38.533 sec
     gradient                   ...        3 min, 32.437 sec
 * total energy  : -3427.4496418 Eh     change    :  -0.6538835E-02 Eh
   gradient norm :     0.1187799 Eh/a0  converged?    E=F G=F D=F
   time step     :     0.2013138 fs     power     :   0.3744199E-06
   step length   :     0.0484217 a0     speed     :   0.5818104E-02

........................................................................
.............................. CYCLE   17 ..............................
........................................................................

 iter      E             dE          RMSdq      gap      omega  full diag
   1  -3478.6028346 -0.347860E+04  0.713E-03   10.81       0.0  T
   2  -3478.6028642 -0.295506E-04  0.409E-03   10.81       1.0  T
   3  -3478.6028644 -0.193024E-06  0.163E-03   10.81       1.1  T
   4  -3478.6028645 -0.104520E-06  0.156E-04   10.81      11.2  T
   5  -3478.6028645 -0.288910E-07  0.105E-04   10.81      16.7  T
     SCC iter.                  ...        4 min, 26.302 sec
     gradient                   ...        3 min, 33.083 sec
 * total energy  : -3427.4553134 Eh     change    :  -0.5671633E-02 Eh
   gradient norm :     0.0798634 Eh/a0  converged?    E=F G=F D=F
   time step     :     0.2214451 fs     power     :   0.2656395E-06
   step length   :     0.0586160 a0     speed     :   0.6402727E-02

........................................................................
.............................. CYCLE   18 ..............................
........................................................................

 iter      E             dE          RMSdq      gap      omega  full diag
   1  -3478.4778793 -0.347848E+04  0.817E-03   10.81       0.0  T
   2  -3478.4779187 -0.394709E-04  0.469E-03   10.81       1.0  T
   3  -3478.4779190 -0.254593E-06  0.189E-03   10.81       1.0  T
   4  -3478.4779191 -0.136200E-06  0.179E-04   10.81       9.8  T
   5  -3478.4779192 -0.382283E-07  0.118E-04   10.81      14.8  T
     SCC iter.                  ...        4 min, 23.621 sec
     gradient                   ...        3 min, 34.341 sec
 * total energy  : -3427.4589394 Eh     change    :  -0.3625936E-02 Eh
   gradient norm :     0.0460416 Eh/a0  converged?    E=F G=F D=F
   time step     :     0.2435896 fs     power     :   0.1082414E-06
   step length   :     0.0684350 a0     speed     :   0.6795706E-02

........................................................................
.............................. CYCLE   19 ..............................
........................................................................

 iter      E             dE          RMSdq      gap      omega  full diag
   1  -3478.3453406 -0.347835E+04  0.854E-03   10.81       0.0  T
   2  -3478.3453847 -0.441456E-04  0.492E-03   10.81       1.0  T
   3  -3478.3453850 -0.286058E-06  0.200E-03   10.81       1.0  T
   4  -3478.3453851 -0.147859E-06  0.188E-04   10.81       9.3  T
   5  -3478.3453852 -0.426498E-07  0.121E-04   10.81      14.5  T
     SCC iter.                  ...        4 min, 21.588 sec
     gradient                   ...        3 min, 33.879 sec
 * total energy  : -3427.4595796 Eh     change    :  -0.6402148E-03 Eh
   gradient norm :     0.0537366 Eh/a0  converged?    E=F G=F D=F
   time step     :     0.2679486 fs     power     :  -0.5846188E-07
   step length   :     0.0749501 a0     speed     :   0.6766058E-02

........................................................................
.............................. CYCLE   20 ..............................
........................................................................
 * reset velocities

 iter      E             dE          RMSdq      gap      omega  full diag
   1  -3478.3465466 -0.347835E+04  0.123E-04   10.81       0.0  T
   2  -3478.3465466 -0.635237E-08  0.799E-05   10.81      21.9  T
   3  -3478.3465466 -0.366208E-08  0.358E-05   10.81      48.9  T
     SCC iter.                  ...        2 min, 39.330 sec
     gradient                   ...        3 min, 32.900 sec
 * total energy  : -3427.4596280 Eh     change    :  -0.4841697E-04 Eh
   gradient norm :     0.0533409 Eh/a0  converged?    E=F G=F D=T
   time step     :     0.1339743 fs     power     :   0.4777557E-08
   step length   :     0.0009043 a0     speed     :   0.1632737E-03
 * RMSD in coord.:     0.0348932 a0     energy gain  -0.5809976E+00 Eh

........................................................................
.............................. CYCLE   21 ..............................
........................................................................

 iter      E             dE          RMSdq      gap      omega  full diag
   1  -3478.3526869 -0.347835E+04  0.560E-04   10.81       0.0  T
   2  -3478.3526870 -0.924665E-07  0.319E-04   10.81       5.5  T
   3  -3478.3526870 -0.832642E-09  0.884E-05   10.81      19.8  T
     SCC iter.                  ...        2 min, 39.544 sec
     gradient                   ...        3 min, 33.244 sec
 * total energy  : -3427.4598800 Eh     change    :  -0.2520322E-03 Eh
   gradient norm :     0.0514232 Eh/a0  converged?    E=F G=F D=F
   time step     :     0.2500000 fs     power     :   0.1312856E-07
   step length   :     0.0048132 a0     speed     :   0.4657013E-03

........................................................................
.............................. CYCLE   22 ..............................
........................................................................

 iter      E             dE          RMSdq      gap      omega  full diag
   1  -3478.3624920 -0.347836E+04  0.911E-04   10.81       0.0  T
   2  -3478.3624922 -0.236512E-06  0.520E-04   10.81       3.4  T
   3  -3478.3624922 -0.394130E-08  0.142E-04   10.81      12.3  T
     SCC iter.                  ...        2 min, 44.041 sec
     gradient                   ...        3 min, 33.300 sec
 * total energy  : -3427.4602704 Eh     change    :  -0.3903956E-03 Eh
   gradient norm :     0.0485028 Eh/a0  converged?    E=F G=F D=F
   time step     :     0.2500000 fs     power     :   0.2008086E-07
   step length   :     0.0078252 a0     speed     :   0.7571340E-03

........................................................................
.............................. CYCLE   23 ..............................
........................................................................

 iter      E             dE          RMSdq      gap      omega  full diag
   1  -3478.3754537 -0.347838E+04  0.122E-03   10.81       0.0  T
   2  -3478.3754541 -0.413310E-06  0.698E-04   10.81       2.5  T
   3  -3478.3754541 -0.908040E-08  0.188E-04   10.81       9.3  T
     SCC iter.                  ...        2 min, 38.311 sec
     gradient                   ...        3 min, 33.568 sec
 * total energy  : -3427.4607658 Eh     change    :  -0.4953470E-03 Eh
   gradient norm :     0.0449339 Eh/a0  converged?    E=F G=F D=F
   time step     :     0.2500000 fs     power     :   0.2516287E-07
   step length   :     0.0106598 a0     speed     :   0.1031389E-02

........................................................................
.............................. CYCLE   24 ..............................
........................................................................

 iter      E             dE          RMSdq      gap      omega  full diag
   1  -3478.3908591 -0.347839E+04  0.149E-03   10.81       0.0  T
   2  -3478.3908596 -0.581220E-06  0.849E-04   10.81       2.1  T
   3  -3478.3908596 -0.152145E-07  0.223E-04   10.81       7.9  T
     SCC iter.                  ...        2 min, 40.483 sec
     gradient                   ...        3 min, 32.266 sec
 * total energy  : -3427.4613287 Eh     change    :  -0.5629534E-03 Eh
   gradient norm :     0.0412241 Eh/a0  converged?    E=F G=F D=F
   time step     :     0.2500000 fs     power     :   0.2826634E-07
   step length   :     0.0132654 a0     speed     :   0.1283502E-02

........................................................................
.............................. CYCLE   25 ..............................
........................................................................

 iter      E             dE          RMSdq      gap      omega  full diag
   1  -3478.4077904 -0.347841E+04  0.169E-03   10.81       0.0  T
   2  -3478.4077911 -0.695794E-06  0.964E-04   10.81       1.8  T
   3  -3478.4077911 -0.212372E-07  0.243E-04   10.81       7.2  T
     SCC iter.                  ...        2 min, 41.203 sec
     gradient                   ...        3 min, 32.444 sec
 * total energy  : -3427.4619256 Eh     change    :  -0.5968294E-03 Eh
   gradient norm :     0.0379860 Eh/a0  converged?    E=F G=F D=F
   time step     :     0.2500000 fs     power     :   0.2969235E-07
   step length   :     0.0156064 a0     speed     :   0.1510001E-02

........................................................................
.............................. CYCLE   26 ..............................
........................................................................

 iter      E             dE          RMSdq      gap      omega  full diag
   1  -3478.4270110 -0.347843E+04  0.202E-03   10.81       0.0  T
   2  -3478.4270119 -0.881863E-06  0.115E-03   10.81       1.5  T
   3  -3478.4270120 -0.308423E-07  0.270E-04   10.81       6.5  T
   4  -3478.4270120 -0.125619E-07  0.638E-05   10.81      27.5  T
     SCC iter.                  ...        3 min, 36.298 sec
     gradient                   ...        3 min, 33.470 sec
 * total energy  : -3427.4625982 Eh     change    :  -0.6726284E-03 Eh
   gradient norm :     0.0356218 Eh/a0  converged?    E=F G=F D=F
   time step     :     0.2750000 fs     power     :   0.3007039E-07
   step length   :     0.0196661 a0     speed     :   0.1729816E-02

........................................................................
.............................. CYCLE   27 ..............................
........................................................................

 iter      E             dE          RMSdq      gap      omega  full diag
   1  -3478.4471220 -0.347845E+04  0.230E-03   10.81       0.0  T
   2  -3478.4471230 -0.948541E-06  0.131E-03   10.81       1.3  T
   3  -3478.4471230 -0.378759E-07  0.275E-04   10.81       6.4  T
   4  -3478.4471230 -0.155196E-07  0.700E-05   10.81      25.0  T
     SCC iter.                  ...        3 min, 42.247 sec
     gradient                   ...        3 min, 33.232 sec
 * total energy  : -3427.4633443 Eh     change    :  -0.7461422E-03 Eh
   gradient norm :     0.0348174 Eh/a0  converged?    E=F G=F D=F
   time step     :     0.3025000 fs     power     :   0.3022520E-07
   step length   :     0.0242315 a0     speed     :   0.1937625E-02

........................................................................
.............................. CYCLE   28 ..............................
........................................................................

 iter      E             dE          RMSdq      gap      omega  full diag
   1  -3478.4658429 -0.347847E+04  0.249E-03   10.81       0.0  T
   2  -3478.4658437 -0.785629E-06  0.143E-03   10.81       1.2  T
   3  -3478.4658437 -0.458504E-07  0.243E-04   10.81       7.2  T
   4  -3478.4658437 -0.174027E-07  0.753E-05   10.81      23.3  T
     SCC iter.                  ...        3 min, 33.007 sec
     gradient                   ...        3 min, 32.772 sec
 * total energy  : -3427.4641889 Eh     change    :  -0.8445940E-03 Eh
   gradient norm :     0.0354606 Eh/a0  converged?    E=F G=F D=F
   time step     :     0.3327500 fs     power     :   0.3144268E-07
   step length   :     0.0293485 a0     speed     :   0.2133453E-02

........................................................................
.............................. CYCLE   29 ..............................
........................................................................

 iter      E             dE          RMSdq      gap      omega  full diag
   1  -3478.4803167 -0.347848E+04  0.261E-03   10.81       0.0  T
   2  -3478.4803172 -0.455372E-06  0.151E-03   10.81       1.2  T
   3  -3478.4803172 -0.503778E-07  0.181E-04   10.81       9.7  T
   4  -3478.4803172 -0.184173E-07  0.768E-05   10.81      22.8  T
     SCC iter.                  ...        3 min, 38.408 sec
     gradient                   ...        3 min, 32.635 sec
 * total energy  : -3427.4651931 Eh     change    :  -0.1004167E-02 Eh
   gradient norm :     0.0363118 Eh/a0  converged?    E=F G=F D=F
   time step     :     0.3660250 fs     power     :   0.3465086E-07
   step length   :     0.0352483 a0     speed     :   0.2329393E-02

........................................................................
.............................. CYCLE   30 ..............................
........................................................................

 iter      E             dE          RMSdq      gap      omega  full diag
   1  -3478.4877368 -0.347849E+04  0.273E-03   10.81       0.0  T
   2  -3478.4877370 -0.230018E-06  0.160E-03   10.81       1.1  T
   3  -3478.4877370 -0.497566E-07  0.138E-04   10.81      12.7  T
   4  -3478.4877371 -0.202908E-07  0.745E-05   10.81      23.5  T
     SCC iter.                  ...        3 min, 40.307 sec
     gradient                   ...        3 min, 33.265 sec
 * total energy  : -3427.4664340 Eh     change    :  -0.1240917E-02 Eh
   gradient norm :     0.0356852 Eh/a0  converged?    E=F G=F D=F
   time step     :     0.4026275 fs     power     :   0.3940177E-07
   step length   :     0.0423995 a0     speed     :   0.2547253E-02

........................................................................
.............................. CYCLE   31 ..............................
........................................................................

 iter      E             dE          RMSdq      gap      omega  full diag
   1  -3478.4862278 -0.347849E+04  0.300E-03   10.81       0.0  T
   2  -3478.4862283 -0.514474E-06  0.177E-03   10.81       1.0  T
   3  -3478.4862284 -0.467880E-07  0.160E-04   10.81      11.0  T
   4  -3478.4862284 -0.229115E-07  0.674E-05   10.81      26.0  T
     SCC iter.                  ...        3 min, 33.302 sec
     gradient                   ...        3 min, 33.268 sec
 * total energy  : -3427.4679506 Eh     change    :  -0.1516624E-02 Eh
   gradient norm :     0.0324873 Eh/a0  converged?    E=F G=F D=F
   time step     :     0.4428903 fs     power     :   0.4346426E-07
   step length   :     0.0513388 a0     speed     :   0.2803916E-02

........................................................................
.............................. CYCLE   32 ..............................
........................................................................

 iter      E             dE          RMSdq      gap      omega  full diag
   1  -3478.4763542 -0.347848E+04  0.347E-03   10.81       0.0  T
   2  -3478.4763557 -0.149489E-05  0.207E-03   10.81       1.0  T
   3  -3478.4763558 -0.529876E-07  0.273E-04   10.81       6.4  T
   4  -3478.4763558 -0.253604E-07  0.682E-05   10.81      25.7  T
     SCC iter.                  ...        3 min, 36.551 sec
     gradient                   ...        3 min, 33.191 sec
 * total energy  : -3427.4696830 Eh     change    :  -0.1732397E-02 Eh
   gradient norm :     0.0275294 Eh/a0  converged?    E=F G=F D=F
   time step     :     0.4871793 fs     power     :   0.4389604E-07
   step length   :     0.0623764 a0     speed     :   0.3097039E-02

........................................................................
.............................. CYCLE   33 ..............................
........................................................................

 iter      E             dE          RMSdq      gap      omega  full diag
   1  -3478.4635786 -0.347846E+04  0.403E-03   10.81       0.0  T
   2  -3478.4635811 -0.245021E-05  0.241E-03   10.81       1.0  T
   3  -3478.4635811 -0.646469E-07  0.359E-04   10.81       4.9  T
   4  -3478.4635812 -0.282130E-07  0.723E-05   10.81      24.2  T
     SCC iter.                  ...        3 min, 35.498 sec
     gradient                   ...        3 min, 32.077 sec
 * total energy  : -3427.4714867 Eh     change    :  -0.1803710E-02 Eh
   gradient norm :     0.0246722 Eh/a0  converged?    E=F G=F D=F
   time step     :     0.5358972 fs     power     :   0.4009859E-07
   step length   :     0.0753287 a0     speed     :   0.3400117E-02

........................................................................
.............................. CYCLE   34 ..............................
........................................................................

 iter      E             dE          RMSdq      gap      omega  full diag
   1  -3478.4605239 -0.347846E+04  0.446E-03   10.82       0.0  T
   2  -3478.4605257 -0.183289E-05  0.267E-03   10.82       1.0  T
   3  -3478.4605258 -0.800842E-07  0.260E-04   10.82       6.8  T
   4  -3478.4605258 -0.281184E-07  0.759E-05   10.82      23.1  T
     SCC iter.                  ...        3 min, 45.353 sec
     gradient                   ...        3 min, 32.615 sec
 * total energy  : -3427.4732996 Eh     change    :  -0.1812829E-02 Eh
   gradient norm :     0.0260616 Eh/a0  converged?    E=F G=F D=F
   time step     :     0.5894869 fs     power     :   0.3649954E-07
   step length   :     0.0892145 a0     speed     :   0.3660801E-02

........................................................................
.............................. CYCLE   35 ..............................
........................................................................

 iter      E             dE          RMSdq      gap      omega  full diag
   1  -3478.4814186 -0.347848E+04  0.498E-03   10.82       0.0  T
   2  -3478.4814190 -0.396639E-06  0.294E-03   10.82       1.0  T
   3  -3478.4814191 -0.111947E-06  0.149E-04   10.82      11.8  T
   4  -3478.4814192 -0.188325E-07  0.846E-05   10.82      20.7  T
     SCC iter.                  ...        3 min, 35.527 sec
     gradient                   ...        3 min, 33.055 sec
 * total energy  : -3427.4752586 Eh     change    :  -0.1959002E-02 Eh
   gradient norm :     0.0259785 Eh/a0  converged?    E=F G=F D=F
   time step     :     0.6484356 fs     power     :   0.3673664E-07
   step length   :     0.1035104 a0     speed     :   0.3861290E-02

........................................................................
.............................. CYCLE   36 ..............................
........................................................................

 iter      E             dE          RMSdq      gap      omega  full diag
   1  -3478.5325583 -0.347853E+04  0.596E-03   10.82       0.0  T
   2  -3478.5325597 -0.135457E-05  0.345E-03   10.82       1.0  T
   3  -3478.5325598 -0.155913E-06  0.249E-04   10.82       7.0  T
   4  -3478.5325598 -0.201130E-07  0.102E-04   10.82      17.1  T
     SCC iter.                  ...        3 min, 37.809 sec
     gradient                   ...        3 min, 32.920 sec
 * total energy  : -3427.4774195 Eh     change    :  -0.2160894E-02 Eh
   gradient norm :     0.0214346 Eh/a0  converged?    E=F G=F D=F
   time step     :     0.7132792 fs     power     :   0.3600013E-07
   step length   :     0.1199073 a0     speed     :   0.4066318E-02

........................................................................
.............................. CYCLE   37 ..............................
........................................................................

 iter      E             dE          RMSdq      gap      omega  full diag
   1  -3478.6025457 -0.347860E+04  0.680E-03   10.83       0.0  T
   2  -3478.6025493 -0.351996E-05  0.389E-03   10.83       1.0  T
   3  -3478.6025494 -0.174915E-06  0.441E-04   10.83       4.0  T
   4  -3478.6025495 -0.341611E-07  0.113E-04   10.82      15.5  T
     SCC iter.                  ...        3 min, 32.475 sec
     gradient                   ...        3 min, 33.182 sec
 * total energy  : -3427.4795486 Eh     change    :  -0.2129087E-02 Eh
   gradient norm :     0.0210928 Eh/a0  converged?    E=F G=F D=F
   time step     :     0.7846071 fs     power     :   0.3044187E-07
   step length   :     0.1392077 a0     speed     :   0.4291667E-02

........................................................................
.............................. CYCLE   38 ..............................
........................................................................

 iter      E             dE          RMSdq      gap      omega  full diag
   1  -3478.6547376 -0.347865E+04  0.634E-03   10.83       0.0  T
   2  -3478.6547386 -0.104695E-05  0.367E-03   10.83       1.0  T
   3  -3478.6547388 -0.145722E-06  0.217E-04   10.83       8.1  T
   4  -3478.6547388 -0.186119E-07  0.903E-05   10.83      19.4  T
     SCC iter.                  ...        3 min, 31.793 sec
     gradient                   ...        3 min, 33.601 sec
 * total energy  : -3427.4817113 Eh     change    :  -0.2162762E-02 Eh
   gradient norm :     0.0239236 Eh/a0  converged?    E=F G=F D=F
   time step     :     0.8630678 fs     power     :   0.2956687E-07
   step length   :     0.1584917 a0     speed     :   0.4441982E-02

........................................................................
.............................. CYCLE   39 ..............................
........................................................................

 iter      E             dE          RMSdq      gap      omega  full diag
   1  -3478.6636559 -0.347866E+04  0.580E-03   10.83       0.0  T
   2  -3478.6636579 -0.192150E-05  0.347E-03   10.83       1.0  T
   3  -3478.6636580 -0.163062E-06  0.231E-04   10.83       7.6  T
   4  -3478.6636580 -0.212526E-07  0.103E-04   10.83      16.9  T
     SCC iter.                  ...        3 min, 35.791 sec
     gradient                   ...        3 min, 33.664 sec
 * total energy  : -3427.4842199 Eh     change    :  -0.2508609E-02 Eh
   gradient norm :     0.0203125 Eh/a0  converged?    E=F G=F D=F
   time step     :     0.9493746 fs     power     :   0.3127170E-07
   step length   :     0.1796812 a0     speed     :   0.4578046E-02

........................................................................
.............................. CYCLE   40 ..............................
........................................................................

 iter      E             dE          RMSdq      gap      omega  full diag
   1  -3478.6460284 -0.347865E+04  0.586E-03   10.84       0.0  T
   2  -3478.6460336 -0.518659E-05  0.353E-03   10.84       1.0  T
   3  -3478.6460338 -0.237167E-06  0.500E-04   10.84       3.5  T
   4  -3478.6460339 -0.497116E-07  0.147E-04   10.84      11.9  T
     SCC iter.                  ...        3 min, 34.960 sec
     gradient                   ...        3 min, 33.736 sec
 * total energy  : -3427.4868724 Eh     change    :  -0.2652433E-02 Eh
   gradient norm :     0.0227882 Eh/a0  converged?    E=F G=F D=F
   time step     :     1.0443120 fs     power     :   0.2903950E-07
   step length   :     0.2059300 a0     speed     :   0.4769846E-02

........................................................................
.............................. CYCLE   41 ..............................
........................................................................

 iter      E             dE          RMSdq      gap      omega  full diag
   1  -3478.6600838 -0.347866E+04  0.649E-03   10.85       0.0  T
   2  -3478.6600846 -0.785458E-06  0.381E-03   10.85       1.0  T
   3  -3478.6600848 -0.223336E-06  0.223E-04   10.85       7.8  T
   4  -3478.6600848 -0.296081E-07  0.130E-04   10.85      13.5  T
     SCC iter.                  ...        3 min, 33.580 sec
     gradient                   ...        3 min, 32.828 sec
 * total energy  : -3427.4900140 Eh     change    :  -0.3141659E-02 Eh
   gradient norm :     0.0209727 Eh/a0  converged?    E=F G=F D=F
   time step     :     1.1487432 fs     power     :   0.3349235E-07
   step length   :     0.2339946 a0     speed     :   0.4927174E-02

........................................................................
.............................. CYCLE   42 ..............................
........................................................................

 iter      E             dE          RMSdq      gap      omega  full diag
   1  -3478.7061324 -0.347871E+04  0.828E-03   10.85       0.0  T
   2  -3478.7061367 -0.435265E-05  0.480E-03   10.85       1.0  T
   3  -3478.7061369 -0.217949E-06  0.441E-04   10.86       4.0  T
   4  -3478.7061370 -0.389782E-07  0.117E-04   10.85      15.0  T
     SCC iter.                  ...        3 min, 35.054 sec
     gradient                   ...        3 min, 32.966 sec
 * total energy  : -3427.4935010 Eh     change    :  -0.3486942E-02 Eh
   gradient norm :     0.0211914 Eh/a0  converged?    E=F G=F D=F
   time step     :     1.2500000 fs     power     :   0.3172856E-07
   step length   :     0.2672671 a0     speed     :   0.5171906E-02
 * RMSD in coord.:     0.0305635 a0     energy gain  -0.3387295E-01 Eh

........................................................................
.............................. CYCLE   43 ..............................
........................................................................

 iter      E             dE          RMSdq      gap      omega  full diag
   1  -3478.7086004 -0.347871E+04  0.132E-03   10.86       0.0  T
   2  -3478.7086004 -0.316418E-07  0.772E-04   10.86       2.3  T
   3  -3478.7086004 -0.799218E-08  0.451E-05   10.86      38.9  T
     SCC iter.                  ...        2 min, 40.352 sec
     gradient                   ...        3 min, 32.103 sec
 * total energy  : -3427.4941682 Eh     change    :  -0.6672842E-03 Eh
   gradient norm :     0.0212875 Eh/a0  converged?    E=F G=F D=F
   time step     :     0.2500000 fs     power     :   0.3486663E-07
   step length   :     0.0518868 a0     speed     :   0.5020325E-02

........................................................................
.............................. CYCLE   44 ..............................
........................................................................

 iter      E             dE          RMSdq      gap      omega  full diag
   1  -3478.7049636 -0.347870E+04  0.125E-03   10.86       0.0  T
   2  -3478.7049638 -0.137994E-06  0.735E-04   10.86       2.4  T
   3  -3478.7049638 -0.922228E-08  0.764E-05   10.86      22.9  T
     SCC iter.                  ...        2 min, 40.463 sec
     gradient                   ...        3 min, 32.920 sec
 * total energy  : -3427.4948832 Eh     change    :  -0.7149707E-03 Eh
   gradient norm :     0.0197755 Eh/a0  converged?    E=F G=F D=F
   time step     :     0.2500000 fs     power     :   0.3725223E-07
   step length   :     0.0507900 a0     speed     :   0.4914210E-02

........................................................................
.............................. CYCLE   45 ..............................
........................................................................

 iter      E             dE          RMSdq      gap      omega  full diag
   1  -3478.6968489 -0.347870E+04  0.138E-03   10.86       0.0  T
   2  -3478.6968492 -0.365411E-06  0.810E-04   10.86       2.2  T
   3  -3478.6968493 -0.122222E-07  0.152E-04   10.86      11.5  T
     SCC iter.                  ...        2 min, 40.192 sec
     gradient                   ...        3 min, 32.321 sec
 * total energy  : -3427.4956156 Eh     change    :  -0.7324376E-03 Eh
   gradient norm :     0.0176222 Eh/a0  converged?    E=F G=F D=F
   time step     :     0.2500000 fs     power     :   0.3767206E-07
   step length   :     0.0502683 a0     speed     :   0.4863724E-02

........................................................................
.............................. CYCLE   46 ..............................
........................................................................

 iter      E             dE          RMSdq      gap      omega  full diag
   1  -3478.6869288 -0.347869E+04  0.152E-03   10.86       0.0  T
   2  -3478.6869293 -0.501882E-06  0.889E-04   10.86       2.0  T
   3  -3478.6869293 -0.141754E-07  0.185E-04   10.86       9.5  T
     SCC iter.                  ...        2 min, 38.317 sec
     gradient                   ...        3 min, 33.098 sec
 * total energy  : -3427.4963320 Eh     change    :  -0.7163579E-03 Eh
   gradient norm :     0.0163417 Eh/a0  converged?    E=F G=F D=F
   time step     :     0.2500000 fs     power     :   0.3646549E-07
   step length   :     0.0502274 a0     speed     :   0.4859773E-02

........................................................................
.............................. CYCLE   47 ..............................
........................................................................

 iter      E             dE          RMSdq      gap      omega  full diag
   1  -3478.6786478 -0.347868E+04  0.155E-03   10.86       0.0  T
   2  -3478.6786482 -0.400793E-06  0.903E-04   10.86       1.9  T
   3  -3478.6786482 -0.135474E-07  0.155E-04   10.86      11.3  T
     SCC iter.                  ...        2 min, 40.246 sec
     gradient                   ...        3 min, 32.535 sec
 * total energy  : -3427.4970218 Eh     change    :  -0.6897949E-03 Eh
   gradient norm :     0.0165284 Eh/a0  converged?    E=F G=F D=F
   time step     :     0.2500000 fs     power     :   0.3520344E-07
   step length   :     0.0503168 a0     speed     :   0.4868420E-02

........................................................................
.............................. CYCLE   48 ..............................
........................................................................

 iter      E             dE          RMSdq      gap      omega  full diag
   1  -3478.6745229 -0.347867E+04  0.164E-03   10.86       0.0  T
   2  -3478.6745231 -0.206812E-06  0.959E-04   10.86       1.8  T
   3  -3478.6745231 -0.130667E-07  0.914E-05   10.86      19.2  T
     SCC iter.                  ...        2 min, 42.462 sec
     gradient                   ...        3 min, 33.504 sec
 * total energy  : -3427.4977673 Eh     change    :  -0.7455063E-03 Eh
   gradient norm :     0.0171166 Eh/a0  converged?    E=F G=F D=F
   time step     :     0.2750000 fs     power     :   0.3490776E-07
   step length   :     0.0553104 a0     speed     :   0.4865075E-02

........................................................................
.............................. CYCLE   49 ..............................
........................................................................

 iter      E             dE          RMSdq      gap      omega  full diag
   1  -3478.6771514 -0.347868E+04  0.178E-03   10.86       0.0  T
   2  -3478.6771515 -0.564064E-07  0.104E-03   10.86       1.7  T
   3  -3478.6771515 -0.139971E-07  0.528E-05   10.86      33.2  T
   4  -3478.6771515 -0.301452E-08  0.267E-05   10.86      65.6  T
     SCC iter.                  ...        3 min, 34.555 sec
     gradient                   ...        3 min, 32.806 sec
 * total energy  : -3427.4985924 Eh     change    :  -0.8250595E-03 Eh
   gradient norm :     0.0166668 Eh/a0  converged?    E=F G=F D=F
   time step     :     0.3025000 fs     power     :   0.3530422E-07
   step length   :     0.0607356 a0     speed     :   0.4856605E-02

........................................................................
.............................. CYCLE   50 ..............................
........................................................................

 iter      E             dE          RMSdq      gap      omega  full diag
   1  -3478.6875086 -0.347869E+04  0.204E-03   10.87       0.0  T
   2  -3478.6875088 -0.174065E-06  0.119E-03   10.87       1.5  T
   3  -3478.6875088 -0.186692E-07  0.847E-05   10.87      20.7  T
   4  -3478.6875088 -0.417231E-08  0.344E-05   10.87      50.9  T
     SCC iter.                  ...        3 min, 35.879 sec
     gradient                   ...        3 min, 33.264 sec
 * total energy  : -3427.4994989 Eh     change    :  -0.9065150E-03 Eh
   gradient norm :     0.0148597 Eh/a0  converged?    E=F G=F D=F
   time step     :     0.3327500 fs     power     :   0.3495267E-07
   step length   :     0.0670311 a0     speed     :   0.4872743E-02

........................................................................
.............................. CYCLE   51 ..............................
........................................................................

 iter      E             dE          RMSdq      gap      omega  full diag
   1  -3478.7038375 -0.347870E+04  0.233E-03   10.87       0.0  T
   2  -3478.7038380 -0.477804E-06  0.135E-03   10.87       1.3  T
   3  -3478.7038380 -0.262562E-07  0.156E-04   10.87      11.2  T
   4  -3478.7038380 -0.610498E-08  0.453E-05   10.87      38.7  T
     SCC iter.                  ...        3 min, 37.126 sec
     gradient                   ...        3 min, 33.554 sec
 * total energy  : -3427.5004560 Eh     change    :  -0.9570773E-03 Eh
   gradient norm :     0.0134176 Eh/a0  converged?    E=F G=F D=F
   time step     :     0.3660250 fs     power     :   0.3296918E-07
   step length   :     0.0746409 a0     speed     :   0.4932663E-02

........................................................................
.............................. CYCLE   52 ..............................
........................................................................

 iter      E             dE          RMSdq      gap      omega  full diag
   1  -3478.7198386 -0.347872E+04  0.240E-03   10.87       0.0  T
   2  -3478.7198391 -0.457482E-06  0.140E-03   10.87       1.3  T
   3  -3478.7198391 -0.291666E-07  0.149E-04   10.87      11.8  T
   4  -3478.7198391 -0.630598E-08  0.470E-05   10.87      37.3  T
     SCC iter.                  ...        3 min, 34.052 sec
     gradient                   ...        3 min, 32.025 sec
 * total energy  : -3427.5014429 Eh     change    :  -0.9869781E-03 Eh
   gradient norm :     0.0141166 Eh/a0  converged?    E=F G=F D=F
   time step     :     0.4026275 fs     power     :   0.3085492E-07
   step length   :     0.0833355 a0     speed     :   0.5006585E-02

........................................................................
.............................. CYCLE   53 ..............................
........................................................................

 iter      E             dE          RMSdq      gap      omega  full diag
   1  -3478.7274181 -0.347873E+04  0.226E-03   10.87       0.0  T
   2  -3478.7274182 -0.118078E-06  0.133E-03   10.87       1.3  T
   3  -3478.7274182 -0.263494E-07  0.741E-05   10.87      23.7  T
   4  -3478.7274182 -0.449654E-08  0.392E-05   10.87      44.7  T
     SCC iter.                  ...        3 min, 36.671 sec
     gradient                   ...        3 min, 32.189 sec
 * total energy  : -3427.5024959 Eh     change    :  -0.1052976E-02 Eh
   gradient norm :     0.0145896 Eh/a0  converged?    E=F G=F D=F
   time step     :     0.4428903 fs     power     :   0.3038559E-07
   step length   :     0.0922100 a0     speed     :   0.5036128E-02

........................................................................
.............................. CYCLE   54 ..............................
........................................................................

 iter      E             dE          RMSdq      gap      omega  full diag
   1  -3478.7225713 -0.347872E+04  0.227E-03   10.88       0.0  T
   2  -3478.7225716 -0.295843E-06  0.134E-03   10.88       1.3  T
   3  -3478.7225717 -0.286645E-07  0.985E-05   10.88      17.8  T
   4  -3478.7225717 -0.482169E-08  0.409E-05   10.88      42.8  T
     SCC iter.                  ...        3 min, 40.198 sec
     gradient                   ...        3 min, 31.966 sec
 * total energy  : -3427.5036470 Eh     change    :  -0.1151038E-02 Eh
   gradient norm :     0.0131142 Eh/a0  converged?    E=F G=F D=F
   time step     :     0.4871793 fs     power     :   0.3008793E-07
   step length   :     0.1018754 a0     speed     :   0.5058195E-02

........................................................................
.............................. CYCLE   55 ..............................
........................................................................

 iter      E             dE          RMSdq      gap      omega  full diag
   1  -3478.7087834 -0.347871E+04  0.242E-03   10.88       0.0  T
   2  -3478.7087843 -0.883721E-06  0.143E-03   10.88       1.2  T
   3  -3478.7087844 -0.388823E-07  0.217E-04   10.88       8.1  T
   4  -3478.7087844 -0.788577E-08  0.555E-05   10.88      31.6  T
     SCC iter.                  ...        3 min, 36.876 sec
     gradient                   ...        3 min, 33.239 sec
 * total energy  : -3427.5048643 Eh     change    :  -0.1217315E-02 Eh
   gradient norm :     0.0127254 Eh/a0  converged?    E=F G=F D=F
   time step     :     0.5358972 fs     power     :   0.2845391E-07
   step length   :     0.1134465 a0     speed     :   0.5120645E-02

........................................................................
.............................. CYCLE   56 ..............................
........................................................................

 iter      E             dE          RMSdq      gap      omega  full diag
   1  -3478.7000536 -0.347870E+04  0.230E-03   10.88       0.0  T
   2  -3478.7000541 -0.485374E-06  0.136E-03   10.88       1.3  T
   3  -3478.7000541 -0.406835E-07  0.146E-04   10.88      12.0  T
   4  -3478.7000542 -0.699947E-08  0.567E-05   10.88      30.9  T
     SCC iter.                  ...        3 min, 33.479 sec
     gradient                   ...        3 min, 33.001 sec
 * total energy  : -3427.5061585 Eh     change    :  -0.1294260E-02 Eh
   gradient norm :     0.0139262 Eh/a0  converged?    E=F G=F D=F
   time step     :     0.5894869 fs     power     :   0.2794681E-07
   step length   :     0.1260989 a0     speed     :   0.5174308E-02

........................................................................
.............................. CYCLE   57 ..............................
........................................................................

 iter      E             dE          RMSdq      gap      omega  full diag
   1  -3478.7079617 -0.347871E+04  0.252E-03   10.89       0.0  T
   2  -3478.7079619 -0.193639E-06  0.147E-03   10.89       1.2  T
   3  -3478.7079619 -0.330365E-07  0.111E-04   10.89      15.8  T
   4  -3478.7079619 -0.793443E-08  0.506E-05   10.89      34.6  T
     SCC iter.                  ...        3 min, 37.189 sec
     gradient                   ...        3 min, 31.639 sec
 * total energy  : -3427.5076011 Eh     change    :  -0.1442564E-02 Eh
   gradient norm :     0.0126988 Eh/a0  converged?    E=F G=F D=F
   time step     :     0.6484356 fs     power     :   0.2847729E-07
   step length   :     0.1394699 a0     speed     :   0.5202699E-02

........................................................................
.............................. CYCLE   58 ..............................
........................................................................

 iter      E             dE          RMSdq      gap      omega  full diag
   1  -3478.7305004 -0.347873E+04  0.309E-03   10.89       0.0  T
   2  -3478.7305011 -0.761778E-06  0.178E-03   10.89       1.0  T
   3  -3478.7305012 -0.326086E-07  0.215E-04   10.89       8.1  T
   4  -3478.7305012 -0.102559E-07  0.504E-05   10.89      34.8  T
     SCC iter.                  ...        3 min, 32.951 sec
     gradient                   ...        3 min, 32.557 sec
 * total energy  : -3427.5091634 Eh     change    :  -0.1562264E-02 Eh
   gradient norm :     0.0125694 Eh/a0  converged?    E=F G=F D=F
   time step     :     0.7132792 fs     power     :   0.2752030E-07
   step length   :     0.1556922 a0     speed     :   0.5279861E-02

........................................................................
.............................. CYCLE   59 ..............................
........................................................................

 iter      E             dE          RMSdq      gap      omega  full diag
   1  -3478.7471889 -0.347875E+04  0.294E-03   10.90       0.0  T
   2  -3478.7471891 -0.199697E-06  0.172E-03   10.90       1.0  T
   3  -3478.7471891 -0.384684E-07  0.111E-04   10.90      15.8  T
   4  -3478.7471891 -0.781620E-08  0.562E-05   10.90      31.1  T
     SCC iter.                  ...        3 min, 33.540 sec
     gradient                   ...        3 min, 32.773 sec
 * total energy  : -3427.5108706 Eh     change    :  -0.1707214E-02 Eh
   gradient norm :     0.0129465 Eh/a0  converged?    E=F G=F D=F
   time step     :     0.7846071 fs     power     :   0.2788796E-07
   step length   :     0.1736338 a0     speed     :   0.5352998E-02

........................................................................
.............................. CYCLE   60 ..............................
........................................................................

 iter      E             dE          RMSdq      gap      omega  full diag
   1  -3478.7483992 -0.347875E+04  0.306E-03   10.91       0.0  T
   2  -3478.7484003 -0.107103E-05  0.185E-03   10.91       1.0  T
   3  -3478.7484003 -0.593577E-07  0.212E-04   10.91       8.3  T
   4  -3478.7484003 -0.138939E-07  0.766E-05   10.91      22.9  T
     SCC iter.                  ...        3 min, 33.396 sec
     gradient                   ...        3 min, 32.616 sec
 * total energy  : -3427.5127624 Eh     change    :  -0.1891788E-02 Eh
   gradient norm :     0.0113178 Eh/a0  converged?    E=F G=F D=F
   time step     :     0.8630678 fs     power     :   0.2758720E-07
   step length   :     0.1939237 a0     speed     :   0.5435018E-02

........................................................................
.............................. CYCLE   61 ..............................
........................................................................

 iter      E             dE          RMSdq      gap      omega  full diag
   1  -3478.7586145 -0.347876E+04  0.343E-03   10.92       0.0  T
   2  -3478.7586151 -0.598840E-06  0.206E-03   10.92       1.0  T
   3  -3478.7586152 -0.534801E-07  0.135E-04   10.92      13.0  T
   4  -3478.7586152 -0.114542E-07  0.659E-05   10.92      26.6  T
     SCC iter.                  ...        3 min, 32.186 sec
     gradient                   ...        3 min, 32.960 sec
 * total energy  : -3427.5147877 Eh     change    :  -0.2025293E-02 Eh
   gradient norm :     0.0119219 Eh/a0  converged?    E=F G=F D=F
   time step     :     0.9493746 fs     power     :   0.2697537E-07
   step length   :     0.2183278 a0     speed     :   0.5562712E-02

........................................................................
.............................. CYCLE   62 ..............................
........................................................................

 iter      E             dE          RMSdq      gap      omega  full diag
   1  -3478.7985655 -0.347880E+04  0.487E-03   10.93       0.0  T
   2  -3478.7985665 -0.975491E-06  0.282E-03   10.93       1.0  T
   3  -3478.7985665 -0.633613E-07  0.217E-04   10.93       8.1  T
   4  -3478.7985666 -0.115269E-07  0.644E-05   10.93      27.2  T
     SCC iter.                  ...        3 min, 35.175 sec
     gradient                   ...        3 min, 31.667 sec
 * total energy  : -3427.5169735 Eh     change    :  -0.2185847E-02 Eh
   gradient norm :     0.0102783 Eh/a0  converged?    E=F G=F D=F
   time step     :     1.0443120 fs     power     :   0.2590992E-07
   step length   :     0.2448123 a0     speed     :   0.5670457E-02

........................................................................
.............................. CYCLE   63 ..............................
........................................................................

 iter      E             dE          RMSdq      gap      omega  full diag
   1  -3478.8227534 -0.347882E+04  0.495E-03   10.93       0.0  T
   2  -3478.8227538 -0.428271E-06  0.291E-03   10.93       1.0  T
   3  -3478.8227539 -0.645614E-07  0.144E-04   10.93      12.2  T
   4  -3478.8227539 -0.181203E-07  0.665E-05   10.93      26.3  T
     SCC iter.                  ...        3 min, 32.323 sec
     gradient                   ...        3 min, 32.371 sec
 * total energy  : -3427.5192564 Eh     change    :  -0.2282877E-02 Eh
   gradient norm :     0.0100943 Eh/a0  converged?    E=F G=F D=F
   time step     :     1.1487432 fs     power     :   0.2479779E-07
   step length   :     0.2760087 a0     speed     :   0.5811858E-02

........................................................................
.............................. CYCLE   64 ..............................
........................................................................

 iter      E             dE          RMSdq      gap      omega  full diag
   1  -3478.8137732 -0.347881E+04  0.474E-03   10.94       0.0  T
   2  -3478.8137757 -0.253044E-05  0.284E-03   10.94       1.0  T
   3  -3478.8137758 -0.635614E-07  0.314E-04   10.94       5.6  T
   4  -3478.8137758 -0.271712E-07  0.745E-05   10.94      23.5  T
     SCC iter.                  ...        3 min, 39.902 sec
     gradient                   ...        3 min, 32.471 sec
 * total energy  : -3427.5215896 Eh     change    :  -0.2333216E-02 Eh
   gradient norm :     0.0112603 Eh/a0  converged?    E=F G=F D=F
   time step     :     1.2500000 fs     power     :   0.2252728E-07
   step length   :     0.3069436 a0     speed     :   0.5939688E-02

........................................................................
.............................. CYCLE   65 ..............................
........................................................................

 iter      E             dE          RMSdq      gap      omega  full diag
   1  -3478.8489766 -0.347885E+04  0.576E-03   10.95       0.0  T
   2  -3478.8489780 -0.142967E-05  0.333E-03   10.95       1.0  T
   3  -3478.8489781 -0.692762E-07  0.262E-04   10.95       6.7  T
   4  -3478.8489781 -0.241148E-07  0.755E-05   10.95      23.2  T
     SCC iter.                  ...        3 min, 38.463 sec
     gradient                   ...        3 min, 32.070 sec
 * total energy  : -3427.5238130 Eh     change    :  -0.2223446E-02 Eh
   gradient norm :     0.0099936 Eh/a0  converged?    E=F G=F D=F
   time step     :     1.2500000 fs     power     :   0.2151808E-07
   step length   :     0.3088999 a0     speed     :   0.5977545E-02

........................................................................
.............................. CYCLE   66 ..............................
........................................................................

 iter      E             dE          RMSdq      gap      omega  full diag
   1  -3478.8594626 -0.347886E+04  0.442E-03   10.96       0.0  T
   2  -3478.8594633 -0.696832E-06  0.263E-03   10.96       1.0  T
   3  -3478.8594633 -0.537352E-07  0.147E-04   10.96      11.9  T
   4  -3478.8594633 -0.175933E-07  0.677E-05   10.96      25.9  T
     SCC iter.                  ...        3 min, 33.757 sec
     gradient                   ...        3 min, 33.563 sec
 * total energy  : -3427.5259467 Eh     change    :  -0.2133677E-02 Eh
   gradient norm :     0.0091199 Eh/a0  converged?    E=F G=F D=F
   time step     :     1.2500000 fs     power     :   0.2129552E-07
   step length   :     0.3111585 a0     speed     :   0.6021251E-02

[...]
  3011   6 C     3012   6 C                                       1.5273406
  3012   6 C     3013   6 C                                       1.5264775
  3013   6 C     3014   6 C                                       1.5267577
  3014   6 C     3015   6 C                                       1.5263608
  3015   6 C     3016   6 C                                       1.5239694
  3015   6 C     3017   1 H                                       1.0931018
  3015   6 C     3018   1 H                                       1.0929166
  3014   6 C     3019   1 H                                       1.0929775
  3014   6 C     3020   1 H                                       1.0935068
  3013   6 C     3021   1 H                                       1.0934940
  3013   6 C     3022   1 H                                       1.0934824
  3012   6 C     3023   1 H                                       1.0929766
  3012   6 C     3024   1 H                                       1.0933071
  3011   6 C     3025   1 H                                       1.0936085
  3011   6 C     3026   1 H                                       1.0932973
  3010   6 C     3027   1 H                                       1.0904221
  3010   6 C     3028   1 H                                       1.0929816
  3009   6 C     3029   1 H                                       1.0939826
  3009   6 C     3030   1 H                                       1.0931034
  3008   6 C     3031   1 H                                       1.0914703
  3008   6 C     3032   1 H                                       1.0934515
  3007   6 C     3033   1 H                                       1.0923355
  3007   6 C     3034   1 H                                       1.0902298
  3006   6 C     3035   1 H                                       1.0927314
  3006   6 C     3036   1 H                                       1.0929599
  3005   6 C     3037   1 H                                       1.0920821
  3005   6 C     3038   1 H                                       1.0912472
  3004   6 C     3039   1 H                                       1.0907445
  3004   6 C     3040   1 H                                       1.0938004
  3003   6 C     3041   1 H                                       1.0928624
  3003   6 C     3042   1 H                                       1.0910465
  3002   6 C     3043   1 H                                       1.0918483
  3002   6 C     3044   1 H                                       1.0936232
  3001   6 C     3045   1 H                                       1.0936784
  3001   6 C     3046   1 H                                       1.0924664
  3000   6 C     3047   1 H                                       1.0931901
  3000   6 C     3048   1 H                                       1.0941573
  2999   6 C     3049   1 H                                       1.0915418
  2999   6 C     3050   1 H                                       1.0916865
  2998   6 C     3051   1 H                                       1.0930857
  2998   6 C     3052   1 H                                       1.0940057
  2997   6 C     3053   1 H                                       1.0941240
  2997   6 C     3054   1 H                                       1.0929238
  2996   6 C     3055   1 H                                       1.0910110
  2996   6 C     3056   1 H                                       1.0929417
  2995   6 C     3057   1 H                                       1.0944350
  2995   6 C     3058   1 H                                       1.0926162
  2994   6 C     3059   1 H                                       1.0914647
  2994   6 C     3060   1 H                                       1.0926084
  2993   6 C     3061   1 H                                       1.0938821
  2993   6 C     3062   1 H                                       1.0928215
  2992   6 C     3063   1 H                                       1.0915207
  2992   6 C     3064   1 H                                       1.0928376
  2991   6 C     3065   1 H                                       1.0938692
  2991   6 C     3066   1 H                                       1.0926651
  2990   6 C     3067   1 H                                       1.0923382
  2990   6 C     3068   1 H                                       1.0915548
  2989   6 C     3069   1 H                                       1.0937919
  2989   6 C     3070   1 H                                       1.0927420
  2988   6 C     3071   1 H                                       1.0936166
  2988   6 C     3072   1 H                                       1.0925877
  2987   6 C     3073   1 H                                       1.0902561
  2987   6 C     3074   1 H                                       1.0931387
  2986   6 C     3075   1 H                                       1.0932959
  2986   6 C     3076   1 H                                       1.0927835
  2985   6 C     3077   1 H                                       1.0929497
  2985   6 C     3078   1 H                                       1.0934878
  2984   6 C     3079   1 H                                       1.0912173
  2984   6 C     3080   1 H                                       1.0901397
  2983   6 C     3081   1 H                                       1.0928708
  2983   6 C     3082   1 H                                       1.0935732
  2982   6 C     3083   1 H                                       1.0935535
  2982   6 C     3084   1 H                                       1.0925281
  2981   6 C     3085   1 H                                       1.0903963
  2981   6 C     3086   1 H                                       1.0930896
  2980   6 C     3087   1 H                                       1.0935475
  2980   6 C     3088   1 H                                       1.0924496
  2979   6 C     3089   1 H                                       1.0933093
  2979   6 C     3090   1 H                                       1.0937505
  2978   6 C     3091   1 H                                       1.0924263
  2978   6 C     3092   1 H                                       1.0918601
  2977   6 C     3093   1 H                                       1.0935290
  2977   6 C     3094   1 H                                       1.0932047
  2976   6 C     3095   1 H                                       1.0919966
  2976   6 C     3096   1 H                                       1.0932107
  2975   6 C     3097   1 H                                       1.0934783
  2975   6 C     3098   1 H                                       1.0930718
  2974   6 C     3099   1 H                                       1.0933181
  2974   6 C     3100   1 H                                       1.0931881
  2973   6 C     3101   1 H                                       1.0935679
  2973   6 C     3102   1 H                                       1.0924786
  2972   6 C     3103   1 H                                       1.0931124
  2972   6 C     3104   1 H                                       1.0917550
  2971   6 C     3105   1 H                                       1.0936859
  2971   6 C     3106   1 H                                       1.0925015
  2970   6 C     3107   1 H                                       1.0938608
  2970   6 C     3108   1 H                                       1.0920531
  2969   6 C     3109   1 H                                       1.0915941
  2969   6 C     3110   1 H                                       1.0937372
  2968   6 C     3111   1 H                                       1.0937173
  2968   6 C     3112   1 H                                       1.0918300
  2967   6 C     3113   1 H                                       1.0930633
  2967   6 C     3114   1 H                                       1.0937788
  2966   6 C     3115   1 H                                       1.0935066
  2966   6 C     3116   1 H                                       1.0931290
  2965   6 C     3117   1 H                                       1.0913245
  2965   6 C     3118   1 H                                       1.0934519
  2964   6 C     3119   1 H                                       1.0937532
  2964   6 C     3120   1 H                                       1.0924571
  2963   6 C     3121   1 H                                       1.0931409
  2963   6 C     3122   1 H                                       1.0937274
  2962   6 C     3123   1 H                                       1.0922331
  2962   6 C     3124   1 H                                       1.0913998
  2961   6 C     3125   1 H                                       1.0932573
  2961   6 C     3126   1 H                                       1.0913064
  2960   6 C     3127   1 H                                       1.0922227
  2960   6 C     3128   1 H                                       1.0928886
  2959   6 C     3129   1 H                                       1.0929553
  2959   6 C     3130   1 H                                       1.0931573
  2958   6 C     3131   1 H                                       1.0891418
  2958   6 C     3132   1 H                                       1.0928449
  2957   6 C     3133   1 H                                       1.0935688
  2957   6 C     3134   1 H                                       1.0932455
  2956   6 C     3135   1 H                                       1.0916098
  2956   6 C     3136   1 H                                       1.0933592
  2955   6 C     3137   1 H                                       1.0931364
  2955   6 C     3138   1 H                                       1.0914329
  2954   6 C     3139   1 H                                       1.0925693
  2954   6 C     3140   1 H                                       1.0933157
  2953   6 C     3141   1 H                                       1.0928997
  2953   6 C     3142   1 H                                       1.0926183
  2952   6 C     3143   1 H                                       1.0922967
  2952   6 C     3144   1 H                                       1.0931142
  2951   6 C     3145   1 H                                       1.0927220
  2951   6 C     3146   1 H                                       1.0904172
  2950   6 C     3147   1 H                                       1.0916198
  2950   6 C     3148   1 H                                       1.0934596
  2949   6 C     3149   1 H                                       1.0934076
  2949   6 C     3150   1 H                                       1.0935055
  2948   6 C     3151   1 H                                       1.0936347
  2948   6 C     3152   1 H                                       1.0907880
  2947   6 C     3153   1 H                                       1.0910703
  2947   6 C     3154   1 H                                       1.0929704
  2946   6 C     3155   1 H                                       1.0929989
  2946   6 C     3156   1 H                                       1.0933101
  2945   6 C     3157   1 H                                       1.0911912
  2945   6 C     3158   1 H                                       1.0930709
  2944   6 C     3159   1 H                                       1.0917497
  2944   6 C     3160   1 H                                       1.0920010
  2943   6 C     3161   1 H                                       1.0929664
  2943   6 C     3162   1 H                                       1.0938252
  2942   6 C     3163   1 H                                       1.0925933
  2942   6 C     3164   1 H                                       1.0918149
  2941   6 C     3165   1 H                                       1.0926507
  2941   6 C     3166   1 H                                       1.0933075
  2940   6 C     3167   1 H                                       1.0925232
  2940   6 C     3168   1 H                                       1.0935979
  2939   6 C     3169   1 H                                       1.0935114
  2939   6 C     3170   1 H                                       1.0930397
  2938   6 C     3171   1 H                                       1.0929251
  2938   6 C     3172   1 H                                       1.0925560
  2937   6 C     3173   1 H                                       1.0925723
  2937   6 C     3174   1 H                                       1.0919875
  2936   6 C     3175   1 H                                       1.0930683
  2936   6 C     3176   1 H                                       1.0934094
  2935   6 C     3177   1 H                                       1.0911401
  2935   6 C     3178   1 H                                       1.0918917
  2934   6 C     3179   1 H                                       1.0937433
  2934   6 C     3180   1 H                                       1.0934511
  2933   6 C     3181   1 H                                       1.0926572
  2933   6 C     3182   1 H                                       1.0928762
  2932   6 C     3183   1 H                                       1.0935167
  2932   6 C     3184   1 H                                       1.0914778
  2931   6 C     3185   1 H                                       1.0916534
  2931   6 C     3186   1 H                                       1.0929533
  2930   6 C     3187   1 H                                       1.0934302
  2930   6 C     3188   1 H                                       1.0925318
  2929   6 C     3189   1 H                                       1.0928360
  2929   6 C     3190   1 H                                       1.0936472
  2928   6 C     3191   1 H                                       1.0933773
  2928   6 C     3192   1 H                                       1.0916248
  2927   6 C     3193   1 H                                       1.0928682
  2927   6 C     3194   1 H                                       1.0937189
  2926   6 C     3195   1 H                                       1.0928976
  2926   6 C     3196   1 H                                       1.0917020
  2925   6 C     3197   1 H                                       1.0929572
  2925   6 C     3198   1 H                                       1.0935621
  2924   6 C     3199   1 H                                       1.0916392
  2924   6 C     3200   1 H                                       1.0915671
  2923   6 C     3201   1 H                                       1.0926160
  2923   6 C     3202   1 H                                       1.0936133
  2922   6 C     3203   1 H                                       1.0934557
  2922   6 C     3204   1 H                                       1.0934751
  2921   6 C     3205   1 H                                       1.0915495
  2921   6 C     3206   1 H                                       1.0924940
  2920   6 C     3207   1 H                                       1.0931471
  2920   6 C     3208   1 H                                       1.0931349
  2919   6 C     3209   1 H                                       1.0930380
  2919   6 C     3210   1 H                                       1.0925743
  2918   6 C     3211   1 H                                       1.0932285
  2918   6 C     3212   1 H                                       1.0926755
  2917   6 C     3213   1 H                                       1.0925793
  2917   6 C     3214   1 H                                       1.0926375
  2916   6 C     3215   1 H                                       1.0934492
  2916   6 C     3216   1 H                                       1.0927103
  2915   6 C     3217   1 H                                       1.0923715
  2915   6 C     3218   1 H                                       1.0926623
  2914   6 C     3219   1 H                                       1.0936264
  2914   6 C     3220   1 H                                       1.0927128
  2913   6 C     3221   1 H                                       1.0924714
  2913   6 C     3222   1 H                                       1.0928263
  2912   6 C     3223   1 H                                       1.0937303
  2912   6 C     3224   1 H                                       1.0925382
  2911   6 C     3225   1 H                                       1.0926173
  2911   6 C     3226   1 H                                       1.0929679
  2910   6 C     3227   1 H                                       1.0937708
  2910   6 C     3228   1 H                                       1.0924127
  2909   6 C     3229   1 H                                       1.0926657
  2909   6 C     3230   1 H                                       1.0932022
  2908   6 C     3231   1 H                                       1.0937831
  2908   6 C     3232   1 H                                       1.0923700
  2907   6 C     3233   1 H                                       1.0925950
  2907   6 C     3234   1 H                                       1.0935527
  2906   6 C     3235   1 H                                       1.0937834
  2906   6 C     3236   1 H                                       1.0923989
  2905   6 C     3237   1 H                                       1.0924300
  2905   6 C     3238   1 H                                       1.0937560
  2904   6 C     3239   1 H                                       1.0937424
  2904   6 C     3240   1 H                                       1.0925571
  2903   6 C     3241   1 H                                       1.0922780
  2903   6 C     3242   1 H                                       1.0937237
  2902   6 C     3243   1 H                                       1.0923972
  2902   6 C     3244   1 H                                       1.0928011
  2901   6 C     3245   1 H                                       1.0919491
  2901   6 C     3246   1 H                                       1.0934502
  2900   6 C     3247   1 H                                       1.0911667
  2900   6 C     3248   1 H                                       1.0931664
  2899   6 C     3249   1 H                                       1.0936094
  2899   6 C     3250   1 H                                       1.0922628
  2898   6 C     3251   1 H                                       1.0929998
  2898   6 C     3252   1 H                                       1.0933444
  2897   6 C     3253   1 H                                       1.0865485
  2897   6 C     3254   1 H                                       1.0882500
  2897   6 C     3255   1 H                                       1.0881307
  3016   6 C     3256   1 H                                       1.0874969
  3016   6 C     3257   1 H                                       1.0876834
  3016   6 C     3258   1 H                                       1.0881763

 * 2 distinct bonds (by element types)

   Z      Z             #   av. dist./Å        max./Å        min./Å
   1 H    6 C        2178     1.0926177     1.0948915     1.0864792
   6 C    6 C        1071     1.5271014     1.5345356     1.5207452


optimized geometry written to: xtbopt.xyz


           -------------------------------------------------
          | TOTAL ENERGY            -3427.614897317208 Eh   |
          | GRADIENT NORM               0.000784691510 Eh/α |
          | HOMO-LUMO GAP              11.296873161937 eV   |
           -------------------------------------------------

------------------------------------------------------------------------
 * finished run on 2024/06/20 at 14:37:07.894     
------------------------------------------------------------------------
 total:
 * wall-time:     2 d, 23 h, 18 min, 21.063 sec
 *  cpu-time:    16 d,  2 h, 51 min, 44.748 sec
 * ratio c/w:     5.425 speedup
 SCF:
 * wall-time:     0 d,  0 h,  6 min, 37.741 sec
 *  cpu-time:     0 d,  0 h, 35 min, 33.700 sec
 * ratio c/w:     5.365 speedup
 ANC optimizer:
 * wall-time:     2 d, 23 h, 11 min,  1.784 sec
 *  cpu-time:    16 d,  2 h, 15 min, 13.940 sec
 * ratio c/w:     5.426 speedup

