3795
 energy: -5103.672973474509 gnorm: 0.000954768356 xtb: 6.6.1 (8d0f1dd)
C          105.44090468895648      105.08017693935713      115.70148935094713
C          106.42897785468139      104.77394202378657      116.79893027939583
C          106.14520292721284      105.48974043709468      114.40338170321661
C          106.82098111415384      106.85431333668366      114.51022630029888
H          106.89532923392009      104.73904922471463      114.14993233841695
H          105.40267701663429      105.51217633472433      113.60450583062345
C          107.31949929243378      107.32156675537023      113.14007467930676
H          106.11826746487516      107.58781871818552      114.91058374912579
H          107.66613131682971      106.79451017438024      115.19997653125316
C          108.16147498887781      108.57220019651319      113.29209828774638
H          107.93521303682529      106.53619331337343      112.70279496003219
H          106.46929082297247      107.52626587044466      112.49058405138194
N          109.42923823703758      108.29989609761338      113.60547432001107
O          107.05670455661611      103.63262934826633      116.61788021706285
O          106.63063069747014      105.49564176435685      117.75571474215485
H          107.61087320060605      103.36681163298279      117.40279196451068
H          104.76965182438616      105.87332368795441      116.03272740077826
H          104.85517497651811      104.17820641050962      115.52048379615033
C          110.46776735319098      109.28309556014798      113.81798762800211
H          109.70071748057664      107.32165533988066      113.64345601386323
C          111.75292003167084      108.84878128608266      113.12480641280352
H          110.10678677802525      110.23789459512999      113.42798932587355
H          110.66267871346615      109.39449609449240      114.89126747946278
C          112.91922505627301      109.77215965043867      113.46018467358573
H          111.99789108757271      107.84128067740751      113.46866410554010
H          111.58234682713079      108.81392433106549      112.04800286810810
C          114.26248823837233      109.19314118114865      113.01531001171168
H          112.76283308394575      110.74781302073211      112.99995407653196
H          112.94637786099399      109.91412241213598      114.54245593572398
C          114.33116502762158      108.84195598310802      111.53074593896780
H          115.04235587953762      109.92324799134322      113.23763857655099
H          114.46191916411924      108.28895131977261      113.59445408480120
C          114.04525165721887      110.04840791434580      110.63944282584582
H          115.33092495797256      108.47464442228816      111.29312960045949
H          113.62503234711509      108.04629782394704      111.29815850350148
N          114.49109314971200      109.81612163526420      109.28543657114463
H          112.97675117237905      110.25893001217618      110.59443480483559
H          114.57069056791850      110.92605852439253      111.03290378738596
C          113.68758721789504      109.78451103703829      108.21961828940198
H          115.46812481817324      109.56342047875573      109.18430252921003
O          107.71655353211341      109.71066900425862      113.16796112591508
C          114.41219358757483      109.58403821632979      106.89973526612800
C          114.80771784531400      110.94222843667528      106.29621173442196
H          115.30345426466997      108.97485160200927      107.05480855851184
H          113.73340089419189      109.05921167527306      106.22472820241077
C          116.09691926303465      111.48706353172578      106.90593124391636
H          114.93621398684725      110.83510462522582      105.21586719631269
H          114.00070973123019      111.65932612878383      106.46152761611644
C          116.37106921312926      112.94293852021374      106.51415981891856
H          116.03433238921835      111.43379780394011      107.99378471215647
H          116.93542339971499      110.86002077385173      106.59451731416539
C          116.42294334650452      113.12969904811438      105.00957794177047
H          115.60038832659650      113.59173223014015      106.93025163224793
H          117.33955415933684      113.24254297115999      106.91794177774084
N          115.30044576056666      113.62005070999638      104.47835551660309
C          115.12814149226300      113.87787296843824      103.06365489359092
H          114.47534100071306      113.72056987063252      105.05688720418983
O          112.47193810406226      109.95180377151600      108.27522550337018
C          114.05403250281300      114.93802061404224      102.85579361824949
H          116.09301733721408      114.20273099856382      102.66525885607851
H          114.85240799134267      112.94854458506855      102.55210988571997
C          113.85379906097353      115.28912615700672      101.38069115490570
H          113.11924253060978      114.55117367787493      103.26136173463398
H          114.32068817314558      115.83236550757799      103.42137037273484
C          112.43892798259300      115.80340473387517      101.11299011243730
H          114.58134327924947      116.04393006578387      101.08346798833882
H          114.02972518188439      114.40264787848677      100.77070453371758
C          112.31877808202948      116.46986716469144       99.74309208861229
H          111.74288506737601      114.96459656476277      101.16929081583442
H          112.16344686724413      116.52321743488174      101.88478209986303
C          110.86438881979754      116.61018193531986       99.30376438394207
N          110.75646739749787      117.55817455515377       98.21360523519174
H          110.46428107429071      115.63560998616148       98.99735717383133
H          110.23498742020456      116.97421377139372      100.12284037070016
C          109.59938675195012      118.11041734017815       97.83424872709296
H          111.59385648502031      117.75924841411444       97.67542615923199
O          117.42609743294275      112.87745107154308      104.34075422766432
C          109.74904549186431      119.17631020472560       96.76421514417315
C          109.66318290178982      120.54568603884996       97.44521304296246
H          110.70425737538324      119.06606308628611       96.25271140232468
H          108.93647405625289      119.07715667162076       96.04315148682394
C          109.85245361359718      121.69322322868287       96.45739644687950
H          108.68480700834894      120.62805726398844       97.92177493360865
H          110.42540633418524      120.60453464841632       98.22494005974174
C          109.38481216114656      123.03405616497967       97.03411504171065
H          110.90291558451240      121.76250940899237       96.16867416765547
H          109.27133758635532      121.49058489302067       95.55543268364669
C          110.22503646193653      123.47813085605151       98.21442492858763
H          109.47824390480160      123.79846649071686       96.26141073588603
H          108.34079702203199      122.94704164911489       97.33417955772045
N          109.71499775666101      123.20874406849198       99.41787734751132
C          110.33873823977119      123.62041461685885      100.65885739993061
H          108.86595698838570      122.65409121504199       99.50075597589584
H          112.77814647618165      117.45993148159822       99.77625920104065
H          112.85995900011099      115.88387891394640       98.99961915856416
O          108.52029994789585      117.83610861247364       98.35135635195203
O          111.29574023070286      124.06832965935970       98.06074063165769
C          109.28564629409051      124.08254510635959      101.66364542186481
H          110.91560997814005      122.79005355119712      101.08454191720540
H          111.03490347894017      124.42676068785892      100.41840381960728
C          109.87017131654596      124.30758961307315      103.05748032490929
H          108.83129735228142      125.00772464992991      101.30490476756060
H          108.50207366697602      123.32383768964196      101.71337078949239
C          110.85000910633900      125.47900525759302      103.10040437904659
H          109.05044894615318      124.51261086787891      103.74833861761128
H          110.37343695933400      123.39863283201497      103.38844732833599
C          111.38577144480658      125.74610396544388      104.50854801904717
H          111.69528262597855      125.27808502619624      102.44172705310015
H          110.35260733776607      126.37436785122573      102.72177755941908
C          112.60601777756722      124.89788453086858      104.85176137091574
H          111.67649945710245      126.79372456890418      104.59657169287156
H          110.60845870342997      125.54954053082959      105.24545624624714
N          113.75190597348418      125.33609288421420      104.07878858144724
H          112.82617957788263      124.99904110720070      105.92045499442322
H          112.43559527972667      123.84310742873289      104.62524881378738
C          114.71559698404342      124.53681780843709      103.62538504632838
H          113.78874079852929      126.32385445382081      103.84583536323807
C          115.81981044331178      125.24928199936656      102.86948768045356
C          117.04479410495944      125.47174977073531      103.76322277922768
H          116.11537613418214      124.64001676230400      102.01422693180355
H          115.45432263661796      126.20178250121141      102.49021685784392
C          116.78615506986976      126.42153894232919      104.93196931908943
H          117.36383685233707      124.50500213141613      104.16016247195741
H          117.85731213618320      125.86272745361772      103.14775182349305
C          116.58164065982214      127.87804593188149      104.50023420980934
H          115.90841886968163      126.08374707835995      105.48543242279314
H          117.64457205916794      126.38898645753197      105.60588419652247
C          116.36052467573518      128.73146645321202      105.73015798874420
H          117.48187538612792      128.22402519091779      103.98900454110671
H          115.73283129523566      127.97146627492199      103.82679725952262
N          115.09111591378375      129.07008485386004      105.97503094591787
C          114.72139462990056      129.87947375392983      107.12411965520988
H          114.37235018770373      128.78003646799388      105.32775692804938
O          114.72152776033326      123.31882544108319      103.81482990800419
C          113.34770495759481      130.51385238668811      106.95067526439989
H          114.74662994877957      129.26373091876309      108.02920817247826
H          115.48519567611967      130.65605448360861      107.23603227699904
C          113.07104545803365      131.57982911979116      108.01456766918483
H          113.30893551950433      130.98699719930966      105.96834915015832
H          112.58453872657026      129.73621049803054      106.99369806525091
C          112.73514910058572      131.01808974203823      109.40141948338619
H          113.95246287487987      132.21768560056935      108.09428928931418
H          112.24988093448198      132.21031547817091      107.67503221103109
C          111.24779492779058      130.71443761383480      109.60738466894381
H          113.31459100795401      130.11266925294464      109.58379484535313
H          113.03748635467363      131.74557740100855      110.15605005132207
C          110.42037103445220      131.99077802473155      109.72744254979241
H          110.86861111122521      130.11011203665024      108.78257830402787
H          111.12952364924527      130.14555585588417      110.53148873501027
N          109.06083170527367      131.71435018089528      110.15116223585305
H          110.87562625847134      132.66178198522721      110.46263077134059
H          110.39101965616332      132.53031454715926      108.77345448647583
O          117.27950072623949      129.06796262529141      106.47612455796445
C          108.26269311407519      132.64492659473180      110.66384783402715
H          108.70067619384500      130.76588687787779      110.05331424882669
C          106.89327753807528      132.16079593466085      111.07981777783809
C          106.93156192297454      131.69163072956147      112.53778451905484
H          106.18551207258193      132.98468088267381      110.97947552925157
H          106.58487962439469      131.33426589576422      110.44298560115982
C          105.55523995139444      131.22767381757711      113.00309781461294
H          107.65251317633565      130.87913904873008      112.63176969224794
H          107.28083966212344      132.51214341630904      113.16723551300163
C          105.54988428259811      130.86952807332753      114.48372813335114
H          104.82888093010251      132.02207702214835      112.82448814930198
H          105.25262771145709      130.35783705740218      112.41974979201545
C          104.17052818670898      130.58061161069861      115.04708633102946
H          106.19928076524323      130.01627189411769      114.67873119995677
H          105.94480477992403      131.71466459791051      115.05452529780776
N          104.20243561322368      130.07768979869414      116.28160743937030
O          108.60368237396895      133.82958613661899      110.79245242609872
C          103.03663949230503      129.89037655221452      117.12256920439242
H          105.10461772239091      129.92323855932082      116.72584736248010
C          103.28639249417446      128.82374854632226      118.18958754580854
H          102.79968601134182      130.84310686979225      117.61436247539189
H          102.19133286707634      129.62997739064349      116.48000280528130
C          102.37135249915228      129.03373779150604      119.39815693565750
H          103.13265380476311      127.82823319359464      117.76984712641766
H          104.32848001003111      128.89647710423864      118.50234296820337
C          102.37736543737408      127.87565983131937      120.39793178420747
H          102.66828272548531      129.95207213454046      119.90945545210688
H          101.34732156597720      129.17292535919168      119.04355757624434
C          103.74469069207025      127.61566349479901      121.02829559354298
H          101.65960581160137      128.10188618208679      121.18911414439316
H          102.04376429345163      126.96886607420581      119.89621049673893
C          103.67859000782157      126.56245622164516      122.12856309082704
H          104.44322707918788      127.27519412725970      120.26406313215783
H          104.13169794315078      128.53719468014717      121.46699153129056
N          103.37394334546276      125.25112994195922      121.58850545770377
H          104.63555227151068      126.50686334022028      122.65970329812583
H          102.91788641679506      126.84403156621562      122.86794671542849
C          103.62733981604558      124.11002192173309      122.22999967003227
H          103.00953152435621      125.20203816529374      120.64170903951364
O          103.11745877130788      130.80941518378017      114.44245610229437
C          103.21468271299014      122.85927720973849      121.47881308680218
C          101.70793910996433      122.60441498708829      121.61839768113258
H          103.46775965430766      122.98070486197823      120.42638953615467
H          103.76987204364269      122.01522922358903      121.89187633284402
C          101.35259295318392      121.16971376127458      121.23219641865505
H          101.40825576227093      122.77629093669978      122.65524466601757
H          101.17091346698599      123.30709417713915      120.97922139637068
C           99.84303854160829      120.90352898400874      121.25784311829716
H          101.73685295842077      120.95823285606002      120.23266124866639
H          101.83501013010417      120.49219811328229      121.93801061870771
C           99.58069398840084      119.41317869065485      121.11958496056114
H           99.44374233442990      121.22668934595816      122.22110266996333
H           99.34658655336074      121.45280031942298      120.45895682094506
N           99.18285534384442      119.00883952290660      119.90949764753655
C           98.88532965282695      117.61950872948552      119.61657661553704
H           98.99229097515332      119.68687059296062      119.18453482906281
O          104.13030406028349      124.06228149591868      123.35312159112790
C           99.19547131312008      117.25053745533333      118.16942588265684
H           99.48795042556883      117.02041821911037      120.30346959946093
H           97.82743734286980      117.41981058299257      119.82572517122600
C           98.22742991173860      117.90826382866035      117.18685965506150
H          100.21844358701013      117.54667074117374      117.93212209601835
H           99.13127011421156      116.16556202394186      118.07732095969041
C           98.52990876710156      117.55042143854298      115.73135822875987
H           97.20573231314420      117.60949104728512      117.42930101528728
H           98.29310821422683      118.99153848623311      117.29593321791114
C           98.03579011341060      116.16451503279298      115.32374840850829
H           98.05910933070315      118.28917660193873      115.08056961839918
H           99.60753357921868      117.60310378659052      115.57243336252192
C           98.34461060773559      115.88396273602518      113.85659877720605
H           98.52229944107371      115.40031117712762      115.92951334730321
H           96.96070263788810      116.08547719282988      115.49030816504256
N           98.25652497326705      114.46518696234791      113.56997073065571
H           97.65312707756217      116.40806052913014      113.18951050917350
H           99.35806363934257      116.23458642542107      113.61752524285274
C           98.05097555402082      113.99021940729190      112.34264422736697
H           98.37336090057165      113.84226845485054      114.36488595536680
O           99.74898391911924      118.63567600988500      122.05696984175815
C           97.96627229163646      112.47789867079527      112.23380716589774
C           98.66686751692630      111.90544134099657      110.99628389892329
H           98.35183162646726      112.01496355230475      113.14224668233555
H           96.90114752708436      112.24092347845399      112.16578586603995
C          100.19082727708430      111.84439634809743      111.11586704092720
H           98.30455037022708      110.88633330825844      110.84739925953153
H           98.37767523744407      112.49088785473816      110.12235780698201
C          100.90373539398672      113.20183402096242      111.04291522252609
H          100.44926065831514      111.36268569259818      112.06078823175785
H          100.57961169277439      111.21348395798771      110.31261424585847
C          100.89298257207578      113.74385248547878      109.62467406228629
H          100.43524057945430      113.91275795043634      111.72108195452758
H          101.94544580266276      113.06321643319320      111.33548549150501
N           99.82805124142392      114.47804293977963      109.30694828358551
O           97.91110432189602      114.72941049149765      111.36402310114495
C           99.61146199387777      115.04817692065627      107.99507543309501
H           99.09566851803058      114.63515531554513      109.99781802387690
C           98.83826854728048      116.35766244678712      108.10383050289219
H          100.58866953360278      115.20172424054495      107.53120482305309
H           99.04766877948248      114.33779690323620      107.37563803552344
C           98.37250329429152      116.86551295373239      106.73901825090434
H           97.96242815973096      116.17835149057683      108.73187132068310
H           99.45669688115973      117.10411343799508      108.60251723288265
C           99.48977090475783      117.40313940235275      105.84290019489400
H           97.86287266032565      116.05051308494650      106.21978471791847
H           97.64160883229383      117.66278381623603      106.88988555897677
C          100.08549981111983      118.70375362556251      106.37826018698372
H          100.27204900988328      116.65256976527844      105.72690032706961
H           99.06874543071429      117.59228543835404      104.85248709460382
C          100.89252797399060      119.47389905047650      105.33398273326448
H           99.27318356699817      119.35599987620208      106.70266752333232
H          100.72137370583501      118.50027723663129      107.24045191086920
N          102.17070029824841      118.86238931084335      105.05675895376336
H          100.33772425347406      119.52297260802035      104.39363836240119
H          101.05021527671640      120.49455015764863      105.70279087951452
C          102.63259290219604      118.59057630505737      103.83492031626498
H          102.82063854094451      118.78116936246229      105.83896344567461
O          101.80139464388597      113.49887355690413      108.82918181672858
C          104.00860598143719      117.94941324823456      103.81284266096624
C          104.16514375023782      116.74897883944016      104.74821031463091
H          104.22664017101032      117.65746953773611      102.78562489047412
H          104.73073227689059      118.71336106837821      104.10758969376049
C          103.18301534103801      115.62336727126552      104.43590714249069
H          105.18447517878451      116.37494290080278      104.63928206416585
H          104.04124041215009      117.06963483854975      105.78239997040244
C          103.31854413325851      114.45892488463642      105.42138653833636
H          102.16054443847794      116.00744511475071      104.46754178352757
H          103.35897038876588      115.25176721794379      103.42444089606970
C          102.41685248603001      113.30014865124551      105.03948421488410
H          104.34628833025972      114.08849876806661      105.40034366234717
H          103.09354524194120      114.78277093082085      106.43693182722761
N          101.71532523243573      112.76557341340754      106.03956870976215
C          100.79816872129122      111.66172532111634      105.85508042358089
H          101.81127454456947      113.11246048194702      106.99295681783533
O          102.02457149035357      118.86153424867126      102.79673534552703
C          100.81613032115361      110.70070039469644      107.03956799867449
H           99.78132782711121      112.05432481716798      105.72506817991672
H          101.07833226179922      111.14828127562411      104.93089442973755
C          102.16643145078773      110.01298210024220      107.23494275921314
H          100.55724563710766      111.25457441892321      107.94331416744890
H          100.04450352786340      109.94676624909037      106.87410907919032
C          102.08310249067387      108.89219276680475      108.26878704708038
H          102.49374005376689      109.58786821340490      106.28415504484670
H          102.90619910500979      110.74955197200842      107.55406198387170
C          103.41454347899557      108.16333605004698      108.44295519152527
H          101.76791119385369      109.30401490988112      109.23008103090044
H          101.32286957512316      108.17346859763938      107.95451372523881
C          103.25643512777009      106.96161630447111      109.36833924319174
H          103.77146382486573      107.81399479141086      107.47206368681574
H          104.16186850831011      108.84977032908367      108.84414940662077
N          104.49727468576918      106.22997422787810      109.51917661352164
H          102.92938113990741      107.27510573204360      110.36352990886255
H          102.49045920397793      106.28959761500431      108.96061453953831
C          104.83951666128594      105.58755561643454      110.63658193007419
H          105.13131296854084      106.21705267008548      108.72258798689036
O          102.35117124993158      112.88484488752283      103.88153772006470
C          106.12540933485890      104.79023932431534      110.55904589809114
C          105.83864256508529      103.30596977588209      110.79966254447052
H          106.59147048425754      104.92702037346710      109.58417547735419
H          106.79881686318357      105.15062481834765      111.33668347750876
C          107.10847530792216      102.45509763296637      110.83672104836933
H          105.29681442507521      103.19944743721203      111.74168641233487
H          105.19166327856051      102.93867737029166      109.99986869907718
C          107.97300420597307      102.72192090512959      112.07398696219384
H          106.81481455353789      101.40267289231615      110.83803469241219
H          107.69964431512894      102.64099359804975      109.93867067660138
C          109.00978112246788      101.63023102770023      112.24027384589043
H          108.48016161982834      103.68329193882201      111.98930582515653
H          107.34327694408016      102.72220143356810      112.96532422663742
N          110.02285041416350      101.67998530005501      111.37269783608203
O          104.16196411641185      105.62424761042109      111.66531804429637
C          111.13703710817742      100.75702059581801      111.38918920251933
H          110.08067418743587      102.46420649583118      110.73187753771849
C          112.40680022583356      101.43022904448857      111.91314321407494
H          110.85949590238948       99.92192774984466      112.03715806523991
H          111.30021579544707      100.37865195688808      110.37636892714401
C          113.55162402482269      100.43960218486420      112.11357058888046
H          112.70898468402535      102.20637294068921      111.20952296154090
H          112.17449925664380      101.91082895457581      112.86610653122138
C          114.75706991053916      101.11206069004960      112.77183550440117
H          113.20640922868671       99.61833198822264      112.74618407482325
H          113.83809908359045      100.01474627636132      111.15106376448405
C          115.82855418409807      100.12636854390439      113.23580431347099
H          115.20763705932005      101.81656985512099      112.06992271685026
H          114.40999215103221      101.67921044487673      113.63878725883424
C          116.58864832723557       99.46872921813988      112.07595662346708
H          116.54661620178466      100.65962878736148      113.86600902123736
H          115.36756395731166       99.34723166817157      113.84973978709451
N          117.65690417789303       98.56932622895748      112.48497216688456
H          115.89873658597614       98.88959889456908      111.45820831121333
H          117.03732136465800      100.24390171495921      111.44861675213103
H          118.32015523092346       99.06737571003022      113.06882820448602
H          117.27407780649187       97.81317418200437      113.04181343460607
O          108.89743357669303      100.75320589864813      113.09731188843398
C          132.97887431531646      122.68944567408860      114.86689564304605
C          133.28023578887104      123.15615679510520      113.47579294864670
C          132.20473145622870      123.71537293763444      115.69275104727241
C          132.96945307278702      125.02548203294839      115.87519559014464
H          131.24865508675174      123.90834775481093      115.20576967195061
H          131.99381687463625      123.27487665187624      116.66821500167957
C          132.34669429456360      125.89167398349335      116.97481937441161
H          134.00454261288425      124.81182790149819      116.14943773723064
H          132.98074675249140      125.58254167340283      114.93730966335312
C          130.84357923879128      125.99804749003904      116.81713173558126
H          132.54759034955893      125.45675804364652      117.95552463610399
H          132.78188121471734      126.89139270182935      116.93867698193199
N          130.42946662387169      126.53906436173096      115.67255539959280
O          134.50993425896152      122.81785690453461      113.09672894135799
O          132.52630932108704      123.75243125721609      112.73869710272459
H          134.71634141259381      123.09610696157134      112.18680361813101
H          133.91858111691215      122.42036349174971      115.34845591089687
H          132.35628772991848      121.79258287668641      114.78791451706589
C          129.02314757442542      126.68978803710631      115.35565901080390
H          131.11591262161673      126.94501935994036      115.04391496782020
C          128.84149824218463      127.08597902452463      113.89544791684989
H          128.52372926862969      125.74117650917059      115.57675358670738
H          128.58943542121784      127.45199170406109      116.01518150838282
C          127.44009208583367      127.61413066875561      113.58145007244994
H          129.56723280026810      127.86616175948379      113.66228795694826
H          129.06433938836426      126.23021608319473      113.25675410354485
C          126.41594887324733      126.49921952456124      113.38024577447806
H          127.10962814010566      128.27148983424516      114.38851076858883
H          127.49961977530255      128.21064709333103      112.66999072948069
C          124.98477605987679      127.01464186027940      113.22814846437716
H          126.67976064022059      125.93295680593275      112.48511001917498
H          126.44942291214281      125.81240110194150      114.22669358151037
C          124.85988749537076      128.09444979031952      112.15131363176907
H          124.34253854370422      126.17455657485496      112.95443001439800
H          124.62768108941252      127.41843802975303      114.17683621034919
N          123.47792793599869      128.30225152162521      111.78368760462709
H          125.28004763725623      129.03885668921012      112.50746809960047
H          125.38812174660865      127.78778451617778      111.24525896428713