3536
 energy: -3716.265302753397 gnorm: 0.000663409572 xtb: 6.6.1 (8d0f1dd)
C           48.52242711880044       61.56211375548595       60.60812043483185
C           49.30975347367652       62.62534120586825       61.36857465700776
C           49.15323070859031       62.41459415480290       62.87268168626044
C           48.84375657736480       64.03663443705051       60.99447941989204
C           49.32995727571414       64.52952431727002       59.62678967872668
C           50.78424884786004       64.98733863082607       59.70591228047478
C           48.43942175461508       65.67740547872060       59.13132049674116
C           47.12484692462971       65.20268252855882       58.49137042404787
C           47.36449697529945       64.84260306738277       57.02754647119587
C           46.05340212861321       66.28924062130847       58.63932557793693
C           44.65693560768007       65.92882408748636       58.11518352784953
C           43.77249270079376       67.17554238374147       58.17073066523712
C           44.02084806372693       64.76574173815297       58.90125109875366
C           43.57530386325576       63.59337465801659       58.01923465345523
C           42.36621717751806       63.98748317782731       57.17076584060731
C           43.21025307930800       62.36036115282014       58.85794040698399
C           44.37857049356453       61.61369875996790       59.51370867055816
C           45.31659227604838       61.02485478251993       58.46010088233835
C           43.86907384900090       60.47300332542584       60.40921029349028
C           42.97851626387286       60.88401975193484       61.58805144314091
C           43.71134720489831       61.84890792743851       62.51718057152073
C           42.51045864147310       59.63415698764199       62.34819812650474
C           41.28418494630960       59.87611010004633       63.23812429601966
C           41.10042590742867       58.71697438326084       64.21629319892061
C           40.00049149042009       60.07043522682277       62.41293897644910
C           39.06767863320438       61.14683948838612       62.98771879799461
C           37.65171236926496       60.95544606045816       62.44683436655732
C           39.60754604925071       62.53895346755102       62.63657815442101
C           39.02333238722238       63.71561832848276       63.42864784113164
C           39.44684754677381       65.02509367526918       62.76283608829725
C           39.37390903939347       63.68698063516420       64.92676130652048
C           40.86555781721069       63.78521632433063       65.30176480087167
C           41.15580618303840       62.85315374650069       66.47893747999585
C           41.25781512012762       65.22813103547021       65.65068669477201
C           42.76707484917116       65.51608680105366       65.71086077067029
C           42.98012415930675       66.87658055421005       66.37482902276450
C           43.39357805611151       65.48246350727098       64.31158035190197
C           44.92811854358034       65.49069944664619       64.28290392755626
C           45.40476591552072       65.65103807080183       62.83888672150353
C           45.53550389854392       64.22558898990974       64.91996265898106
C           46.44937294522720       64.51741081422752       66.11674466656363
C           47.73718580952879       65.19387802810401       65.65147272966801
C           46.79778045027461       63.23025956936085       66.87814531336656
C           45.68622076037160       62.71409135205947       67.80029363642366
C           45.65521895711098       63.52152825785863       69.09818324262433
C           45.87842089460784       61.22691569245995       68.13128302972724
C           45.61740026473130       60.26297250924461       66.96797490935060
C           44.15225332938817       60.29151623493323       66.53894637699761
C           46.03274920045628       58.83524956071689       67.34910342773955
C           46.30353515993434       57.92539243394535       66.13992207273157
C           46.28336883798001       56.46638690203324       66.59387818847586
C           47.64127654322306       58.27643760606750       65.45798504449178
C           47.60157852347122       58.53501858834370       63.94246047076224
C           46.73589011232317       59.74399505225283       63.59548387879204
C           47.13071986838050       57.34272603635279       63.10556923353514
C           47.99827404774108       56.08049499368141       63.15339115704472
C           49.45090162615541       56.36337436541647       62.77836242965602
C           47.39665135340070       55.04037465105391       62.19706272193319
C           47.71038277044673       53.58562651298477       62.55673481264993
C           47.36538950739724       52.68664024135355       61.37148592906897
C           46.93460677926173       53.13421900345960       63.80456915081707
C           47.75531364250444       52.28761720483224       64.78829965013976
C           46.80041560013579       51.53888819873924       65.71416809429694
C           48.70359631554435       53.19410144966140       65.58228831603344
C           49.71220732811530       52.50746686251937       66.51473162950076
C           50.37095242311942       53.57523059818562       67.38807574811980
C           50.75527285128485       51.72561849016445       65.70646483597167
C           51.93065612382018       51.12719259880710       66.49528807533183
C           52.89372770052293       50.46901463441983       65.50965456702616
C           51.45946296308330       50.11732632348561       67.54763920899609
C           52.50451341459911       49.67435412694823       68.58555156722288
C           51.89359151814125       48.56205520237284       69.43863203994427
C           52.94993614686784       50.86287166312764       69.44656434954898
C           53.90475928169450       50.55967423153042       70.61033398410503
C           54.08709401432092       51.84116874554555       71.42601331222053
C           55.26850107621992       50.02047632553820       70.13771134073232
C           55.73137112901375       48.75575878713499       70.87189392777776
C           55.99651435447064       49.04005195472228       72.35043036036365
C           57.00518279519434       48.17910672150062       70.23658522929102
C           56.80919592143443       47.46986981266548       68.89100596076072
C           56.15683314560268       46.10206382228105       69.08574692359707
C           58.15776184540780       47.29966181232125       68.17444035590695
C           58.66818385493808       48.58053477971745       67.50001123327272
C           57.94141228594358       48.77465514491591       66.16894571811466
C           60.18449439013096       48.55108075558029       67.24314180729067
C           61.12822179884130       48.99517134734447       68.37757807258865
C           61.24704886467472       47.96401162763246       69.50092647207839
C           60.78421620872331       50.35888331485666       68.98870605564889
C           60.75765341234532       51.51270041402073       67.99090249510375
C           60.41549369359772       52.83104417625452       68.67408100232781
H           47.46221215880174       61.64134539142551       60.84086829719599
H           48.64546675753176       61.67468221020641       59.53454053967420
H           48.86345776417685       60.56614110427019       60.88279597702373
H           60.38314777952164       53.64226902594383       67.95130161284375
H           59.44367624834365       52.76798054723673       69.15947340157138
H           61.15780805239631       53.07521913065855       69.43192851278896
H           59.81872734706497       50.29957719897705       69.49605598793886
H           61.53016416074792       50.58060167894809       69.75774749152248
H           60.46964762271221       47.53857161922674       66.94439084979132
H           60.39089691083428       49.19711684797640       66.38654128845225
H           58.43080781041202       49.43627923590938       68.13556293899299
H           58.22129472287594       49.71859053458390       65.70880949669571
H           58.19399865871646       47.96750385868955       65.48434385830660
H           56.86347596067248       48.77382096648046       66.30949754045672
H           58.88394136367292       46.93536864489723       68.89943271458337
H           58.05789796554479       46.52703973058902       67.40728715110623
H           57.71921507756948       48.99670882207759       70.11606453816400
H           57.45152867647565       47.46243476575661       70.93197046366794
H           62.12194201316601       49.08386415975208       67.91685814395636
H           60.34799489154282       47.94746781701837       70.11169129523597
H           61.41839498353507       46.96797788764299       69.09806626029059
H           62.08474851156618       48.21400453782696       70.15023290745229
H           56.14868376164222       48.07277639510126       68.26149710661362
H           56.80840080301689       45.44927207707331       69.66429455941793
H           55.20820459861178       46.18848332525982       69.60992977738800
H           55.96786302586010       45.63091724583014       68.12348539696782
H           54.93518267479727       48.00604290731748       70.80811098249036
H           56.78955470957358       49.77821934813947       72.45757974554263
H           55.10518114649631       49.41579466123146       72.84574575725527
H           56.30662657336336       48.13168254091224       72.86393853384014
H           55.21872963047802       49.80277882333222       69.07151838499503
H           56.02904609906668       50.79409546660227       70.26704547366106
H           53.43259072653711       49.81609799944000       71.25907802045749
H           53.13354243317310       52.18835291594529       71.82024362290433
H           54.76191490424359       51.67877102088242       72.26279014805660
H           54.50062379891399       52.62803488256888       70.79757022721122
H           53.43693307432734       51.60024780099701       68.80578121494612
H           52.05263369425813       51.32943515495376       69.86413700762793
H           53.37145296985796       49.25777520175376       68.06363129339762
H           51.08237951136921       48.95190486540413       70.05097748561910
H           51.49222854008954       47.77388015607001       68.80384073579735
H           52.63462950112422       48.11232045675522       70.09397382856838
H           50.61437399809857       50.53537877712391       68.09691836172692
H           51.10194910945543       49.22742443932836       67.02380634439257
H           52.46078232998926       51.94415228521018       66.98880246608090
H           53.75397536443028       50.04842802324394       66.02374631966165
H           52.39564248284892       49.66736134657349       64.97006511626333
H           53.25495077624463       51.19544321355851       64.78481368075805
H           50.25335169406953       50.91756249963109       65.17228970641814
H           51.17351999929947       52.40280496434688       64.95650311316277
H           49.16897516612691       51.81958854324281       67.16925611146844
H           51.01558662391037       54.21050451348615       66.78557433064667
H           49.61869624554141       54.20570221931873       67.85722155415891
H           50.96405870000191       53.12422777186726       68.17918429115477
H           49.26614059584441       53.81671790213680       64.88335179822460
H           48.08550083105276       53.86491559758046       66.18643575107097
H           48.33486450024041       51.55516067800362       64.21784563547151
H           46.20575588555781       52.24424127348185       66.29246700115836
H           46.11956217950023       50.91820435889414       65.13550280458705
H           47.33986215340456       50.89384201542280       66.40208112707796
H           46.54802412110257       54.00178383740512       64.34325450849883
H           46.06699323837533       52.55551486908997       63.47990166993137
H           48.78370085836556       53.49325415133707       62.74973345572545
H           46.32652054685568       52.82718444160474       61.07810374347282
H           47.99555695943575       52.91908216334788       60.51574914474447
H           47.50761991465949       51.64164099010275       61.63337251521715
H           46.31021930101836       55.15211900918386       62.17135232966312
H           47.76525762552537       55.24421981467286       61.18886930572676
H           47.98221584138429       55.68098612165529       64.16972729567198
H           49.50015057665311       56.90624488228879       61.83732922740852
H           49.94973248171479       56.95067678628276       63.54528293175595
H           50.00086001195738       55.43183762278334       62.66347966580339
H           46.11591932841415       57.07747428201381       63.41096836134788
H           47.07608134144399       57.67134530058874       62.06310348889337
H           48.62751796642065       58.77813508100473       63.64333603651931
H           46.79549501178342       59.95027165865601       62.52939319543994
H           45.69446588040041       59.56430233594032       63.84912963302573
H           47.07574860376358       60.62787574347469       64.12892618271954
H           48.05094936930355       59.17675892376946       65.92246082220929
H           48.35644001660393       57.47471711665404       65.65112195326698
H           45.48829332216009       58.05508038529514       65.42343871637709
H           47.06893195510457       56.28357006561969       67.32512259920924
H           45.32754898359500       56.21781136319924       67.05282044149743
H           46.43260315380082       55.80047879173252       65.74874171325341
H           46.93466843184387       58.86596046461755       67.96595279990149
H           45.24129788579339       58.39555441026477       67.96226251745784
H           46.22724147339969       60.57539105119366       66.11960440580029
H           43.49653104984885       60.15354617729970       67.39735349114912
H           43.89952912352167       61.23302447420989       66.05969845684854
H           43.94643046921315       59.49751107093084       65.82564237699080
H           46.90414407959508       61.08861517729263       68.48267428693723
H           45.21313228894915       60.96141542269525       68.95796487602101
H           44.71947386473370       62.84122705477210       67.30562613712389
H           46.57640354615466       63.37230499628210       69.65891403145497
H           45.54845427855214       64.58474330038999       68.89510660269350
H           44.82106056930892       63.21294133161678       69.72574927765632
H           47.05771856387695       62.46593730734271       66.14466367107794
H           47.68733482238423       63.40585909704052       67.48839138532621
H           45.92525855695111       65.19868505559702       66.79695957174631
H           48.37881063774287       65.41418722127334       66.50090851288593
H           48.28058670703535       64.54106814301174       64.97237540192049
H           47.52890222382642       66.12715785057952       65.13407965425822
H           44.73404997275833       63.55707065718295       65.23457872784564
H           46.11616948102628       63.68420038930741       64.17020990658958
H           45.26936181127262       66.36615699208826       64.84309988225937
H           45.02204966735752       66.57288045067334       62.40517683211928
H           46.49138946881956       65.67385623533507       62.79349719415188
H           45.05532262701888       64.82032240882617       62.22936864387776
H           43.05468745186342       64.58937003239659       63.78425619727559
H           43.02803132359310       66.34818703632817       63.75166905421820
H           43.24961798495910       64.76101448085475       66.33738132236691
H           42.48132823670969       67.65978635691569       65.80584067548106
H           42.57052764764131       66.87760370728105       67.38333688042560
H           44.03680410939820       67.12162908798277       66.44147735140272
H           40.81657361267932       65.90967073377415       64.92256079586083
H           40.81963129559436       65.46781676463779       66.62405522174809
H           41.46572523667839       63.45159984974803       64.45275348268648
H           40.51983908746292       63.10369592601835       67.32629846247846
H           40.96961015513814       61.81665714313252       66.20414064374538
H           42.19097995972616       62.93437945212909       66.80008198819289
H           38.83378572195194       64.50155372927745       65.41683195388727
H           38.97207618590773       62.75885642057622       65.33810209196733
H           37.92933457965096       63.65877826403289       63.37047411811376
H           40.52986991570239       65.10843938835221       62.72826621250031
H           39.07079680524584       65.06664334601678       61.74213564719668
H           39.04544680367680       65.87970012823260       63.30359026938878
H           40.68995752957799       62.54080795236526       62.76234406039290
H           39.41054957050058       62.71458635262782       61.57504952802083
H           39.03756670025278       61.02926253798152       64.07564071361735
H           37.25963001054971       59.98210285748826       62.73564634888453
H           36.97828322098991       61.71666855628341       62.83306169680630
H           37.64995803066292       61.01626360131363       61.35999345157175
H           40.24358262734050       60.34239804746932       61.38425971597771
H           39.46422562242791       59.11930605341175       62.37136369305604
H           41.45959421608945       60.77850138044652       63.83093235685055
H           41.95172785532264       58.63579059891860       64.88834940913233
H           40.20651771450640       58.86370009868415       64.81977984071007
H           41.00071004677724       57.77778330386437       63.67669866749245
H           42.26501506556912       58.84562838623380       61.63369035969002
H           43.33483948514785       59.27047864388852       62.96564936402116
H           42.09036896103749       61.38770959677823       61.19568528076930
H           43.17064816992141       61.97599226426540       63.45202094925467
H           44.70319308020067       61.47392068598518       62.75423842967458
H           43.81197708070560       62.82731120539645       62.05356775214060
H           43.31324794977426       59.77110014341830       59.78170604343621
H           44.73285676245820       59.93438027214904       60.80840722454533
H           44.95366731805539       62.30949116153611       60.13131065320177
H           45.82194867093904       61.80591565442094       57.89928709759046
H           46.07740630457141       60.40682682359833       58.93115290926258
H           44.75808284765627       60.40575126753775       57.76086390005542
H           42.50978932271381       62.68747830494107       59.62894457582096
H           42.67900557886760       61.65205463770984       58.21577262866772
H           44.39426119023162       63.33594173103042       57.34195937660792
H           41.51045124825628       64.20464256724334       57.80816620030279
H           42.57799623663801       64.86947654471905       56.57265195781145
H           42.09062916203372       63.17982766000390       56.49536582876778
H           44.73722579264474       64.39952960770290       59.63610451070811
H           43.15462004337581       65.13064771185168       59.45851576411312
H           44.74933348667744       65.63946880372238       57.06473434194463
H           43.68665242232615       67.53615856532659       59.19453132108176
H           44.19445570044808       67.97551462015456       57.56435518964457
H           42.77321849468550       66.96080596844584       57.79958050949832
H           45.96329069421878       66.55108614868668       59.69737304588735
H           46.39776026937695       67.18294047062845       58.11015246319474
H           46.78773315424208       64.30181214655464       59.01342966080243
H           47.58342831403782       65.73730081036976       56.44761754354645
H           48.21081422164372       64.16530497224277       56.94162953161140
H           46.49721027813327       64.35428093983283       56.58954129277738
H           48.22457004209240       66.33418614473771       59.97826009102502
H           48.98617116346998       66.26953353769035       58.39534781264063
H           49.27145482373421       63.70670830183568       58.90834274738980
H           51.41824931404177       64.20625453170091       60.11802434530158
H           51.15768762553481       65.24274834969999       58.71715966913560
H           50.87205564239306       65.86697608497059       60.34053175849616
H           47.75166215165292       64.05227242700423       61.01993826269560
H           49.19526085662280       64.74139951469348       61.75272505375189
H           50.36923358898640       62.51901460251501       61.11290910849300
H           49.75984138494638       63.12718359707883       63.42736343110471
H           48.11301162735568       62.55313556912201       63.16090951132339
H           49.45776315363376       61.40989889888314       63.15761036651746
H           61.73237812608834       51.59372016534481       67.50247609000344
H           60.01514059641860       51.30997148971518       67.21828878871951
C           64.44534892289487       36.79102591146325       58.59387243537184
C           63.80257719182239       36.97585455636842       57.21868880380564
C           64.56177484936758       36.15816667821088       56.17653996783459
C           63.77940660003423       38.46799477558885       56.87081313969022
C           63.12963806746895       38.85756085904212       55.53464033860028
C           63.28058003948404       40.36704198433264       55.35559082604987
C           61.65874317583042       38.42447247920602       55.49702209703067
C           60.83364438012278       38.87970614534807       54.28289126568615
C           59.39904433562584       38.37917273163672       54.45844627844983
C           61.44116068119369       38.36748063886735       52.97170477389648
C           60.68936909012387       38.74365487456370       51.68414074555146
C           61.32560491770528       37.99979475091858       50.50917764421891
C           60.71940147832652       40.25965642893724       51.46144674328848
C           59.94942529820077       40.78933418054903       50.24113237230249
C           60.22932873146033       42.28537159241307       50.10302288997860
C           58.44711465065667       40.50485036339015       50.37654755762352
C           57.53620431627598       41.14037122284269       49.31497870714095
C           56.08034705841962       40.82993672940442       49.66101090471194
C           57.89319700827537       40.64596023243249       47.90852752258096
C           57.09355750534694       41.26315127503038       46.74972636601461
C           57.52105643899188       40.58880582153819       45.44544052423593
C           57.31385093444590       42.77806197212102       46.68831678297127
C           56.58394190295412       43.53298956305652       45.56823426249039
C           56.99582664129262       45.00247192725121       45.63610737613354
C           55.06437306588224       43.35592789137633       45.69268535119078
C           54.19459443570177       44.27600684647205       44.82466368311592
C           52.72301512811387       44.01123955817295       45.14150311960739
C           54.46035562060784       44.08945309533024       43.32617641419409
C           53.86891803642096       45.21782538204404       42.45436115022179
C           52.80253896756448       44.66462348079001       41.51077924290139
C           54.96884362062305       45.93894011908957       41.66176887511114
C           54.58022981555819       47.33247390705311       41.14731631849071
C           55.60297968552529       47.78968927139623       40.10780879093807
C           54.48057670034881       48.35682917161639       42.29443509611013
C           53.05525735735787       48.84093865611554       42.58921075355555
C           52.60067477723474       49.83934926309362       41.52546566152390
C           52.97178629400744       49.48424356971785       43.98132338752549
C           52.97886728264446       48.47939555296630       45.13986393762416
C           51.62077997159833       47.78836414115893       45.26543540733809
C           53.31749205835334       49.15314329312353       46.47703896370024
C           54.77511956242845       49.58312816745502       46.68288128910973
C           55.71410852376644       48.37856351254622       46.68465742606898
C           54.91172209238081       50.33577240222935       48.01695970917824
C           54.48812849592279       51.80753116442828       47.96845838344044
C           55.57950853594852       52.64872844598440       47.30704771773335
C           54.23853845296277       52.37432049908400       49.37147372690639
C           52.97147923031388       51.91863710732834       50.10727484454632
C           51.71671612807091       52.36381521553763       49.36156568717188
C           53.00197624704928       52.51403009840147       51.52258754747429
C           51.98034336944225       51.96377273356419       52.52701365238608
C           51.89701464063668       52.92057348584659       53.71612351865669
C           52.38481910541916       50.55982154706345       52.98756808538944
C           51.31996174381632       49.78284667484121       53.78121120085599
C           51.98407968450191       49.05121994399398       54.94846074099782
C           50.57899919831802       48.75031698594125       52.92024367627666
C           49.75722666200585       49.30656371529415       51.75406492536477
C           48.58778526175293       50.15198380124194       52.25891819827868
C           49.19688394702846       48.17807747037374       50.87220083310412
C           50.21654918482194       47.22639661085753       50.23126629119259
C           51.20307222161608       47.98311834436558       49.34982465008765
C           49.46754611982760       46.16166948184215       49.41880345083088
C           50.30918536980329       44.98339017209321       48.90810676668865
C           49.45617662973670       44.16327833078946       47.93787692130918
C           50.82761141206827       44.07137342555788       50.03776739226119
C           52.27430199208926       44.30572421443085       50.48874193211082
C           53.26449737773728       44.05710642067896       49.34957172880596
C           52.65904823097077       43.37559006798239       51.65138447789339
C           51.84213912426936       43.47874495896230       52.94634081690900
C           51.77844083775888       44.91684593090476       53.45775008741688
C           52.46311088501369       42.60320678941052       54.04793735851979
C           52.51810356531200       41.09733557173369       53.76992508274312
C           51.11282455346299       40.49739860541815       53.71867326935366
C           53.33505313087817       40.34988754065532       54.83740593096213
C           54.80562004007794       40.76610487075087       54.98970589741632
C           55.52514884472573       40.75122793392806       53.64088407484215
C           55.54429511779359       39.84797474357734       55.98623413334240
C           55.83680418844519       40.46528603760980       57.36406674573509
C           56.90826461259462       39.63071141077485       58.06635838157937
C           54.55249778301181       40.55345012120052       58.19813933716720
C           54.70204030740552       41.03310948005019       59.65073015140624
C           53.37492768387591       40.82002937262757       60.37993410514085
C           55.13462571308177       42.50268819229991       59.70080685006354
C           55.38480389988155       43.08223214477049       61.10236891448116
C           55.56127375504403       44.59566719616248       60.99392047046897
C           56.61226927967776       42.42590945506934       61.74498587422210
C           56.99511211554110       42.91009622854728       63.15122659569068
C           58.34606122328370       42.29855936886676       63.52583107949023
C           55.91928122007613       42.54633661235672       64.17981930599770
C           56.13386418850491       43.17961130103914       65.55342090046710
C           55.01167852841948       42.81043552872124       66.51679941827477
H           64.44505581651536       35.74167798915066       58.88039607045899
H           65.47565424064115       37.14174683753291       58.58187871775203
H           63.90117687027404       37.35138800361851       59.35125158563385
H           54.05112296238388       43.14497351002792       66.13189731866767
H           54.96767167399080       41.73176286239176       66.65345176046321
H           55.16976094593468       43.27110982463762       67.48947824215153
H           54.94570108804123       42.87367179205960       63.80972934020328
H           55.88142719219141       41.45882291032549       64.28705587722543
H           56.45045491507693       41.34704753658261       61.80077825058786
H           57.46625121946705       42.59495195920001       61.08444502180734
H           54.50491085826506       42.89007252965123       61.72084293762086
H           55.59870366155872       45.05657403033336       61.97725374415204
H           56.47771240046708       44.83571397313569       60.45861840658976
H           54.72560517231386       45.03743654471724       60.45519516315571
H           56.04905722829916       42.62437375502710       59.11614132032977
H           54.35426610765001       43.09491207155357       59.21452170890965
H           53.85069899246543       41.21844690462825       57.69000827959891
H           54.10209105980177       39.55675068036294       58.21873506703928
H           57.11065726899814       43.99825803642537       63.14009139062841
H           58.26532129195851       41.21581380178844       63.60341719844308
H           59.09047443720321       42.52878283822099       62.76628708237350