      -----------------------------------------------------------      
     |                   =====================                   |     
     |                           x T B                           |     
     |                   =====================                   |     
     |                         S. Grimme                         |     
     |          Mulliken Center for Theoretical Chemistry        |     
     |                    University of Bonn                     |     
      -----------------------------------------------------------      

   * xtb version 6.6.1 (8d0f1dd) compiled by 'stahn@M-Bot' on 2023-08-01

   xtb is free software: you can redistribute it and/or modify it under
   the terms of the GNU Lesser General Public License as published by
   the Free Software Foundation, either version 3 of the License, or
   (at your option) any later version.
   
   xtb is distributed in the hope that it will be useful,
   but WITHOUT ANY WARRANTY; without even the implied warranty of
   MERCHANTABILITY or FITNESS FOR A PARTICULAR PURPOSE.  See the
   GNU Lesser General Public License for more details.
   
   Cite this work as:
   * C. Bannwarth, E. Caldeweyher, S. Ehlert, A. Hansen, P. Pracht,
     J. Seibert, S. Spicher, S. Grimme, WIREs Comput. Mol. Sci., 2020, 11,
     e01493. DOI: 10.1002/wcms.1493
   
   for GFN2-xTB:
   * C. Bannwarth, S. Ehlert and S. Grimme., J. Chem. Theory Comput., 2019,
     15, 1652-1671. DOI: 10.1021/acs.jctc.8b01176
   for GFN1-xTB:
   * S. Grimme, C. Bannwarth, P. Shushkov, J. Chem. Theory Comput., 2017,
     13, 1989-2009. DOI: 10.1021/acs.jctc.7b00118
   for GFN0-xTB:
   * P. Pracht, E. Caldeweyher, S. Ehlert, S. Grimme, ChemRxiv, 2019, preprint.
     DOI: 10.26434/chemrxiv.8326202.v1
   for GFN-FF:
   * S. Spicher and S. Grimme, Angew. Chem. Int. Ed., 2020, 59, 15665-15673.
     DOI: 10.1002/anie.202004239
   
   for ALPB and GBSA implicit solvation:
   * S. Ehlert, M. Stahn, S. Spicher, S. Grimme, J. Chem. Theory Comput.,
     2021, 17, 4250-4261. DOI: 10.1021/acs.jctc.1c00471
   
   for DFT-D4:
   * E. Caldeweyher, C. Bannwarth and S. Grimme, J. Chem. Phys., 2017,
     147, 034112. DOI: 10.1063/1.4993215
   * E. Caldeweyher, S. Ehlert, A. Hansen, H. Neugebauer, S. Spicher,
     C. Bannwarth and S. Grimme, J. Chem. Phys., 2019, 150, 154122.
     DOI: 10.1063/1.5090222
   * E. Caldeweyher, J.-M. Mewes, S. Ehlert and S. Grimme, Phys. Chem. Chem. Phys.
     2020, 22, 8499-8512. DOI: 10.1039/D0CP00502A
   
   for sTDA-xTB:
   * S. Grimme and C. Bannwarth, J. Chem. Phys., 2016, 145, 054103.
     DOI: 10.1063/1.4959605
   
   in the mass-spec context:
   * V. Asgeirsson, C. Bauer and S. Grimme, Chem. Sci., 2017, 8, 4879.
     DOI: 10.1039/c7sc00601b
   * J. Koopman and S. Grimme, ACS Omega 2019, 4, 12, 15120-15133.
     DOI: 10.1021/acsomega.9b02011
   
   for metadynamics refer to:
   * S. Grimme, J. Chem. Theory Comput., 2019, 155, 2847-2862
     DOI: 10.1021/acs.jctc.9b00143
   
   for SPH calculations refer to:
   * S. Spicher and S. Grimme, J. Chem. Theory Comput., 2021, 17, 1701-1714
     DOI: 10.1021/acs.jctc.0c01306
   
   with help from (in alphabetical order)
   P. Atkinson, C. Bannwarth, F. Bohle, G. Brandenburg, E. Caldeweyher
   M. Checinski, S. Dohm, S. Ehlert, S. Ehrlich, I. Gerasimov, C. Hölzer
   A. Katbashev, J. Koopman, C. Lavigne, S. Lehtola, F. März, M. Müller,
   F. Musil, H. Neugebauer, J. Pisarek, C. Plett, P. Pracht, F. Pultar,
   J. Seibert, P. Shushkov, S. Spicher, M. Stahn, M. Steiner, T. Strunk,
   J. Stückrath, T. Rose, and J. Unsleber
   
 * started run on 2024/06/21 at 00:19:32.516     

           -------------------------------------------------
          |                Calculation Setup                |
           -------------------------------------------------

          program call               : /home/abt-grimme/AK-bin/xtb input.xyz --input input.inp --opt --gbsa water
          hostname                   : boar006.thch.uni-bonn.de
          coordinate file            : input.xyz
          omp threads                :                     8

   ID    Z sym.   atoms
    1    6 C      1-90, 273-362, 545-634, 817-906, 1089-1178, 1361-1450,
                  1633-1722, 1905-1994, 2177-2266, 2449-2538, 2721-2810,
                  2993-3082, 3265-3354
    2    1 H      91-272, 363-544, 635-816, 907-1088, 1179-1360, 1451-1632,
                  1723-1904, 1995-2176, 2267-2448, 2539-2720, 2811-2992,
                  3083-3264, 3355-3536

molecular fragmentation (1/2 indicates fragments):
111111111111111111111111111111111111111111111111111111111111111111111111
111111111111111111111111111111111111111111111111111111111111111111111111
111111111111111111111111111111111111111111111111111111111111111111111111
111111111111111111111111111111111111111111111111111111112222222222222222
222222222222222222222222222222222222222222222222222222222222222222222222
222222222222222222222222222222222222222222222222222222222222222222222222
222222222222222222222222222222222222222222222222222222222222222222222222
222222222222222222222222222222222222222222222222222222222222222222222222
222222222222222222222222222222222222222222222222222222222222222222222222
222222222222222222222222222222222222222222222222222222222222222222222222
222222222222222222222222222222222222222222222222222222222222222222222222
222222222222222222222222222222222222222222222222222222222222222222222222
222222222222222222222222222222222222222222222222222222222222222222222222
222222222222222222222222222222222222222222222222222222222222222222222222
222222222222222222222222222222222222222222222222222222222222222222222222
222222222222222222222222222222222222222222222222222222222222222222222222
222222222222222222222222222222222222222222222222222222222222222222222222
222222222222222222222222222222222222222222222222222222222222222222222222
222222222222222222222222222222222222222222222222222222222222222222222222
222222222222222222222222222222222222222222222222222222222222222222222222
222222222222222222222222222222222222222222222222222222222222222222222222
222222222222222222222222222222222222222222222222222222222222222222222222
222222222222222222222222222222222222222222222222222222222222222222222222
222222222222222222222222222222222222222222222222222222222222222222222222
222222222222222222222222222222222222222222222222222222222222222222222222
222222222222222222222222222222222222222222222222222222222222222222222222
222222222222222222222222222222222222222222222222222222222222222222222222
222222222222222222222222222222222222222222222222222222222222222222222222
222222222222222222222222222222222222222222222222222222222222222222222222
222222222222222222222222222222222222222222222222222222222222222222222222
222222222222222222222222222222222222222222222222222222222222222222222222
222222222222222222222222222222222222222222222222222222222222222222222222
222222222222222222222222222222222222222222222222222222222222222222222222
222222222222222222222222222222222222222222222222222222222222222222222222
222222222222222222222222222222222222222222222222222222222222222222222222
222222222222222222222222222222222222222222222222222222222222222222222222
222222222222222222222222222222222222222222222222222222222222222222222222
222222222222222222222222222222222222222222222222222222222222222222222222
222222222222222222222222222222222222222222222222222222222222222222222222
222222222222222222222222222222222222222222222222222222222222222222222222
222222222222222222222222222222222222222222222222222222222222222222222222
222222222222222222222222222222222222222222222222222222222222222222222222
222222222222222222222222222222222222222222222222222222222222222222222222
222222222222222222222222222222222222222222222222222222222222222222222222
222222222222222222222222222222222222222222222222222222222222222222222222
222222222222222222222222222222222222222222222222222222222222222222222222
222222222222222222222222222222222222222222222222222222222222222222222222
222222222222222222222222222222222222222222222222222222222222222222222222
222222222222222222222222222222222222222222222222222222222222222222222222
22222222
# atoms in fragment 1/2:   272  3264
 fragment masses (1/2) :     1264.41    15172.94
CMA distance (Bohr)    :  24.087
constraining FC (au)   :  0.0500

           -------------------------------------------------
          |                 G F N 2 - x T B                 |
           -------------------------------------------------

        Reference                      10.1021/acs.jctc.8b01176
      * Hamiltonian:
        H0-scaling (s, p, d)           1.850000    2.230000    2.230000
        zeta-weighting                 0.500000
      * Dispersion:
        s8                             2.700000
        a1                             0.520000
        a2                             5.000000
        s9                             5.000000
      * Repulsion:
        kExp                           1.500000    1.000000
        rExp                           1.000000
      * Coulomb:
        alpha                          2.000000
        third order                    shell-resolved
        anisotropic                    true
        a3                             3.000000
        a5                             4.000000
        cn-shift                       1.200000
        cn-exp                         4.000000
        max-rad                        5.000000

      * Solvation model:               GBSA
        Solvent                        water
        Parameter file                 internal GFN2-xTB/GBSA
        Dielectric constant                8.0200E+01
        Reference state                gsolv [1 M gas/solution]
        Free energy shift                  1.8574E-03 Eh       1.1656E+00 kcal/mol
        Temperature                        2.9815E+02 K
        Density                            1.0000E+00 kg/L
        Solvent mass                       1.8000E+01 g/mol
        Interaction kernel             Still
        Born radius scaling (c1)           1.5524E+00
        Born radii integrator          GBOBC
        Born offset                        2.4628E-02 a0       4.6540E-02 AA
        H-bond correction              true
        Ion screening                  false
        Surface tension                    1.0000E-05 Eh       1.5569E+01 dyn/cm
        Grid points                               230 per atom
q/qsh data taken from xtbrestart
CAMM data taken from xtbrestart

          ...................................................
          :                      SETUP                      :
          :.................................................:
          :  # basis functions                7046          :
          :  # atomic orbitals                7046          :
          :  # shells                         4706          :
          :  # electrons                      7046          :
          :  max. iterations                   250          :
          :  Hamiltonian                  GFN2-xTB          :
          :  restarted?                       true          :
          :  GBSA solvation                   true          :
          :  PC potential                    false          :
          :  electronic temp.          300.0000000     K    :
          :  accuracy                    1.0000000          :
          :  -> integral cutoff          0.2500000E+02      :
          :  -> integral neglect         0.1000000E-07      :
          :  -> SCF convergence          0.1000000E-05 Eh   :
          :  -> wf. convergence          0.1000000E-03 e    :
          :  Broyden damping             0.4000000          :
          ...................................................

 iter      E             dE          RMSdq      gap      omega  full diag
   1  -3764.2434325 -0.376424E+04  0.394E-05   10.40       0.0  T
   2  -3764.2434325 -0.829459E-09  0.294E-05   10.40      57.2  T
   3  -3764.2434325 -0.118325E-08  0.143E-05   10.40     117.8  T

   *** convergence criteria satisfied after 3 iterations ***

         #    Occupation            Energy/Eh            Energy/eV
      -------------------------------------------------------------
         1        2.0000           -0.6175681             -16.8049
       ...           ...                  ...                  ...
      3517        2.0000           -0.3762273             -10.2377
      3518        2.0000           -0.3758948             -10.2286
      3519        2.0000           -0.3758055             -10.2262
      3520        2.0000           -0.3753309             -10.2133
      3521        2.0000           -0.3750440             -10.2055
      3522        2.0000           -0.3735663             -10.1653
      3523        2.0000           -0.3729858             -10.1495 (HOMO)
      3524                          0.0092466               0.2516 (LUMO)
      3525                          0.0158840               0.4322
      3526                          0.0170624               0.4643
      3527                          0.0173951               0.4733
      3528                          0.0175883               0.4786
       ...                                ...                  ...
      7046                          0.3723049              10.1309
      -------------------------------------------------------------
                  HL-Gap            0.3822324 Eh           10.4011 eV
             Fermi-level           -0.1818696 Eh           -4.9489 eV

 SCC (total)                   0 d,  0 h,  8 min, 41.369 sec
 SCC setup                      ...        0 min,  2.107 sec (  0.404%)
 Dispersion                     ...        0 min,  4.215 sec (  0.808%)
 classical contributions        ...        0 min,  0.172 sec (  0.033%)
 integral evaluation            ...        0 min,  6.913 sec (  1.326%)
 iterations                     ...        3 min, 45.919 sec ( 43.332%)
 molecular gradient             ...        4 min, 31.388 sec ( 52.053%)
 printout                       ...        0 min, 10.654 sec (  2.044%)

         :::::::::::::::::::::::::::::::::::::::::::::::::::::
         ::                     SUMMARY                     ::
         :::::::::::::::::::::::::::::::::::::::::::::::::::::
         :: total energy           -3715.369548468628 Eh    ::
         :: total w/o Gsasa/hb     -3715.261858934523 Eh    ::
         :: gradient norm              0.664027405010 Eh/a0 ::
         :: HOMO-LUMO gap             10.401072575394 eV    ::
         ::.................................................::
         :: SCC energy             -3764.243432460314 Eh    ::
         :: -> isotropic ES            0.440128005091 Eh    ::
         :: -> anisotropic ES          1.494148473813 Eh    ::
         :: -> anisotropic XC          2.300860633802 Eh    ::
         :: -> dispersion             -4.698006900094 Eh    ::
         :: -> Gsolv                  -0.045300509952 Eh    ::
         ::    -> Gelec                0.062389024154 Eh    ::
         ::    -> Gsasa               -0.103372894416 Eh    ::
         ::    -> Ghb                 -0.006174082816 Eh    ::
         ::    -> Gshift               0.001857443127 Eh    ::
         :: repulsion energy          48.142930710731 Eh    ::
         :: add. restraining           0.000000000000 Eh    ::
         :: total charge              -0.000000000011 e     ::
         :::::::::::::::::::::::::::::::::::::::::::::::::::::

      ----------------------------------------------------------- 
     |              Fast Inertial Relaxation Engine              |
      ----------------------------------------------------------- 

          ...................................................
          :                      SETUP                      :
          :.................................................:
          :   energy convergence        0.5000000E-05 Eh    :
          :   grad. convergence         0.1000000E-02 Eh/a0 :
          :   optimization log               true           :
          :   writing optlog all                1     steps :
          :   Hessian reset                    20     steps :
          :   time step scaling                 5     steps :
          :   maximium step len.        1.0000000     a0    :
          :   initial time step         0.2500000     fs    :
          :   maximum time step         1.2500000     fs    :
          :   power reset thr           0.0000000     au    :
          :   alpha parameter           0.1000000           :
          :   BFGS update                   false           :
          :   preconditioning               false           :
          ...................................................

........................................................................
.............................. CYCLE    1 ..............................
........................................................................

 iter      E             dE          RMSdq      gap      omega  full diag
   1  -3764.5048448 -0.376450E+04  0.761E-03   10.41       0.0  T
   2  -3764.5048879 -0.431824E-04  0.414E-03   10.41       1.0  T
   3  -3764.5048886 -0.675999E-06  0.179E-03   10.41       1.0  T
   4  -3764.5048891 -0.526356E-06  0.438E-04   10.41       3.8  T
   5  -3764.5048894 -0.266476E-06  0.177E-04   10.41       9.5  T
     SCC iter.                  ...        6 min, 19.136 sec
     gradient                   ...        4 min, 28.556 sec
 * total energy  : -3715.4196894 Eh     change    :  -0.5014093E-01 Eh
   gradient norm :     0.6313214 Eh/a0  converged?    E=F G=F D=F
   time step     :     0.2500000 fs     power     :   0.2594765E-05
   step length   :     0.0778226 a0     speed     :   0.7529754E-02

........................................................................
.............................. CYCLE    2 ..............................
........................................................................

 iter      E             dE          RMSdq      gap      omega  full diag
   1  -3764.8904309 -0.376489E+04  0.112E-02   10.42       0.0  T
   2  -3764.8905238 -0.929446E-04  0.607E-03   10.42       1.0  T
   3  -3764.8905253 -0.151484E-05  0.262E-03   10.42       1.0  T
   4  -3764.8905265 -0.114639E-05  0.651E-04   10.42       2.6  T
   5  -3764.8905271 -0.583057E-06  0.274E-04   10.42       6.1  T
   6  -3764.8905271 -0.486971E-07  0.128E-04   10.42      13.1  T
     SCC iter.                  ...        7 min, 24.178 sec
     gradient                   ...        4 min, 29.226 sec
 * total energy  : -3715.4892701 Eh     change    :  -0.6958071E-01 Eh
   gradient norm :     0.5852031 Eh/a0  converged?    E=F G=F D=F
   time step     :     0.2500000 fs     power     :   0.3548947E-05
   step length   :     0.1146809 a0     speed     :   0.1109600E-01

........................................................................
.............................. CYCLE    3 ..............................
........................................................................

 iter      E             dE          RMSdq      gap      omega  full diag
   1  -3765.3903347 -0.376539E+04  0.144E-02   10.44       0.0  T
   2  -3765.3904869 -0.152171E-03  0.782E-03   10.43       1.0  T
   3  -3765.3904894 -0.251728E-05  0.334E-03   10.43       1.0  T
   4  -3765.3904913 -0.186540E-05  0.837E-04   10.43       2.0  T
   5  -3765.3904922 -0.960948E-06  0.356E-04   10.43       4.7  T
   6  -3765.3904923 -0.800646E-07  0.163E-04   10.43      10.3  T
     SCC iter.                  ...        7 min, 25.456 sec
     gradient                   ...        4 min, 27.839 sec
 * total energy  : -3715.5717357 Eh     change    :  -0.8246562E-01 Eh
   gradient norm :     0.5271181 Eh/a0  converged?    E=F G=F D=F
   time step     :     0.2500000 fs     power     :   0.4135962E-05
   step length   :     0.1488556 a0     speed     :   0.1440258E-01

........................................................................
.............................. CYCLE    4 ..............................
........................................................................

 iter      E             dE          RMSdq      gap      omega  full diag
   1  -3765.9918938 -0.376599E+04  0.172E-02   10.45       0.0  T
   2  -3765.9921057 -0.211890E-03  0.933E-03   10.45       1.0  T
   3  -3765.9921094 -0.362601E-05  0.394E-03   10.45       1.0  T
   4  -3765.9921119 -0.255386E-05  0.988E-04   10.45       1.7  T
   5  -3765.9921132 -0.132331E-05  0.432E-04   10.45       3.9  T
   6  -3765.9921134 -0.115372E-06  0.193E-04   10.44       8.7  T
   7  -3765.9921134 -0.553550E-07  0.127E-04   10.44      13.2  T
     SCC iter.                  ...        8 min, 38.625 sec
     gradient                   ...        4 min, 30.862 sec
 * total energy  : -3715.6595732 Eh     change    :  -0.8783751E-01 Eh
   gradient norm :     0.4607255 Eh/a0  converged?    E=F G=F D=F
   time step     :     0.2500000 fs     power     :   0.4316515E-05
   step length   :     0.1795082 a0     speed     :   0.1736839E-01

........................................................................
.............................. CYCLE    5 ..............................
........................................................................

 iter      E             dE          RMSdq      gap      omega  full diag
   1  -3766.6797081 -0.376668E+04  0.195E-02   10.46       0.0  T
   2  -3766.6799699 -0.261846E-03  0.105E-02   10.46       1.0  T
   3  -3766.6799746 -0.465088E-05  0.436E-03   10.46       1.0  T
   4  -3766.6799776 -0.299113E-05  0.108E-03   10.46       1.6  T
   5  -3766.6799791 -0.155844E-05  0.481E-04   10.46       3.5  T
   6  -3766.6799792 -0.119543E-06  0.198E-04   10.46       8.5  T
   7  -3766.6799793 -0.549221E-07  0.130E-04   10.46      13.0  T
     SCC iter.                  ...        8 min, 34.621 sec
     gradient                   ...        4 min, 28.828 sec
 * total energy  : -3715.7452683 Eh     change    :  -0.8569509E-01 Eh
   gradient norm :     0.3915113 Eh/a0  converged?    E=F G=F D=F
   time step     :     0.2500000 fs     power     :   0.4106043E-05
   step length   :     0.2059186 a0     speed     :   0.1992373E-01

........................................................................
.............................. CYCLE    6 ..............................
........................................................................

 iter      E             dE          RMSdq      gap      omega  full diag
   1  -3767.5185795 -0.376752E+04  0.236E-02   10.47       0.0  T
   2  -3767.5189386 -0.359113E-03  0.127E-02   10.47       1.0  T
   3  -3767.5189457 -0.707122E-05  0.510E-03   10.47       1.0  T
   4  -3767.5189496 -0.388893E-05  0.125E-03   10.47       1.3  T
   5  -3767.5189516 -0.197983E-05  0.589E-04   10.47       2.9  T
   6  -3767.5189517 -0.164815E-06  0.225E-04   10.47       7.5  T
   7  -3767.5189518 -0.689861E-07  0.150E-04   10.47      11.2  T
     SCC iter.                  ...        8 min, 33.212 sec
     gradient                   ...        4 min, 31.063 sec
 * total energy  : -3715.8297781 Eh     change    :  -0.8450976E-01 Eh
   gradient norm :     0.3206271 Eh/a0  converged?    E=F G=F D=F
   time step     :     0.2750000 fs     power     :   0.3498710E-05
   step length   :     0.2526304 a0     speed     :   0.2222123E-01

........................................................................
.............................. CYCLE    7 ..............................
........................................................................

 iter      E             dE          RMSdq      gap      omega  full diag
   1  -3768.5046163 -0.376850E+04  0.274E-02   10.49       0.0  T
   2  -3768.5050564 -0.440036E-03  0.147E-02   10.48       1.0  T
   3  -3768.5050668 -0.104404E-04  0.564E-03   10.48       1.0  T
   4  -3768.5050712 -0.438229E-05  0.135E-03   10.48       1.3  T
   5  -3768.5050732 -0.201446E-05  0.695E-04   10.48       2.4  T
   6  -3768.5050734 -0.210869E-06  0.240E-04   10.48       7.0  T
   7  -3768.5050735 -0.757768E-07  0.164E-04   10.48      10.2  T
     SCC iter.                  ...        8 min, 41.316 sec
     gradient                   ...        4 min, 29.831 sec
 * total energy  : -3715.9037464 Eh     change    :  -0.7396829E-01 Eh
   gradient norm :     0.2643916 Eh/a0  converged?    E=F G=F D=F
   time step     :     0.3025000 fs     power     :   0.2551594E-05
   step length   :     0.3006352 a0     speed     :   0.2403973E-01

........................................................................
.............................. CYCLE    8 ..............................
........................................................................

 iter      E             dE          RMSdq      gap      omega  full diag
   1  -3769.6031920 -0.376960E+04  0.305E-02   10.50       0.0  T
   2  -3769.6036487 -0.456676E-03  0.163E-02   10.49       1.0  T
   3  -3769.6036635 -0.148039E-04  0.577E-03   10.49       1.0  T
   4  -3769.6036675 -0.403603E-05  0.132E-03   10.49       1.3  T
   5  -3769.6036688 -0.125296E-05  0.765E-04   10.49       2.2  T
   6  -3769.6036690 -0.243469E-06  0.227E-04   10.49       7.4  T
   7  -3769.6036691 -0.656328E-07  0.164E-04   10.49      10.3  T
     SCC iter.                  ...        8 min, 38.760 sec
     gradient                   ...        4 min, 29.820 sec
 * total energy  : -3715.9591227 Eh     change    :  -0.5537629E-01 Eh
   gradient norm :     0.2426301 Eh/a0  converged?    E=F G=F D=F
   time step     :     0.3327500 fs     power     :   0.1471427E-05
   step length   :     0.3445156 a0     speed     :   0.2504413E-01

........................................................................
.............................. CYCLE    9 ..............................
........................................................................

 iter      E             dE          RMSdq      gap      omega  full diag
   1  -3770.7320526 -0.377073E+04  0.324E-02   10.51       0.0  T
   2  -3770.7324279 -0.375225E-03  0.175E-02   10.50       1.0  T
   3  -3770.7324464 -0.185608E-04  0.536E-03   10.50       1.0  T
   4  -3770.7324498 -0.338550E-05  0.129E-03   10.50       1.3  T
   5  -3770.7324503 -0.505237E-06  0.752E-04   10.50       2.2  T
   6  -3770.7324505 -0.223390E-06  0.180E-04   10.50       9.4  T
     SCC iter.                  ...        7 min, 22.265 sec
     gradient                   ...        4 min, 30.463 sec
 * total energy  : -3715.9934597 Eh     change    :  -0.3433707E-01 Eh
   gradient norm :     0.2510940 Eh/a0  converged?    E=F G=F D=F
   time step     :     0.3660250 fs     power     :   0.5604209E-06
   step length   :     0.3767443 a0     speed     :   0.2489723E-01

........................................................................
.............................. CYCLE   10 ..............................
........................................................................

 iter      E             dE          RMSdq      gap      omega  full diag
   1  -3771.7788973 -0.377178E+04  0.332E-02   10.51       0.0  T
   2  -3771.7791393 -0.242012E-03  0.185E-02   10.51       1.0  T
   3  -3771.7791550 -0.157079E-04  0.472E-03   10.51       1.0  T
   4  -3771.7791634 -0.836802E-05  0.145E-03   10.51       1.2  T
   5  -3771.7791645 -0.109152E-05  0.819E-04   10.51       2.1  T
   6  -3771.7791646 -0.151564E-06  0.151E-04   10.51      11.1  T
   7  -3771.7791646 -0.264558E-07  0.116E-04   10.51      14.5  T
     SCC iter.                  ...        8 min, 36.806 sec
     gradient                   ...        4 min, 29.167 sec
 * total energy  : -3716.0105301 Eh     change    :  -0.1707032E-01 Eh
   gradient norm :     0.2605857 Eh/a0  converged?    E=F G=F D=F
   time step     :     0.4026275 fs     power     :  -0.3210730E-07
   step length   :     0.3949161 a0     speed     :   0.2372556E-01

........................................................................
.............................. CYCLE   11 ..............................
........................................................................
 * reset velocities

 iter      E             dE          RMSdq      gap      omega  full diag
   1  -3771.7604049 -0.377176E+04  0.105E-03   10.51       0.0  T
   2  -3771.7604057 -0.839969E-06  0.645E-04   10.51       2.6  T
   3  -3771.7604057 -0.116820E-07  0.271E-04   10.51       6.2  T
     SCC iter.                  ...        3 min, 43.474 sec
     gradient                   ...        4 min, 31.221 sec
 * total energy  : -3716.0130788 Eh     change    :  -0.2548793E-02 Eh
   gradient norm :     0.2543317 Eh/a0  converged?    E=F G=F D=F
   time step     :     0.2013138 fs     power     :   0.1659859E-06
   step length   :     0.0099016 a0     speed     :   0.1189731E-02

........................................................................
.............................. CYCLE   12 ..............................
........................................................................

 iter      E             dE          RMSdq      gap      omega  full diag
   1  -3771.7233664 -0.377172E+04  0.211E-03   10.51       0.0  T
   2  -3771.7233695 -0.315183E-05  0.129E-03   10.51       1.3  T
   3  -3771.7233695 -0.282780E-07  0.523E-04   10.51       3.2  T
   4  -3771.7233696 -0.820864E-07  0.135E-04   10.51      12.5  T
     SCC iter.                  ...        4 min, 56.758 sec
     gradient                   ...        4 min, 28.952 sec
 * total energy  : -3716.0179354 Eh     change    :  -0.4856526E-02 Eh
   gradient norm :     0.2421660 Eh/a0  converged?    E=F G=F D=F
   time step     :     0.2013138 fs     power     :   0.3122260E-06
   step length   :     0.0195654 a0     speed     :   0.2350885E-02

........................................................................
.............................. CYCLE   13 ..............................
........................................................................

 iter      E             dE          RMSdq      gap      omega  full diag
   1  -3771.6689941 -0.377167E+04  0.303E-03   10.51       0.0  T
   2  -3771.6690012 -0.709121E-05  0.187E-03   10.51       1.0  T
   3  -3771.6690013 -0.102485E-06  0.788E-04   10.51       2.1  T
   4  -3771.6690015 -0.185778E-06  0.205E-04   10.51       8.2  T
     SCC iter.                  ...        5 min,  1.924 sec
     gradient                   ...        4 min, 29.275 sec
 * total energy  : -3716.0246451 Eh     change    :  -0.6709697E-02 Eh
   gradient norm :     0.2245536 Eh/a0  converged?    E=F G=F D=F
   time step     :     0.2013138 fs     power     :   0.4253325E-06
   step length   :     0.0287654 a0     speed     :   0.3456301E-02

........................................................................
.............................. CYCLE   14 ..............................
........................................................................

 iter      E             dE          RMSdq      gap      omega  full diag
   1  -3771.5987181 -0.377160E+04  0.392E-03   10.51       0.0  T
   2  -3771.5987300 -0.118565E-04  0.241E-03   10.51       1.0  T
   3  -3771.5987301 -0.177234E-06  0.102E-03   10.51       1.7  T
   4  -3771.5987304 -0.309893E-06  0.267E-04   10.51       6.3  T
   5  -3771.5987305 -0.895488E-07  0.690E-05   10.51      24.4  T
     SCC iter.                  ...        6 min, 12.236 sec
     gradient                   ...        4 min, 30.451 sec
 * total energy  : -3716.0325903 Eh     change    :  -0.7945249E-02 Eh
   gradient norm :     0.2022657 Eh/a0  converged?    E=F G=F D=F
   time step     :     0.2013138 fs     power     :   0.4956211E-06
   step length   :     0.0372898 a0     speed     :   0.4480554E-02

........................................................................
.............................. CYCLE   15 ..............................
........................................................................

 iter      E             dE          RMSdq      gap      omega  full diag
   1  -3771.5144729 -0.377151E+04  0.468E-03   10.51       0.0  T
   2  -3771.5144900 -0.171096E-04  0.289E-03   10.51       1.0  T
   3  -3771.5144902 -0.260409E-06  0.122E-03   10.51       1.4  T
   4  -3771.5144907 -0.431728E-06  0.319E-04   10.51       5.3  T
   5  -3771.5144908 -0.127854E-06  0.819E-05   10.51      20.5  T
     SCC iter.                  ...        6 min, 17.869 sec
     gradient                   ...        4 min, 31.113 sec
 * total energy  : -3716.0410596 Eh     change    :  -0.8469263E-02 Eh
   gradient norm :     0.1763582 Eh/a0  converged?    E=F G=F D=F
   time step     :     0.2013138 fs     power     :   0.5181317E-06
   step length   :     0.0449491 a0     speed     :   0.5400856E-02

........................................................................
.............................. CYCLE   16 ..............................
........................................................................

 iter      E             dE          RMSdq      gap      omega  full diag
   1  -3771.4187562 -0.377142E+04  0.532E-03   10.51       0.0  T
   2  -3771.4187783 -0.221833E-04  0.328E-03   10.51       1.0  T
   3  -3771.4187787 -0.342229E-06  0.139E-03   10.51       1.2  T
   4  -3771.4187792 -0.548668E-06  0.364E-04   10.51       4.6  T
   5  -3771.4187794 -0.164760E-06  0.933E-05   10.51      18.0  T
     SCC iter.                  ...        6 min, 10.718 sec
     gradient                   ...        4 min, 32.495 sec
 * total energy  : -3716.0493293 Eh     change    :  -0.8269730E-02 Eh
   gradient norm :     0.1484185 Eh/a0  converged?    E=F G=F D=F
   time step     :     0.2013138 fs     power     :   0.4935700E-06
   step length   :     0.0515767 a0     speed     :   0.6197194E-02

........................................................................
.............................. CYCLE   17 ..............................
........................................................................

 iter      E             dE          RMSdq      gap      omega  full diag
   1  -3771.3033151 -0.377130E+04  0.643E-03   10.51       0.0  T
   2  -3771.3033476 -0.325578E-04  0.398E-03   10.51       1.0  T
   3  -3771.3033481 -0.505302E-06  0.168E-03   10.51       1.0  T
   4  -3771.3033489 -0.785324E-06  0.440E-04   10.51       3.8  T
   5  -3771.3033492 -0.239449E-06  0.111E-04   10.51      15.1  T
     SCC iter.                  ...        6 min, 16.839 sec
     gradient                   ...        4 min, 30.255 sec
 * total energy  : -3716.0574655 Eh     change    :  -0.8136178E-02 Eh
   gradient norm :     0.1180460 Eh/a0  converged?    E=F G=F D=F
   time step     :     0.2214451 fs     power     :   0.4195432E-06
   step length   :     0.0633389 a0     speed     :   0.6918622E-02

........................................................................
.............................. CYCLE   18 ..............................
........................................................................

 iter      E             dE          RMSdq      gap      omega  full diag
   1  -3771.1703734 -0.377117E+04  0.747E-03   10.51       0.0  T
   2  -3771.1704174 -0.439777E-04  0.464E-03   10.51       1.0  T
   3  -3771.1704181 -0.681979E-06  0.195E-03   10.51       1.0  T
   4  -3771.1704191 -0.103763E-05  0.512E-04   10.51       3.3  T
   5  -3771.1704194 -0.321241E-06  0.128E-04   10.51      13.1  T
   6  -3771.1704194 -0.128553E-07  0.881E-05   10.51      19.1  T
     SCC iter.                  ...        7 min, 30.753 sec
     gradient                   ...        4 min, 29.214 sec
 * total energy  : -3716.0644831 Eh     change    :  -0.7017632E-02 Eh
   gradient norm :     0.0914318 Eh/a0  converged?    E=F G=F D=F
   time step     :     0.2435896 fs     power     :   0.2996984E-06
   step length   :     0.0755317 a0     speed     :   0.7500417E-02

........................................................................
.............................. CYCLE   19 ..............................
........................................................................

 iter      E             dE          RMSdq      gap      omega  full diag
   1  -3771.0284053 -0.377103E+04  0.818E-03   10.51       0.0  T
   2  -3771.0284574 -0.521408E-04  0.511E-03   10.51       1.0  T
   3  -3771.0284582 -0.764601E-06  0.212E-03   10.51       1.0  T
   4  -3771.0284594 -0.122223E-05  0.557E-04   10.52       3.0  T
   5  -3771.0284598 -0.376617E-06  0.130E-04   10.52      12.9  T
   6  -3771.0284598 -0.110044E-07  0.851E-05   10.52      19.8  T
     SCC iter.                  ...        7 min, 20.397 sec
     gradient                   ...        4 min, 28.351 sec
 * total energy  : -3716.0694726 Eh     change    :  -0.4989453E-02 Eh
   gradient norm :     0.0818239 Eh/a0  converged?    E=F G=F D=F
   time step     :     0.2679486 fs     power     :   0.1588095E-06
   step length   :     0.0867635 a0     speed     :   0.7832502E-02

........................................................................
.............................. CYCLE   20 ..............................
........................................................................

 iter      E             dE          RMSdq      gap      omega  full diag
   1  -3770.8956714 -0.377090E+04  0.820E-03   10.52       0.0  T
   2  -3770.8957210 -0.496025E-04  0.518E-03   10.52       1.0  T
   3  -3770.8957217 -0.614266E-06  0.206E-03   10.52       1.0  T
   4  -3770.8957229 -0.125869E-05  0.547E-04   10.52       3.1  T
   5  -3770.8957233 -0.360347E-06  0.129E-04   10.52      13.1  T
   6  -3770.8957233 -0.892078E-08  0.783E-05   10.52      21.5  T
     SCC iter.                  ...        7 min, 25.798 sec
     gradient                   ...        4 min, 30.105 sec
 * total energy  : -3716.0722552 Eh     change    :  -0.2782634E-02 Eh
   gradient norm :     0.0952996 Eh/a0  converged?    E=F G=F D=F
   time step     :     0.2947435 fs     power     :   0.4826241E-07
   step length   :     0.0944476 a0     speed     :   0.7751071E-02
 * RMSD in coord.:     0.0373140 a0     energy gain  -0.7027067E+00 Eh

........................................................................
.............................. CYCLE   21 ..............................
........................................................................

 iter      E             dE          RMSdq      gap      omega  full diag
   1  -3770.8152085 -0.377082E+04  0.583E-03   10.52       0.0  T
   2  -3770.8152300 -0.214695E-04  0.371E-03   10.52       1.0  T
   3  -3770.8152301 -0.129121E-06  0.135E-03   10.52       1.2  T
   4  -3770.8152308 -0.704025E-06  0.362E-04   10.52       4.6  T
   5  -3770.8152310 -0.159191E-06  0.927E-05   10.52      18.1  T
     SCC iter.                  ...        6 min, 14.671 sec
     gradient                   ...        4 min, 28.946 sec
 * total energy  : -3716.0735879 Eh     change    :  -0.1332734E-02 Eh
   gradient norm :     0.1116944 Eh/a0  converged?    E=F G=F D=F
   time step     :     0.2500000 fs     power     :   0.2914009E-07
   step length   :     0.0749439 a0     speed     :   0.7251226E-02

........................................................................
.............................. CYCLE   22 ..............................
........................................................................

 iter      E             dE          RMSdq      gap      omega  full diag
   1  -3770.7696872 -0.377077E+04  0.482E-03   10.53       0.0  T
   2  -3770.7696972 -0.100137E-04  0.307E-03   10.53       1.0  T
   3  -3770.7696971  0.109858E-06  0.869E-04   10.53       1.9  T
   4  -3770.7696977 -0.544924E-06  0.248E-04   10.53       6.8  T
     SCC iter.                  ...        5 min,  2.827 sec
     gradient                   ...        4 min, 29.291 sec
 * total energy  : -3716.0752121 Eh     change    :  -0.1624162E-02 Eh
   gradient norm :     0.1235223 Eh/a0  converged?    E=F G=F D=F
   time step     :     0.2500000 fs     power     :   0.6288274E-07
   step length   :     0.0697908 a0     speed     :   0.6752639E-02

........................................................................
.............................. CYCLE   23 ..............................
........................................................................

 iter      E             dE          RMSdq      gap      omega  full diag
   1  -3770.7584463 -0.377076E+04  0.422E-03   10.54       0.0  T
   2  -3770.7584494 -0.304438E-05  0.263E-03   10.54       1.0  T
   3  -3770.7584493  0.116287E-06  0.396E-04   10.54       4.2  T
   4  -3770.7584496 -0.328018E-06  0.148E-04   10.54      11.4  T
     SCC iter.                  ...        4 min, 56.506 sec
     gradient                   ...        4 min, 28.262 sec
 * total energy  : -3716.0777923 Eh     change    :  -0.2580216E-02 Eh
   gradient norm :     0.1283165 Eh/a0  converged?    E=F G=F D=F
   time step     :     0.2500000 fs     power     :   0.1240505E-06
   step length   :     0.0662790 a0     speed     :   0.6412845E-02

........................................................................
.............................. CYCLE   24 ..............................
........................................................................

 iter      E             dE          RMSdq      gap      omega  full diag
   1  -3770.7790939 -0.377078E+04  0.414E-03   10.54       0.0  T
   2  -3770.7790943 -0.479105E-06  0.248E-03   10.54       1.0  T
   3  -3770.7790944 -0.965715E-07  0.182E-04   10.54       9.2  T
   4  -3770.7790945 -0.443847E-07  0.103E-04   10.54      16.3  T
     SCC iter.                  ...        4 min, 59.883 sec
     gradient                   ...        4 min, 30.565 sec
 * total energy  : -3716.0815296 Eh     change    :  -0.3737312E-02 Eh
   gradient norm :     0.1260097 Eh/a0  converged?    E=F G=F D=F
   time step     :     0.2500000 fs     power     :   0.1886931E-06
   step length   :     0.0649785 a0     speed     :   0.6287015E-02

........................................................................
.............................. CYCLE   25 ..............................
........................................................................

 iter      E             dE          RMSdq      gap      omega  full diag
   1  -3770.8283036 -0.377083E+04  0.448E-03   10.55       0.0  T
   2  -3770.8283049 -0.131355E-05  0.260E-03   10.55       1.0  T
   3  -3770.8283049 -0.298910E-07  0.363E-04   10.55       4.6  T
   4  -3770.8283050 -0.151438E-06  0.119E-04   10.55      14.2  T
     SCC iter.                  ...        5 min,  2.360 sec
     gradient                   ...        4 min, 28.937 sec
 * total energy  : -3716.0862583 Eh     change    :  -0.4728699E-02 Eh
   gradient norm :     0.1175905 Eh/a0  converged?    E=F G=F D=F
   time step     :     0.2500000 fs     power     :   0.2392139E-06
   step length   :     0.0657087 a0     speed     :   0.6357674E-02

........................................................................
.............................. CYCLE   26 ..............................
........................................................................

 iter      E             dE          RMSdq      gap      omega  full diag
   1  -3770.9111629 -0.377091E+04  0.556E-03   10.56       0.0  T
   2  -3770.9111684 -0.554699E-05  0.317E-03   10.56       1.0  T
   3  -3770.9111683  0.106139E-06  0.760E-04   10.56       2.2  T
   4  -3770.9111688 -0.467021E-06  0.175E-04   10.56       9.6  T
     SCC iter.                  ...        4 min, 59.024 sec
     gradient                   ...        4 min, 26.441 sec
 * total energy  : -3716.0921542 Eh     change    :  -0.5895854E-02 Eh
   gradient norm :     0.1031711 Eh/a0  converged?    E=F G=F D=F
   time step     :     0.2750000 fs     power     :   0.2652118E-06
   step length   :     0.0752013 a0     speed     :   0.6614662E-02

........................................................................
.............................. CYCLE   27 ..............................
........................................................................

 iter      E             dE          RMSdq      gap      omega  full diag
   1  -3771.0291820 -0.377103E+04  0.686E-03   10.57       0.0  T
   2  -3771.0291951 -0.131340E-04  0.388E-03   10.57       1.0  T
   3  -3771.0291950  0.156416E-06  0.113E-03   10.57       1.5  T
   4  -3771.0291957 -0.789001E-06  0.250E-04   10.57       6.7  T
   5  -3771.0291958 -0.974019E-07  0.124E-04   10.57      13.5  T
     SCC iter.                  ...        6 min, 10.349 sec
     gradient                   ...        4 min, 28.386 sec
 * total energy  : -3716.0986851 Eh     change    :  -0.6530895E-02 Eh
   gradient norm :     0.0851641 Eh/a0  converged?    E=F G=F D=F
   time step     :     0.3025000 fs     power     :   0.2565865E-06
   step length   :     0.0874352 a0     speed     :   0.6991594E-02

........................................................................
.............................. CYCLE   28 ..............................
........................................................................

 iter      E             dE          RMSdq      gap      omega  full diag
   1  -3771.1799082 -0.377118E+04  0.812E-03   10.58       0.0  T
   2  -3771.1799305 -0.223142E-04  0.458E-03   10.58       1.0  T
   3  -3771.1799304  0.148967E-06  0.142E-03   10.58       1.2  T
   4  -3771.1799314 -0.102280E-05  0.315E-04   10.58       5.3  T
   5  -3771.1799316 -0.158772E-06  0.136E-04   10.58      12.4  T
   6  -3771.1799316 -0.196201E-07  0.832E-05   10.58      20.2  T
     SCC iter.                  ...        7 min, 25.990 sec
     gradient                   ...        4 min, 29.895 sec
 * total energy  : -3716.1050547 Eh     change    :  -0.6369617E-02 Eh
   gradient norm :     0.0701952 Eh/a0  converged?    E=F G=F D=F
   time step     :     0.3327500 fs     power     :   0.2141423E-06
   step length   :     0.1017319 a0     speed     :   0.7395274E-02

........................................................................
.............................. CYCLE   29 ..............................
........................................................................

 iter      E             dE          RMSdq      gap      omega  full diag
   1  -3771.3520315 -0.377135E+04  0.897E-03   10.59       0.0  T
   2  -3771.3520590 -0.274141E-04  0.504E-03   10.59       1.0  T
   3  -3771.3520588  0.120938E-06  0.153E-03   10.59       1.1  T
   4  -3771.3520599 -0.104894E-05  0.344E-04   10.59       4.9  T
   5  -3771.3520601 -0.188974E-06  0.134E-04   10.59      12.5  T
   6  -3771.3520601 -0.154328E-07  0.779E-05   10.59      21.6  T
     SCC iter.                  ...        7 min, 25.910 sec
     gradient                   ...        4 min, 30.480 sec
 * total energy  : -3716.1105954 Eh     change    :  -0.5540665E-02 Eh
   gradient norm :     0.0677715 Eh/a0  converged?    E=F G=F D=F
   time step     :     0.3660250 fs     power     :   0.1579413E-06
   step length   :     0.1165662 a0     speed     :   0.7703302E-02

........................................................................
.............................. CYCLE   30 ..............................
........................................................................

 iter      E             dE          RMSdq      gap      omega  full diag
   1  -3771.5217749 -0.377152E+04  0.901E-03   10.60       0.0  T
   2  -3771.5217970 -0.221189E-04  0.504E-03   10.60       1.0  T
   3  -3771.5217970 -0.215223E-07  0.132E-03   10.60       1.3  T
   4  -3771.5217977 -0.701432E-06  0.300E-04   10.60       5.6  T
   5  -3771.5217979 -0.136529E-06  0.127E-04   10.60      13.2  T
     SCC iter.                  ...        6 min, 20.340 sec
     gradient                   ...        4 min, 30.446 sec
 * total energy  : -3716.1153929 Eh     change    :  -0.4797539E-02 Eh
   gradient norm :     0.0760341 Eh/a0  converged?    E=F G=F D=F
   time step     :     0.4026275 fs     power     :   0.1226541E-06
   step length   :     0.1297580 a0     speed     :   0.7795535E-02

........................................................................
.............................. CYCLE   31 ..............................
........................................................................

 iter      E             dE          RMSdq      gap      omega  full diag
   1  -3771.6619439 -0.377166E+04  0.839E-03   10.61       0.0  T
   2  -3771.6619539 -0.100632E-04  0.473E-03   10.61       1.0  T
   3  -3771.6619542 -0.288638E-06  0.849E-04   10.61       2.0  T
   4  -3771.6619544 -0.209911E-06  0.195E-04   10.61       8.6  T
     SCC iter.                  ...        4 min, 58.041 sec
     gradient                   ...        4 min, 31.242 sec
 * total energy  : -3716.1203664 Eh     change    :  -0.4973502E-02 Eh
   gradient norm :     0.0819964 Eh/a0  converged?    E=F G=F D=F
   time step     :     0.4428903 fs     power     :   0.1240914E-06
   step length   :     0.1418694 a0     speed     :   0.7748323E-02

........................................................................
.............................. CYCLE   32 ..............................
........................................................................

 iter      E             dE          RMSdq      gap      omega  full diag
   1  -3771.7499035 -0.377175E+04  0.777E-03   10.62       0.0  T
   2  -3771.7499063 -0.275418E-05  0.455E-03   10.62       1.0  T
   3  -3771.7499061  0.169909E-06  0.634E-04   10.62       2.7  T
   4  -3771.7499068 -0.734982E-06  0.186E-04   10.62       9.0  T
     SCC iter.                  ...        5 min,  0.969 sec
     gradient                   ...        4 min, 28.970 sec
 * total energy  : -3716.1264010 Eh     change    :  -0.6034627E-02 Eh
   gradient norm :     0.0775501 Eh/a0  converged?    E=F G=F D=F
   time step     :     0.4871793 fs     power     :   0.1427111E-06
   step length   :     0.1561553 a0     speed     :   0.7753234E-02

........................................................................
.............................. CYCLE   33 ..............................
........................................................................

 iter      E             dE          RMSdq      gap      omega  full diag
   1  -3771.7712109 -0.377177E+04  0.778E-03   10.63       0.0  T
   2  -3771.7712216 -0.106425E-04  0.487E-03   10.63       1.0  T
   3  -3771.7712202  0.139836E-05  0.115E-03   10.63       1.5  T
   4  -3771.7712228 -0.262152E-05  0.227E-04   10.63       7.4  T
   5  -3771.7712228 -0.358932E-07  0.129E-04   10.63      13.0  T
   6  -3771.7712228 -0.100808E-07  0.586E-05   10.63      28.7  T
     SCC iter.                  ...        7 min, 30.787 sec
     gradient                   ...        4 min, 29.591 sec
 * total energy  : -3716.1333282 Eh     change    :  -0.6927212E-02 Eh
   gradient norm :     0.0645694 Eh/a0  converged?    E=F G=F D=F
   time step     :     0.5358972 fs     power     :   0.1427842E-06
   step length   :     0.1749135 a0     speed     :   0.7895086E-02

........................................................................
.............................. CYCLE   34 ..............................
........................................................................

 iter      E             dE          RMSdq      gap      omega  full diag
   1  -3771.7290471 -0.377173E+04  0.839E-03   10.64       0.0  T
   2  -3771.7290771 -0.299703E-04  0.546E-03   10.64       1.0  T
   3  -3771.7290765  0.625332E-06  0.167E-03   10.64       1.0  T
   4  -3771.7290789 -0.238400E-05  0.394E-04   10.65       4.3  T
   5  -3771.7290791 -0.212962E-06  0.160E-04   10.65      10.5  T
   6  -3771.7290791 -0.195641E-07  0.870E-05   10.65      19.3  T
     SCC iter.                  ...        7 min, 32.274 sec
     gradient                   ...        4 min, 28.051 sec
 * total energy  : -3716.1399285 Eh     change    :  -0.6600306E-02 Eh
   gradient norm :     0.0577005 Eh/a0  converged?    E=F G=F D=F
   time step     :     0.5894869 fs     power     :   0.1111067E-06
   step length   :     0.1972962 a0     speed     :   0.8095796E-02

........................................................................
.............................. CYCLE   35 ..............................
........................................................................

 iter      E             dE          RMSdq      gap      omega  full diag
   1  -3771.6623967 -0.377166E+04  0.891E-03   10.66       0.0  T
   2  -3771.6624306 -0.339082E-04  0.571E-03   10.66       1.0  T
   3  -3771.6624304  0.125448E-06  0.157E-03   10.66       1.1  T
   4  -3771.6624320 -0.158923E-05  0.484E-04   10.66       3.5  T
   5  -3771.6624323 -0.289094E-06  0.175E-04   10.66       9.6  T
   6  -3771.6624323 -0.180266E-07  0.800E-05   10.66      21.0  T
     SCC iter.                  ...        7 min, 28.838 sec
     gradient                   ...        4 min, 30.030 sec
 * total energy  : -3716.1456895 Eh     change    :  -0.5760915E-02 Eh
   gradient norm :     0.0639049 Eh/a0  converged?    E=F G=F D=F
   time step     :     0.6484356 fs     power     :   0.8449090E-07
   step length   :     0.2190440 a0     speed     :   0.8171082E-02

........................................................................
.............................. CYCLE   36 ..............................
........................................................................

 iter      E             dE          RMSdq      gap      omega  full diag
   1  -3771.6326202 -0.377163E+04  0.995E-03   10.69       0.0  T
   2  -3771.6326349 -0.146781E-04  0.598E-03   10.69       1.0  T
   3  -3771.6326357 -0.792575E-06  0.871E-04   10.69       1.9  T
   4  -3771.6326361 -0.420847E-06  0.314E-04   10.69       5.4  T
     SCC iter.                  ...        5 min,  1.756 sec
     gradient                   ...        4 min, 28.422 sec
 * total energy  : -3716.1517865 Eh     change    :  -0.6097013E-02 Eh
   gradient norm :     0.0634862 Eh/a0  converged?    E=F G=F D=F
   time step     :     0.7132792 fs     power     :   0.8780498E-07
   step length   :     0.2398349 a0     speed     :   0.8133322E-02

........................................................................
.............................. CYCLE   37 ..............................
........................................................................

 iter      E             dE          RMSdq      gap      omega  full diag
   1  -3771.6848105 -0.377168E+04  0.121E-02   10.72       0.0  T
   2  -3771.6848187 -0.823553E-05  0.698E-03   10.72       1.0  T
   3  -3771.6848185  0.240987E-06  0.125E-03   10.72       1.3  T
   4  -3771.6848206 -0.214408E-05  0.348E-04   10.72       4.8  T
   5  -3771.6848207 -0.152659E-07  0.123E-04   10.72      13.6  T
   6  -3771.6848207 -0.621185E-08  0.346E-05   10.72      48.6  T
     SCC iter.                  ...        7 min, 23.522 sec
     gradient                   ...        4 min, 29.447 sec
 * total energy  : -3716.1584488 Eh     change    :  -0.6662361E-02 Eh
   gradient norm :     0.0516854 Eh/a0  converged?    E=F G=F D=F
   time step     :     0.7846071 fs     power     :   0.8065841E-07
   step length   :     0.2651428 a0     speed     :   0.8174153E-02

........................................................................
.............................. CYCLE   38 ..............................
........................................................................

 iter      E             dE          RMSdq      gap      omega  full diag
   1  -3771.8163202 -0.377182E+04  0.133E-02   10.75       0.0  T
   2  -3771.8163434 -0.232300E-04  0.766E-03   10.75       1.0  T
   3  -3771.8163424  0.107775E-05  0.170E-03   10.75       1.0  T
   4  -3771.8163457 -0.330666E-05  0.361E-04   10.75       4.7  T
   5  -3771.8163458 -0.106332E-06  0.181E-04   10.75       9.3  T
   6  -3771.8163458 -0.108334E-07  0.622E-05   10.75      27.0  T
     SCC iter.                  ...        7 min, 19.491 sec
     gradient                   ...        4 min, 29.734 sec
 * total energy  : -3716.1639506 Eh     change    :  -0.5501746E-02 Eh
   gradient norm :     0.0537230 Eh/a0  converged?    E=F G=F D=F
   time step     :     0.8630678 fs     power     :   0.4639375E-07
   step length   :     0.2931741 a0     speed     :   0.8216668E-02

........................................................................
.............................. CYCLE   39 ..............................
........................................................................

 iter      E             dE          RMSdq      gap      omega  full diag
   1  -3771.9498137 -0.377195E+04  0.118E-02   10.78       0.0  T
   2  -3771.9498273 -0.135401E-04  0.688E-03   10.78       1.0  T
   3  -3771.9498277 -0.407547E-06  0.990E-04   10.78       1.7  T
   4  -3771.9498284 -0.742693E-06  0.271E-04   10.78       6.2  T
     SCC iter.                  ...        4 min, 57.843 sec
     gradient                   ...        4 min, 30.273 sec
 * total energy  : -3716.1690087 Eh     change    :  -0.5058102E-02 Eh
   gradient norm :     0.0581827 Eh/a0  converged?    E=F G=F D=F
   time step     :     0.9493746 fs     power     :   0.4368766E-07
   step length   :     0.3166831 a0     speed     :   0.8068678E-02

........................................................................
.............................. CYCLE   40 ..............................
........................................................................

 iter      E             dE          RMSdq      gap      omega  full diag
   1  -3772.0173682 -0.377202E+04  0.116E-02   10.81       0.0  T
   2  -3772.0173841 -0.159249E-04  0.693E-03   10.81       1.0  T
   3  -3772.0173821  0.197259E-05  0.159E-03   10.81       1.1  T
   4  -3772.0173868 -0.461767E-05  0.339E-04   10.81       5.0  T
   5  -3772.0173868 -0.386899E-07  0.184E-04   10.81       9.1  T
   6  -3772.0173868 -0.182872E-07  0.720E-05   10.81      23.4  T
     SCC iter.                  ...        7 min, 27.987 sec
     gradient                   ...        4 min, 27.939 sec
 * total energy  : -3716.1749657 Eh     change    :  -0.5956988E-02 Eh
   gradient norm :     0.0493061 Eh/a0  converged?    E=F G=F D=F
   time step     :     1.0443120 fs     power     :   0.4516614E-07
   step length   :     0.3448518 a0     speed     :   0.7987619E-02

........................................................................
.............................. CYCLE   41 ..............................
........................................................................

 iter      E             dE          RMSdq      gap      omega  full diag
   1  -3772.0390784 -0.377204E+04  0.125E-02   10.84       0.0  T
   2  -3772.0391084 -0.300585E-04  0.773E-03   10.84       1.0  T
   3  -3772.0391066  0.186023E-05  0.173E-03   10.84       1.0  T
   4  -3772.0391114 -0.485497E-05  0.428E-04   10.84       3.9  T
   5  -3772.0391116 -0.165694E-06  0.231E-04   10.84       7.3  T
   6  -3772.0391116 -0.373375E-07  0.107E-04   10.84      15.7  T
     SCC iter.                  ...        7 min, 30.479 sec
     gradient                   ...        4 min, 29.623 sec
 * total energy  : -3716.1800607 Eh     change    :  -0.5095007E-02 Eh
   gradient norm :     0.0501935 Eh/a0  converged?    E=F G=F D=F
   time step     :     1.1487432 fs     power     :   0.2304927E-07
   step length   :     0.3775554 a0     speed     :   0.7950104E-02

........................................................................
.............................. CYCLE   42 ..............................
........................................................................

 iter      E             dE          RMSdq      gap      omega  full diag
   1  -3772.1089359 -0.377211E+04  0.140E-02   10.88       0.0  T
   2  -3772.1089441 -0.812693E-05  0.816E-03   10.88       1.0  T
   3  -3772.1089443 -0.274042E-06  0.103E-03   10.88       1.6  T
   4  -3772.1089456 -0.123798E-05  0.327E-04   10.88       5.1  T
   5  -3772.1089456 -0.294658E-07  0.161E-04   10.88      10.5  T
   6  -3772.1089456 -0.142172E-07  0.567E-05   10.88      29.6  T
     SCC iter.                  ...        7 min, 23.093 sec
     gradient                   ...        4 min, 28.725 sec
 * total energy  : -3716.1842829 Eh     change    :  -0.4222196E-02 Eh
   gradient norm :     0.0468007 Eh/a0  converged?    E=F G=F D=F
   time step     :     1.2500000 fs     power     :   0.1069415E-07
   step length   :     0.4020327 a0     speed     :   0.7779765E-02
 * RMSD in coord.:     0.0600234 a0     energy gain  -0.1120277E+00 Eh

........................................................................
.............................. CYCLE   43 ..............................
........................................................................

 iter      E             dE          RMSdq      gap      omega  full diag
   1  -3772.1229773 -0.377212E+04  0.239E-03   10.89       0.0  T
   2  -3772.1229776 -0.274099E-06  0.138E-03   10.89       1.2  T
   3  -3772.1229776  0.139621E-07  0.209E-04   10.89       8.1  T
   4  -3772.1229776 -0.614809E-07  0.540E-05   10.89      31.2  T
     SCC iter.                  ...        5 min,  0.444 sec
     gradient                   ...        4 min, 28.018 sec
 * total energy  : -3716.1848885 Eh     change    :  -0.6055983E-03 Eh
   gradient norm :     0.0470992 Eh/a0  converged?    E=F G=F D=F
   time step     :     0.2500000 fs     power     :   0.2787404E-07
   step length   :     0.0737337 a0     speed     :   0.7134131E-02

........................................................................
.............................. CYCLE   44 ..............................
........................................................................

 iter      E             dE          RMSdq      gap      omega  full diag
   1  -3772.1360167 -0.377214E+04  0.229E-03   10.90       0.0  T
   2  -3772.1360172 -0.511086E-06  0.135E-03   10.90       1.2  T
   3  -3772.1360172  0.211189E-07  0.233E-04   10.90       7.2  T
   4  -3772.1360173 -0.682626E-07  0.506E-05   10.90      33.3  T
     SCC iter.                  ...        4 min, 53.943 sec
     gradient                   ...        4 min, 28.835 sec
 * total energy  : -3716.1857572 Eh     change    :  -0.8687486E-03 Eh
   gradient norm :     0.0436987 Eh/a0  converged?    E=F G=F D=F
   time step     :     0.2500000 fs     power     :   0.4180569E-07
   step length   :     0.0686276 a0     speed     :   0.6640092E-02

........................................................................
.............................. CYCLE   45 ..............................
........................................................................

 iter      E             dE          RMSdq      gap      omega  full diag
   1  -3772.1464500 -0.377215E+04  0.245E-03   10.90       0.0  T
   2  -3772.1464508 -0.796356E-06  0.147E-03   10.90       1.1  T
   3  -3772.1464508  0.786804E-08  0.255E-04   10.90       6.6  T
   4  -3772.1464509 -0.696932E-07  0.615E-05   10.90      27.3  T
     SCC iter.                  ...        4 min, 55.719 sec
     gradient                   ...        4 min, 27.522 sec
 * total energy  : -3716.1867684 Eh     change    :  -0.1011175E-02 Eh
   gradient norm :     0.0376641 Eh/a0  converged?    E=F G=F D=F
   time step     :     0.2500000 fs     power     :   0.4785286E-07
   step length   :     0.0648801 a0     speed     :   0.6277499E-02

........................................................................
.............................. CYCLE   46 ..............................
........................................................................

 iter      E             dE          RMSdq      gap      omega  full diag
   1  -3772.1526247 -0.377215E+04  0.269E-03   10.91       0.0  T
   2  -3772.1526257 -0.970723E-06  0.163E-03   10.91       1.0  T
   3  -3772.1526257 -0.114032E-07  0.265E-04   10.91       6.3  T
   4  -3772.1526258 -0.722498E-07  0.728E-05   10.91      23.1  T
     SCC iter.                  ...        4 min, 54.952 sec
     gradient                   ...        4 min, 28.093 sec
 * total energy  : -3716.1877626 Eh     change    :  -0.9942029E-03 Eh
   gradient norm :     0.0306776 Eh/a0  converged?    E=F G=F D=F
   time step     :     0.2500000 fs     power     :   0.4507842E-07
   step length   :     0.0621279 a0     speed     :   0.6011211E-02

........................................................................
.............................. CYCLE   47 ..............................
........................................................................

 iter      E             dE          RMSdq      gap      omega  full diag
   1  -3772.1529244 -0.377215E+04  0.288E-03   10.92       0.0  T
   2  -3772.1529254 -0.958553E-06  0.174E-03   10.92       1.0  T
   3  -3772.1529254 -0.257814E-07  0.265E-04   10.92       6.3  T
   4  -3772.1529255 -0.805112E-07  0.823E-05   10.92      20.4  T
     SCC iter.                  ...        5 min,  0.026 sec
     gradient                   ...        4 min, 29.184 sec
 * total energy  : -3716.1886051 Eh     change    :  -0.8424553E-03 Eh
   gradient norm :     0.0252325 Eh/a0  converged?    E=F G=F D=F
   time step     :     0.2500000 fs     power     :   0.3580994E-07
   step length   :     0.0599153 a0     speed     :   0.5797128E-02

........................................................................
.............................. CYCLE   48 ..............................
........................................................................

 iter      E             dE          RMSdq      gap      omega  full diag
   1  -3772.1455010 -0.377215E+04  0.321E-03   10.92       0.0  T
   2  -3772.1455020 -0.954809E-06  0.192E-03   10.92       1.0  T
   3  -3772.1455020 -0.242940E-07  0.296E-04   10.92       5.7  T
   4  -3772.1455021 -0.124030E-06  0.976E-05   10.92      17.2  T
     SCC iter.                  ...        4 min, 56.344 sec
     gradient                   ...        4 min, 28.986 sec
 * total energy  : -3716.1892876 Eh     change    :  -0.6825302E-03 Eh
   gradient norm :     0.0239053 Eh/a0  converged?    E=F G=F D=F
   time step     :     0.2750000 fs     power     :   0.2343193E-07
   step length   :     0.0635001 a0     speed     :   0.5585432E-02

........................................................................
.............................. CYCLE   49 ..............................
........................................................................

 iter      E             dE          RMSdq      gap      omega  full diag
   1  -3772.1298274 -0.377213E+04  0.329E-03   10.92       0.0  T
   2  -3772.1298282 -0.859565E-06  0.194E-03   10.92       1.0  T
   3  -3772.1298282  0.243335E-08  0.329E-04   10.92       5.1  T
   4  -3772.1298284 -0.176331E-06  0.103E-04   10.92      16.3  T
     SCC iter.                  ...        4 min, 54.917 sec
     gradient                   ...        4 min, 28.699 sec
 * total energy  : -3716.1898010 Eh     change    :  -0.5133789E-03 Eh
   gradient norm :     0.0269817 Eh/a0  converged?    E=F G=F D=F
   time step     :     0.3025000 fs     power     :   0.1452256E-07
   step length   :     0.0663493 a0     speed     :   0.5305496E-02

........................................................................
.............................. CYCLE   50 ..............................
........................................................................

 iter      E             dE          RMSdq      gap      omega  full diag
   1  -3772.1082502 -0.377211E+04  0.316E-03   10.93       0.0  T
   2  -3772.1082510 -0.840988E-06  0.183E-03   10.93       1.0  T
   3  -3772.1082510  0.181822E-07  0.340E-04   10.93       5.0  T
   4  -3772.1082512 -0.181022E-06  0.961E-05   10.93      17.5  T
     SCC iter.                  ...        4 min, 55.935 sec
     gradient                   ...        4 min, 28.587 sec
 * total energy  : -3716.1902581 Eh     change    :  -0.4571273E-03 Eh
   gradient norm :     0.0307662 Eh/a0  converged?    E=F G=F D=F
   time step     :     0.3327500 fs     power     :   0.1263420E-07
   step length   :     0.0683753 a0     speed     :   0.4970455E-02

........................................................................
.............................. CYCLE   51 ..............................
........................................................................

 iter      E             dE          RMSdq      gap      omega  full diag
   1  -3772.0842824 -0.377208E+04  0.304E-03   10.93       0.0  T
   2  -3772.0842833 -0.934611E-06  0.174E-03   10.93       1.0  T
   3  -3772.0842833  0.134769E-07  0.327E-04   10.93       5.1  T
   4  -3772.0842834 -0.137834E-06  0.814E-05   10.93      20.7  T
     SCC iter.                  ...        4 min, 56.324 sec
     gradient                   ...        4 min, 29.528 sec
 * total energy  : -3716.1908105 Eh     change    :  -0.5523801E-03 Eh
   gradient norm :     0.0324346 Eh/a0  converged?    E=F G=F D=F
   time step     :     0.3660250 fs     power     :   0.1619153E-07
   step length   :     0.0704655 a0     speed     :   0.4656727E-02

........................................................................
.............................. CYCLE   52 ..............................
........................................................................

 iter      E             dE          RMSdq      gap      omega  full diag
   1  -3772.0618891 -0.377206E+04  0.310E-03   10.93       0.0  T
   2  -3772.0618901 -0.105120E-05  0.178E-03   10.93       1.0  T
   3  -3772.0618901  0.341333E-08  0.303E-04   10.93       5.6  T
   4  -3772.0618902 -0.896930E-07  0.668E-05   10.93      25.2  T
     SCC iter.                  ...        5 min,  6.191 sec
     gradient                   ...        4 min, 27.898 sec
 * total energy  : -3716.1915526 Eh     change    :  -0.7421249E-03 Eh
   gradient norm :     0.0310460 Eh/a0  converged?    E=F G=F D=F
   time step     :     0.4026275 fs     power     :   0.2104819E-07
   step length   :     0.0734937 a0     speed     :   0.4415316E-02

........................................................................
.............................. CYCLE   53 ..............................
........................................................................

 iter      E             dE          RMSdq      gap      omega  full diag
   1  -3772.0454933 -0.377205E+04  0.340E-03   10.93       0.0  T
   2  -3772.0454943 -0.105209E-05  0.198E-03   10.93       1.0  T
   3  -3772.0454943 -0.778573E-08  0.276E-04   10.93       6.1  T
   4  -3772.0454944 -0.680470E-07  0.602E-05   10.93      27.9  T
     SCC iter.                  ...        4 min, 52.966 sec
     gradient                   ...        4 min, 28.159 sec
 * total energy  : -3716.1924632 Eh     change    :  -0.9106314E-03 Eh
   gradient norm :     0.0271909 Eh/a0  converged?    E=F G=F D=F
   time step     :     0.4428903 fs     power     :   0.2305436E-07
   step length   :     0.0779732 a0     speed     :   0.4258576E-02

........................................................................
.............................. CYCLE   54 ..............................
........................................................................

 iter      E             dE          RMSdq      gap      omega  full diag
   1  -3772.0397113 -0.377204E+04  0.380E-03   10.94       0.0  T
   2  -3772.0397122 -0.875893E-06  0.224E-03   10.94       1.0  T
   3  -3772.0397122 -0.530554E-08  0.273E-04   10.94       6.2  T
   4  -3772.0397123 -0.100662E-06  0.777E-05   10.94      21.7  T
     SCC iter.                  ...        4 min, 59.228 sec
     gradient                   ...        4 min, 28.075 sec
 * total energy  : -3716.1934105 Eh     change    :  -0.9472924E-03 Eh
   gradient norm :     0.0231116 Eh/a0  converged?    E=F G=F D=F
   time step     :     0.4871793 fs     power     :   0.2024931E-07
   step length   :     0.0838616 a0     speed     :   0.4163795E-02

........................................................................
.............................. CYCLE   55 ..............................
........................................................................

 iter      E             dE          RMSdq      gap      omega  full diag
   1  -3772.0477220 -0.377205E+04  0.400E-03   10.94       0.0  T
   2  -3772.0477227 -0.769532E-06  0.237E-03   10.94       1.0  T
   3  -3772.0477227  0.233149E-07  0.318E-04   10.94       5.3  T
   4  -3772.0477229 -0.185356E-06  0.103E-04   10.94      16.3  T
     SCC iter.                  ...        4 min, 58.015 sec
     gradient                   ...        4 min, 28.704 sec
 * total energy  : -3716.1942450 Eh     change    :  -0.8344815E-03 Eh
   gradient norm :     0.0218989 Eh/a0  converged?    E=F G=F D=F
   time step     :     0.5358972 fs     power     :   0.1447834E-07
   step length   :     0.0903772 a0     speed     :   0.4079363E-02

........................................................................
.............................. CYCLE   56 ..............................
........................................................................

 iter      E             dE          RMSdq      gap      omega  full diag
   1  -3772.0675333 -0.377207E+04  0.384E-03   10.95       0.0  T
   2  -3772.0675344 -0.112325E-05  0.227E-03   10.95       1.0  T
   3  -3772.0675344  0.100158E-07  0.360E-04   10.95       4.7  T
   4  -3772.0675346 -0.188608E-06  0.114E-04   10.95      14.7  T
     SCC iter.                  ...        5 min,  5.785 sec
     gradient                   ...        4 min, 28.784 sec
 * total energy  : -3716.1949459 Eh     change    :  -0.7009474E-03 Eh
   gradient norm :     0.0238777 Eh/a0  converged?    E=F G=F D=F
   time step     :     0.5894869 fs     power     :   0.1036924E-07
   step length   :     0.0963278 a0     speed     :   0.3952689E-02

........................................................................
.............................. CYCLE   57 ..............................
........................................................................

 iter      E             dE          RMSdq      gap      omega  full diag
   1  -3772.0913656 -0.377209E+04  0.351E-03   10.95       0.0  T
   2  -3772.0913672 -0.153686E-05  0.206E-03   10.95       1.0  T
   3  -3772.0913672 -0.325044E-07  0.368E-04   10.95       4.6  T
   4  -3772.0913673 -0.112422E-06  0.106E-04   10.95      15.8  T
     SCC iter.                  ...        5 min,  3.267 sec
     gradient                   ...        4 min, 30.149 sec
 * total energy  : -3716.1956698 Eh     change    :  -0.7238521E-03 Eh
   gradient norm :     0.0261395 Eh/a0  converged?    E=F G=F D=F
   time step     :     0.6484356 fs     power     :   0.1086757E-07
   step length   :     0.1018374 a0     speed     :   0.3798881E-02

........................................................................
.............................. CYCLE   58 ..............................
........................................................................

 iter      E             dE          RMSdq      gap      omega  full diag
   1  -3772.1095218 -0.377211E+04  0.340E-03   10.95       0.0  T
   2  -3772.1095231 -0.125611E-05  0.199E-03   10.95       1.0  T
   3  -3772.1095231 -0.491327E-07  0.321E-04   10.95       5.2  T
   4  -3772.1095232 -0.718105E-07  0.909E-05   10.95      18.5  T
     SCC iter.                  ...        4 min, 56.667 sec
     gradient                   ...        4 min, 28.325 sec
 * total energy  : -3716.1966239 Eh     change    :  -0.9540885E-03 Eh
   gradient norm :     0.0257710 Eh/a0  converged?    E=F G=F D=F
   time step     :     0.7132792 fs     power     :   0.1462184E-07
   step length   :     0.1086790 a0     speed     :   0.3685542E-02

........................................................................
.............................. CYCLE   59 ..............................
........................................................................

 iter      E             dE          RMSdq      gap      omega  full diag
   1  -3772.1133884 -0.377211E+04  0.376E-03   10.95       0.0  T
   2  -3772.1133891 -0.745519E-06  0.220E-03   10.95       1.0  T
   3  -3772.1133892 -0.637160E-07  0.295E-04   10.95       5.7  T
   4  -3772.1133893 -0.914251E-07  0.101E-04   10.95      16.6  T
     SCC iter.                  ...        4 min, 56.393 sec
     gradient                   ...        4 min, 30.348 sec
 * total energy  : -3716.1978392 Eh     change    :  -0.1215275E-02 Eh
   gradient norm :     0.0220269 Eh/a0  converged?    E=F G=F D=F
   time step     :     0.7846071 fs     power     :   0.1664482E-07
   step length   :     0.1185904 a0     speed     :   0.3656051E-02

........................................................................
.............................. CYCLE   60 ..............................
........................................................................

 iter      E             dE          RMSdq      gap      omega  full diag
   1  -3772.0983732 -0.377210E+04  0.439E-03   10.96       0.0  T
   2  -3772.0983746 -0.146678E-05  0.255E-03   10.96       1.0  T
   3  -3772.0983747 -0.974719E-07  0.403E-04   10.96       4.2  T
   4  -3772.0983749 -0.131907E-06  0.122E-04   10.96      13.7  T
     SCC iter.                  ...        4 min, 57.439 sec
     gradient                   ...        4 min, 28.910 sec
 * total energy  : -3716.1990718 Eh     change    :  -0.1232624E-02 Eh
   gradient norm :     0.0202116 Eh/a0  converged?    E=F G=F D=F
   time step     :     0.8630678 fs     power     :   0.1360088E-07
   step length   :     0.1314310 a0     speed     :   0.3683561E-02

........................................................................
.............................. CYCLE   61 ..............................
........................................................................

 iter      E             dE          RMSdq      gap      omega  full diag
   1  -3772.0701477 -0.377207E+04  0.449E-03   10.96       0.0  T
   2  -3772.0701499 -0.228981E-05  0.259E-03   10.96       1.0  T
   3  -3772.0701500 -0.999098E-07  0.483E-04   10.96       3.5  T
   4  -3772.0701502 -0.139654E-06  0.124E-04   10.96      13.6  T
     SCC iter.                  ...        4 min, 57.137 sec
     gradient                   ...        4 min, 30.860 sec
 * total energy  : -3716.2002461 Eh     change    :  -0.1174312E-02 Eh
   gradient norm :     0.0229695 Eh/a0  converged?    E=F G=F D=F
   time step     :     0.9493746 fs     power     :   0.1200541E-07
   step length   :     0.1445511 a0     speed     :   0.3682977E-02

........................................................................
.............................. CYCLE   62 ..............................
........................................................................

 iter      E             dE          RMSdq      gap      omega  full diag
   1  -3772.0459248 -0.377205E+04  0.427E-03   10.96       0.0  T
   2  -3772.0459265 -0.170308E-05  0.245E-03   10.96       1.0  T
   3  -3772.0459266 -0.917953E-07  0.442E-04   10.96       3.8  T
   4  -3772.0459268 -0.134353E-06  0.120E-04   10.96      14.1  T
     SCC iter.                  ...        4 min, 57.909 sec
     gradient                   ...        4 min, 29.333 sec
 * total energy  : -3716.2016789 Eh     change    :  -0.1432824E-02 Eh
   gradient norm :     0.0210657 Eh/a0  converged?    E=F G=F D=F
   time step     :     1.0443120 fs     power     :   0.1455670E-07
   step length   :     0.1589788 a0     speed     :   0.3682340E-02

........................................................................
.............................. CYCLE   63 ..............................
........................................................................

[...]
  3286   6 C     3287   6 C                                       1.5336164
  3287   6 C     3288   6 C                                       1.5295545
  3287   6 C     3289   6 C                                       1.5372437
  3289   6 C     3290   6 C                                       1.5327707
  3290   6 C     3291   6 C                                       1.5287548
  3290   6 C     3292   6 C                                       1.5356926
  3292   6 C     3293   6 C                                       1.5336423
  3293   6 C     3294   6 C                                       1.5283401
  3293   6 C     3295   6 C                                       1.5380013
  3295   6 C     3296   6 C                                       1.5320076
  3296   6 C     3297   6 C                                       1.5290549
  3296   6 C     3298   6 C                                       1.5352049
  3298   6 C     3299   6 C                                       1.5351800
  3299   6 C     3300   6 C                                       1.5288743
  3299   6 C     3301   6 C                                       1.5367047
  3301   6 C     3302   6 C                                       1.5321196
  3302   6 C     3303   6 C                                       1.5282322
  3302   6 C     3304   6 C                                       1.5369472
  3304   6 C     3305   6 C                                       1.5337626
  3305   6 C     3306   6 C                                       1.5294958
  3305   6 C     3307   6 C                                       1.5350228
  3307   6 C     3308   6 C                                       1.5349249
  3308   6 C     3309   6 C                                       1.5262261
  3308   6 C     3310   6 C                                       1.5364125
  3310   6 C     3311   6 C                                       1.5356840
  3311   6 C     3312   6 C                                       1.5284015
  3311   6 C     3313   6 C                                       1.5323317
  3313   6 C     3314   6 C                                       1.5340897
  3314   6 C     3315   6 C                                       1.5296793
  3316   6 C     3317   6 C                                       1.5333270
  3317   6 C     3318   6 C                                       1.5298154
  3317   6 C     3319   6 C                                       1.5343882
  3319   6 C     3320   6 C                                       1.5361457
  3320   6 C     3321   6 C                                       1.5257338
  3320   6 C     3322   6 C                                       1.5355301
  3322   6 C     3323   6 C                                       1.5353193
  3323   6 C     3324   6 C                                       1.5271107
  3323   6 C     3325   6 C                                       1.5325315
  3325   6 C     3326   6 C                                       1.5372552
  3326   6 C     3327   6 C                                       1.5278283
  3326   6 C     3328   6 C                                       1.5331432
  3328   6 C     3329   6 C                                       1.5365114
  3329   6 C     3330   6 C                                       1.5266777
  3329   6 C     3331   6 C                                       1.5326830
  3331   6 C     3332   6 C                                       1.5346711
  3332   6 C     3333   6 C                                       1.5287969
  3334   6 C     3335   6 C                                       1.5344811
  3335   6 C     3336   6 C                                       1.5278419
  3335   6 C     3337   6 C                                       1.5367018
  3337   6 C     3338   6 C                                       1.5336722
  3338   6 C     3339   6 C                                       1.5292540
  3338   6 C     3340   6 C                                       1.5354857
  3340   6 C     3341   6 C                                       1.5365464
  3341   6 C     3342   6 C                                       1.5257513
  3341   6 C     3343   6 C                                       1.5371622
  3344   6 C     3345   6 C                                       1.5283789
  3344   6 C     3346   6 C                                       1.5367804
  3346   6 C     3347   6 C                                       1.5344098
  3347   6 C     3348   6 C                                       1.5279381
  3347   6 C     3349   6 C                                       1.5331964
  3349   6 C     3350   6 C                                       1.5354314
  3350   6 C     3351   6 C                                       1.5275753
  3350   6 C     3352   6 C                                       1.5323262
  3352   6 C     3353   6 C                                       1.5254522
  3353   6 C     3354   6 C                                       1.5239391
  3265   6 C     3355   1 H                                       1.0878890
  3265   6 C     3356   1 H                                       1.0859839
  3265   6 C     3357   1 H                                       1.0881282
  3354   6 C     3358   1 H                                       1.0879337
  3354   6 C     3359   1 H                                       1.0884911
  3354   6 C     3360   1 H                                       1.0886457
  3352   6 C     3361   1 H                                       1.0927929
  3352   6 C     3362   1 H                                       1.0924202
  3349   6 C     3363   1 H                                       1.0915810
  3349   6 C     3364   1 H                                       1.0926791
  3347   6 C     3365   1 H                                       1.0936447
  3348   6 C     3366   1 H                                       1.0880517
  3348   6 C     3367   1 H                                       1.0879846
  3348   6 C     3368   1 H                                       1.0872376
  3346   6 C     3369   1 H                                       1.0922605
  3346   6 C     3370   1 H                                       1.0927887
  3343   6 C     3371   1 H                                       1.0925705
  3343   6 C     3372   1 H                                       1.0923849
  3350   6 C     3373   1 H                                       1.0966510
  3351   6 C     3374   1 H                                       1.0866996
  3351   6 C     3375   1 H                                       1.0878607
  3351   6 C     3376   1 H                                       1.0881485
  3344   6 C     3377   1 H                                       1.0954717
  3345   6 C     3378   1 H                                       1.0856796
  3345   6 C     3379   1 H                                       1.0878587
  3345   6 C     3380   1 H                                       1.0890573
  3341   6 C     3381   1 H                                       1.0951735
  3342   6 C     3382   1 H                                       1.0872281
  3342   6 C     3383   1 H                                       1.0865125
  3342   6 C     3384   1 H                                       1.0885839
  3340   6 C     3385   1 H                                       1.0939238
  3340   6 C     3386   1 H                                       1.0937985
  3338   6 C     3387   1 H                                       1.0941435
  3339   6 C     3388   1 H                                       1.0872963
  3339   6 C     3389   1 H                                       1.0877156
  3339   6 C     3390   1 H                                       1.0890695
  3337   6 C     3391   1 H                                       1.0909451
  3337   6 C     3392   1 H                                       1.0933465
  3335   6 C     3393   1 H                                       1.0962017
  3336   6 C     3394   1 H                                       1.0882050
  3336   6 C     3395   1 H                                       1.0875946
  3336   6 C     3396   1 H                                       1.0887812
  3334   6 C     3397   1 H                                       1.0912706
  3334   6 C     3398   1 H                                       1.0916943
  3332   6 C     3399   1 H                                       1.0948004
  3333   6 C     3400   1 H                                       1.0884410
  3333   6 C     3401   1 H                                       1.0872200
  3333   6 C     3402   1 H                                       1.0877151
  3331   6 C     3403   1 H                                       1.0928976
  3331   6 C     3404   1 H                                       1.0942290
  3329   6 C     3405   1 H                                       1.0943144
  3330   6 C     3406   1 H                                       1.0875541
  3330   6 C     3407   1 H                                       1.0869609
  3330   6 C     3408   1 H                                       1.0881510
  3328   6 C     3409   1 H                                       1.0924925
  3328   6 C     3410   1 H                                       1.0934218
  3326   6 C     3411   1 H                                       1.0943590
  3327   6 C     3412   1 H                                       1.0876253
  3327   6 C     3413   1 H                                       1.0877388
  3327   6 C     3414   1 H                                       1.0880142
  3325   6 C     3415   1 H                                       1.0917644
  3325   6 C     3416   1 H                                       1.0927830
  3323   6 C     3417   1 H                                       1.0932055
  3324   6 C     3418   1 H                                       1.0859573
  3324   6 C     3419   1 H                                       1.0871944
  3324   6 C     3420   1 H                                       1.0870936
  3322   6 C     3421   1 H                                       1.0931525
  3322   6 C     3422   1 H                                       1.0936632
  3320   6 C     3423   1 H                                       1.0945725
  3321   6 C     3424   1 H                                       1.0866542
  3321   6 C     3425   1 H                                       1.0862099
  3321   6 C     3426   1 H                                       1.0878457
  3319   6 C     3427   1 H                                       1.0928161
  3319   6 C     3428   1 H                                       1.0934579
  3317   6 C     3429   1 H                                       1.0931179
  3318   6 C     3430   1 H                                       1.0881554
  3318   6 C     3431   1 H                                       1.0883436
  3318   6 C     3432   1 H                                       1.0873910
  3316   6 C     3433   1 H                                       1.0903808
  3316   6 C     3434   1 H                                       1.0925402
  3314   6 C     3435   1 H                                       1.0936456
  3315   6 C     3436   1 H                                       1.0878406
  3315   6 C     3437   1 H                                       1.0883596
  3315   6 C     3438   1 H                                       1.0885463
  3313   6 C     3439   1 H                                       1.0929482
  3313   6 C     3440   1 H                                       1.0941886
  3311   6 C     3441   1 H                                       1.0924443
  3312   6 C     3442   1 H                                       1.0881952
  3312   6 C     3443   1 H                                       1.0869408
  3312   6 C     3444   1 H                                       1.0885983
  3310   6 C     3445   1 H                                       1.0934982
  3310   6 C     3446   1 H                                       1.0927357
  3308   6 C     3447   1 H                                       1.0943513
  3309   6 C     3448   1 H                                       1.0878209
  3309   6 C     3449   1 H                                       1.0861199
  3309   6 C     3450   1 H                                       1.0868101
  3307   6 C     3451   1 H                                       1.0942048
  3307   6 C     3452   1 H                                       1.0942903
  3305   6 C     3453   1 H                                       1.0931040
  3306   6 C     3454   1 H                                       1.0888688
  3306   6 C     3455   1 H                                       1.0885021
  3306   6 C     3456   1 H                                       1.0866479
  3304   6 C     3457   1 H                                       1.0922043
  3304   6 C     3458   1 H                                       1.0940205
  3302   6 C     3459   1 H                                       1.0926461
  3303   6 C     3460   1 H                                       1.0883455
  3303   6 C     3461   1 H                                       1.0879574
  3303   6 C     3462   1 H                                       1.0870394
  3301   6 C     3463   1 H                                       1.0914038
  3301   6 C     3464   1 H                                       1.0939502
  3299   6 C     3465   1 H                                       1.0939096
  3300   6 C     3466   1 H                                       1.0882241
  3300   6 C     3467   1 H                                       1.0857297
  3300   6 C     3468   1 H                                       1.0877993
  3298   6 C     3469   1 H                                       1.0926140
  3298   6 C     3470   1 H                                       1.0944858
  3296   6 C     3471   1 H                                       1.0904504
  3297   6 C     3472   1 H                                       1.0887703
  3297   6 C     3473   1 H                                       1.0871990
  3297   6 C     3474   1 H                                       1.0889534
  3295   6 C     3475   1 H                                       1.0913343
  3295   6 C     3476   1 H                                       1.0942715
  3293   6 C     3477   1 H                                       1.0940949
  3294   6 C     3478   1 H                                       1.0885905
  3294   6 C     3479   1 H                                       1.0878984
  3294   6 C     3480   1 H                                       1.0867868
  3292   6 C     3481   1 H                                       1.0900472
  3292   6 C     3482   1 H                                       1.0936823
  3290   6 C     3483   1 H                                       1.0928446
  3291   6 C     3484   1 H                                       1.0866967
  3291   6 C     3485   1 H                                       1.0873875
  3291   6 C     3486   1 H                                       1.0882533
  3289   6 C     3487   1 H                                       1.0921851
  3289   6 C     3488   1 H                                       1.0942662
  3287   6 C     3489   1 H                                       1.0935314
  3288   6 C     3490   1 H                                       1.0880396
  3288   6 C     3491   1 H                                       1.0886938
  3288   6 C     3492   1 H                                       1.0866000
  3286   6 C     3493   1 H                                       1.0917177
  3286   6 C     3494   1 H                                       1.0938992
  3284   6 C     3495   1 H                                       1.0933819
  3285   6 C     3496   1 H                                       1.0885549
  3285   6 C     3497   1 H                                       1.0885621
  3285   6 C     3498   1 H                                       1.0875488
  3283   6 C     3499   1 H                                       1.0901203
  3283   6 C     3500   1 H                                       1.0920515
  3281   6 C     3501   1 H                                       1.0943694
  3282   6 C     3502   1 H                                       1.0884729
  3282   6 C     3503   1 H                                       1.0876111
  3282   6 C     3504   1 H                                       1.0885993
  3280   6 C     3505   1 H                                       1.0934488
  3280   6 C     3506   1 H                                       1.0933502
  3278   6 C     3507   1 H                                       1.0935370
  3279   6 C     3508   1 H                                       1.0888489
  3279   6 C     3509   1 H                                       1.0884384
  3279   6 C     3510   1 H                                       1.0873704
  3277   6 C     3511   1 H                                       1.0912716
  3277   6 C     3512   1 H                                       1.0927328
  3275   6 C     3513   1 H                                       1.0949416
  3276   6 C     3514   1 H                                       1.0884771
  3276   6 C     3515   1 H                                       1.0884742
  3276   6 C     3516   1 H                                       1.0868427
  3274   6 C     3517   1 H                                       1.0924508
  3274   6 C     3518   1 H                                       1.0935854
  3272   6 C     3519   1 H                                       1.0930802
  3273   6 C     3520   1 H                                       1.0886876
  3273   6 C     3521   1 H                                       1.0871488
  3273   6 C     3522   1 H                                       1.0881094
  3271   6 C     3523   1 H                                       1.0917068
  3271   6 C     3524   1 H                                       1.0934992
  3269   6 C     3525   1 H                                       1.0932140
  3270   6 C     3526   1 H                                       1.0867393
  3270   6 C     3527   1 H                                       1.0886486
  3270   6 C     3528   1 H                                       1.0888680
  3268   6 C     3529   1 H                                       1.0922240
  3268   6 C     3530   1 H                                       1.0941478
  3266   6 C     3531   1 H                                       1.0951794
  3267   6 C     3532   1 H                                       1.0882039
  3267   6 C     3533   1 H                                       1.0885417
  3267   6 C     3534   1 H                                       1.0879671
  3353   6 C     3535   1 H                                       1.0905606
  3353   6 C     3536   1 H                                       1.0930523

 * 2 distinct bonds (by element types)

   Z      Z             #   av. dist./Å        max./Å        min./Å
   1 H    6 C        2366     1.0903011     1.0989128     1.0844240
   6 C    6 C        1105     1.5323751     1.5401012     1.5228659


optimized geometry written to: xtbopt.xyz


           -------------------------------------------------
          | TOTAL ENERGY            -3716.265302753397 Eh   |
          | GRADIENT NORM               0.000663409572 Eh/α |
          | HOMO-LUMO GAP              11.065628186316 eV   |
           -------------------------------------------------

------------------------------------------------------------------------
 * finished run on 2024/06/25 at 04:52:27.378     
------------------------------------------------------------------------
 total:
 * wall-time:     4 d,  4 h, 32 min, 54.861 sec
 *  cpu-time:    22 d, 10 h, 21 min, 57.184 sec
 * ratio c/w:     5.354 speedup
 SCF:
 * wall-time:     0 d,  0 h,  8 min, 41.529 sec
 *  cpu-time:     0 d,  0 h, 45 min, 49.032 sec
 * ratio c/w:     5.271 speedup
 ANC optimizer:
 * wall-time:     4 d,  4 h, 22 min, 45.935 sec
 *  cpu-time:    22 d,  9 h, 34 min, 23.332 sec
 * ratio c/w:     5.355 speedup

