      -----------------------------------------------------------      
     |                   =====================                   |     
     |                           x T B                           |     
     |                   =====================                   |     
     |                         S. Grimme                         |     
     |          Mulliken Center for Theoretical Chemistry        |     
     |                    University of Bonn                     |     
      -----------------------------------------------------------      

   * xtb version 6.6.1 (8d0f1dd) compiled by 'stahn@M-Bot' on 2023-08-01

   xtb is free software: you can redistribute it and/or modify it under
   the terms of the GNU Lesser General Public License as published by
   the Free Software Foundation, either version 3 of the License, or
   (at your option) any later version.
   
   xtb is distributed in the hope that it will be useful,
   but WITHOUT ANY WARRANTY; without even the implied warranty of
   MERCHANTABILITY or FITNESS FOR A PARTICULAR PURPOSE.  See the
   GNU Lesser General Public License for more details.
   
   Cite this work as:
   * C. Bannwarth, E. Caldeweyher, S. Ehlert, A. Hansen, P. Pracht,
     J. Seibert, S. Spicher, S. Grimme, WIREs Comput. Mol. Sci., 2020, 11,
     e01493. DOI: 10.1002/wcms.1493
   
   for GFN2-xTB:
   * C. Bannwarth, S. Ehlert and S. Grimme., J. Chem. Theory Comput., 2019,
     15, 1652-1671. DOI: 10.1021/acs.jctc.8b01176
   for GFN1-xTB:
   * S. Grimme, C. Bannwarth, P. Shushkov, J. Chem. Theory Comput., 2017,
     13, 1989-2009. DOI: 10.1021/acs.jctc.7b00118
   for GFN0-xTB:
   * P. Pracht, E. Caldeweyher, S. Ehlert, S. Grimme, ChemRxiv, 2019, preprint.
     DOI: 10.26434/chemrxiv.8326202.v1
   for GFN-FF:
   * S. Spicher and S. Grimme, Angew. Chem. Int. Ed., 2020, 59, 15665-15673.
     DOI: 10.1002/anie.202004239
   
   for ALPB and GBSA implicit solvation:
   * S. Ehlert, M. Stahn, S. Spicher, S. Grimme, J. Chem. Theory Comput.,
     2021, 17, 4250-4261. DOI: 10.1021/acs.jctc.1c00471
   
   for DFT-D4:
   * E. Caldeweyher, C. Bannwarth and S. Grimme, J. Chem. Phys., 2017,
     147, 034112. DOI: 10.1063/1.4993215
   * E. Caldeweyher, S. Ehlert, A. Hansen, H. Neugebauer, S. Spicher,
     C. Bannwarth and S. Grimme, J. Chem. Phys., 2019, 150, 154122.
     DOI: 10.1063/1.5090222
   * E. Caldeweyher, J.-M. Mewes, S. Ehlert and S. Grimme, Phys. Chem. Chem. Phys.
     2020, 22, 8499-8512. DOI: 10.1039/D0CP00502A
   
   for sTDA-xTB:
   * S. Grimme and C. Bannwarth, J. Chem. Phys., 2016, 145, 054103.
     DOI: 10.1063/1.4959605
   
   in the mass-spec context:
   * V. Asgeirsson, C. Bauer and S. Grimme, Chem. Sci., 2017, 8, 4879.
     DOI: 10.1039/c7sc00601b
   * J. Koopman and S. Grimme, ACS Omega 2019, 4, 12, 15120-15133.
     DOI: 10.1021/acsomega.9b02011
   
   for metadynamics refer to:
   * S. Grimme, J. Chem. Theory Comput., 2019, 155, 2847-2862
     DOI: 10.1021/acs.jctc.9b00143
   
   for SPH calculations refer to:
   * S. Spicher and S. Grimme, J. Chem. Theory Comput., 2021, 17, 1701-1714
     DOI: 10.1021/acs.jctc.0c01306
   
   with help from (in alphabetical order)
   P. Atkinson, C. Bannwarth, F. Bohle, G. Brandenburg, E. Caldeweyher
   M. Checinski, S. Dohm, S. Ehlert, S. Ehrlich, I. Gerasimov, C. Hölzer
   A. Katbashev, J. Koopman, C. Lavigne, S. Lehtola, F. März, M. Müller,
   F. Musil, H. Neugebauer, J. Pisarek, C. Plett, P. Pracht, F. Pultar,
   J. Seibert, P. Shushkov, S. Spicher, M. Stahn, M. Steiner, T. Strunk,
   J. Stückrath, T. Rose, and J. Unsleber
   
 * started run on 2024/10/04 at 21:07:34.179     

           -------------------------------------------------
          |                Calculation Setup                |
           -------------------------------------------------

          program call               : /home/abt-grimme/AK-bin/xtb input.xyz --input input.inp --opt
          hostname                   : boar060.thch.uni-bonn.de
          coordinate file            : input.xyz
          omp threads                :                     8

   ID    Z sym.   atoms
    1    6 C      1-146, 294-300, 306, 309-314, 323-468, 616-622, 628,
                  631-636, 645-790, 938-944, 950, 953-958, 967-1112,
                  1260-1266, 1272, 1275-1280, 1289-1434, 1582-1588, 1594,
                  1597-1602, 1611-1756, 1904-1910, 1916, 1919-1924,
                  1933-2078, 2226-2232, 2238, 2241-2246, 2255-2400,
                  2548-2554, 2560, 2563-2568, 2577-2722, 2870-2876, 2882,
                  2885-2890, 2899-3044, 3192-3198, 3204, 3207-3212,
                  3221-3366, 3514-3520, 3526, 3529-3534, 3543-3688,
                  3836-3842, 3848, 3851-3856
    2    1 H      147-293, 301-305, 307, 308, 315-322, 469-615, 623-627, 629,
                  630, 637-644, 791-937, 945-949, 951, 952, 959-966,
                  1113-1259, 1267-1271, 1273, 1274, 1281-1288, 1435-1581,
                  1589-1593, 1595, 1596, 1603-1610, 1757-1903, 1911-1915,
                  1917, 1918, 1925-1932, 2079-2225, 2233-2237, 2239, 2240,
                  2247-2254, 2401-2547, 2555-2559, 2561, 2562, 2569-2576,
                  2723-2869, 2877-2881, 2883, 2884, 2891-2898, 3045-3191,
                  3199-3203, 3205, 3206, 3213-3220, 3367-3513, 3521-3525,
                  3527, 3528, 3535-3542, 3689-3835, 3843-3847, 3849, 3850,
                  3857-3864

molecular fragmentation (1/2 indicates fragments):
111111111111111111111111111111111111111111111111111111111111111111111111
111111111111111111111111111111111111111111111111111111111111111111111111
111111111111111111111111111111111111111111111111111111111111111111111111
111111111111111111111111111111111111111111111111111111111111111111111111
111111111111111111111111111111111122222222222222222222222222222222222222
222222222222222222222222222222222222222222222222222222222222222222222222
222222222222222222222222222222222222222222222222222222222222222222222222
222222222222222222222222222222222222222222222222222222222222222222222222
222222222222222222222222222222222222222222222222222222222222222222222222
222222222222222222222222222222222222222222222222222222222222222222222222
222222222222222222222222222222222222222222222222222222222222222222222222
222222222222222222222222222222222222222222222222222222222222222222222222
222222222222222222222222222222222222222222222222222222222222222222222222
222222222222222222222222222222222222222222222222222222222222222222222222
222222222222222222222222222222222222222222222222222222222222222222222222
222222222222222222222222222222222222222222222222222222222222222222222222
222222222222222222222222222222222222222222222222222222222222222222222222
222222222222222222222222222222222222222222222222222222222222222222222222
222222222222222222222222222222222222222222222222222222222222222222222222
222222222222222222222222222222222222222222222222222222222222222222222222
222222222222222222222222222222222222222222222222222222222222222222222222
222222222222222222222222222222222222222222222222222222222222222222222222
222222222222222222222222222222222222222222222222222222222222222222222222
222222222222222222222222222222222222222222222222222222222222222222222222
222222222222222222222222222222222222222222222222222222222222222222222222
222222222222222222222222222222222222222222222222222222222222222222222222
222222222222222222222222222222222222222222222222222222222222222222222222
222222222222222222222222222222222222222222222222222222222222222222222222
222222222222222222222222222222222222222222222222222222222222222222222222
222222222222222222222222222222222222222222222222222222222222222222222222
222222222222222222222222222222222222222222222222222222222222222222222222
222222222222222222222222222222222222222222222222222222222222222222222222
222222222222222222222222222222222222222222222222222222222222222222222222
222222222222222222222222222222222222222222222222222222222222222222222222
222222222222222222222222222222222222222222222222222222222222222222222222
222222222222222222222222222222222222222222222222222222222222222222222222
222222222222222222222222222222222222222222222222222222222222222222222222
222222222222222222222222222222222222222222222222222222222222222222222222
222222222222222222222222222222222222222222222222222222222222222222222222
222222222222222222222222222222222222222222222222222222222222222222222222
222222222222222222222222222222222222222222222222222222222222222222222222
222222222222222222222222222222222222222222222222222222222222222222222222
222222222222222222222222222222222222222222222222222222222222222222222222
222222222222222222222222222222222222222222222222222222222222222222222222
222222222222222222222222222222222222222222222222222222222222222222222222
222222222222222222222222222222222222222222222222222222222222222222222222
222222222222222222222222222222222222222222222222222222222222222222222222
222222222222222222222222222222222222222222222222222222222222222222222222
222222222222222222222222222222222222222222222222222222222222222222222222
222222222222222222222222222222222222222222222222222222222222222222222222
222222222222222222222222222222222222222222222222222222222222222222222222
222222222222222222222222222222222222222222222222222222222222222222222222
222222222222222222222222222222222222222222222222222222222222222222222222
222222222222222222222222222222222222222222222222
# atoms in fragment 1/2:   322  3542
 fragment masses (1/2) :     2085.00    22935.05
CMA distance (Bohr)    :  27.783
constraining FC (au)   :  0.0500

           -------------------------------------------------
          |                 G F N 2 - x T B                 |
           -------------------------------------------------

        Reference                      10.1021/acs.jctc.8b01176
      * Hamiltonian:
        H0-scaling (s, p, d)           1.850000    2.230000    2.230000
        zeta-weighting                 0.500000
      * Dispersion:
        s8                             2.700000
        a1                             0.520000
        a2                             5.000000
        s9                             5.000000
      * Repulsion:
        kExp                           1.500000    1.000000
        rExp                           1.000000
      * Coulomb:
        alpha                          2.000000
        third order                    shell-resolved
        anisotropic                    true
        a3                             3.000000
        a5                             4.000000
        cn-shift                       1.200000
        cn-exp                         4.000000
        max-rad                        5.000000


          ...................................................
          :                      SETUP                      :
          :.................................................:
          :  # basis functions                9624          :
          :  # atomic orbitals                9624          :
          :  # shells                         5784          :
          :  # electrons                      9624          :
          :  max. iterations                   250          :
          :  Hamiltonian                  GFN2-xTB          :
          :  restarted?                      false          :
          :  GBSA solvation                  false          :
          :  PC potential                    false          :
          :  electronic temp.          300.0000000     K    :
          :  accuracy                    1.0000000          :
          :  -> integral cutoff          0.2500000E+02      :
          :  -> integral neglect         0.1000000E-07      :
          :  -> SCF convergence          0.1000000E-05 Eh   :
          :  -> wf. convergence          0.1000000E-03 e    :
          :  Broyden damping             0.4000000          :
          ...................................................

 iter      E             dE          RMSdq      gap      omega  full diag
   1  -5195.7584358 -0.519576E+04  0.367E+00    4.35       0.0  T
   2  -5198.3267040 -0.256827E+01  0.216E+00    4.30       1.0  T
   3  -5198.2642613  0.624427E-01  0.492E-01    4.13       1.0  T
   4  -5198.4629279 -0.198667E+00  0.240E-01    4.03       1.0  T
   5  -5198.6118642 -0.148936E+00  0.457E-02    4.10       1.0  T
   6  -5198.6136611 -0.179685E-02  0.281E-02    4.09       1.0  T
   7  -5198.6147554 -0.109434E-02  0.109E-02    4.10       1.0  T
   8  -5198.6150709 -0.315467E-03  0.284E-03    4.10       1.0  T
   9  -5198.6150879 -0.170085E-04  0.122E-03    4.10       1.3  T
  10  -5198.6150895 -0.156107E-05  0.528E-04    4.10       3.0  T
  11  -5198.6150897 -0.235324E-06  0.282E-04    4.10       5.7  T
  12  -5198.6150899 -0.181380E-06  0.101E-04    4.10      16.0  T

   *** convergence criteria satisfied after 12 iterations ***

         #    Occupation            Energy/Eh            Energy/eV
      -------------------------------------------------------------
         1        2.0000           -0.6502088             -17.6931
       ...           ...                  ...                  ...
      4806        2.0000           -0.3818883             -10.3917
      4807        2.0000           -0.3814977             -10.3811
      4808        2.0000           -0.3812099             -10.3732
      4809        2.0000           -0.3804883             -10.3536
      4810        2.0000           -0.3802319             -10.3466
      4811        2.0000           -0.3793958             -10.3239
      4812        2.0000           -0.3792682             -10.3204 (HOMO)
      4813                         -0.2286443              -6.2217 (LUMO)
      4814                         -0.2273116              -6.1855
      4815                         -0.2265894              -6.1658
      4816                         -0.2259935              -6.1496
      4817                         -0.2256288              -6.1397
       ...                                ...                  ...
      9624                          0.6840719              18.6145
      -------------------------------------------------------------
                  HL-Gap            0.1506239 Eh            4.0987 eV
             Fermi-level           -0.3039562 Eh           -8.2711 eV

 SCC (total)                   0 d,  0 h, 47 min, 43.320 sec
 SCC setup                      ...        0 min,  0.747 sec (  0.026%)
 Dispersion                     ...        0 min,  6.807 sec (  0.238%)
 classical contributions        ...        0 min,  0.147 sec (  0.005%)
 integral evaluation            ...        0 min, 11.993 sec (  0.419%)
 iterations                     ...       42 min, 15.311 sec ( 88.544%)
 molecular gradient             ...        4 min, 41.409 sec (  9.828%)
 printout                       ...        0 min, 26.906 sec (  0.940%)

         :::::::::::::::::::::::::::::::::::::::::::::::::::::
         ::                     SUMMARY                     ::
         :::::::::::::::::::::::::::::::::::::::::::::::::::::
         :: total energy           -5104.074188257477 Eh    ::
         :: gradient norm              0.021210120928 Eh/a0 ::
         :: HOMO-LUMO gap              4.098686001813 eV    ::
         ::.................................................::
         :: SCC energy             -5198.615089887202 Eh    ::
         :: -> isotropic ES            0.264378754895 Eh    ::
         :: -> anisotropic ES          0.798780536832 Eh    ::
         :: -> anisotropic XC          3.251515000541 Eh    ::
         :: -> dispersion             -7.033864063105 Eh    ::
         :: repulsion energy          93.388433743842 Eh    ::
         :: add. restraining           0.000000000000 Eh    ::
         :: total charge              -0.000000000030 e     ::
         :::::::::::::::::::::::::::::::::::::::::::::::::::::

      ----------------------------------------------------------- 
     |              Fast Inertial Relaxation Engine              |
      ----------------------------------------------------------- 

          ...................................................
          :                      SETUP                      :
          :.................................................:
          :   energy convergence        0.5000000E-05 Eh    :
          :   grad. convergence         0.1000000E-02 Eh/a0 :
          :   optimization log               true           :
          :   writing optlog all                1     steps :
          :   Hessian reset                    20     steps :
          :   time step scaling                 5     steps :
          :   maximium step len.        1.0000000     a0    :
          :   initial time step         0.2500000     fs    :
          :   maximum time step         1.2500000     fs    :
          :   power reset thr           0.0000000     au    :
          :   alpha parameter           0.1000000           :
          :   BFGS update                   false           :
          :   preconditioning               false           :
          ...................................................

........................................................................
.............................. CYCLE    1 ..............................
........................................................................

 iter      E             dE          RMSdq      gap      omega  full diag
   1  -5198.6162673 -0.519862E+04  0.295E-04    4.10       0.0  T
   2  -5198.6162673 -0.139398E-07  0.182E-04    4.10       8.8  T
   3  -5198.6162673  0.275622E-07  0.808E-05    4.10      19.9  T
     SCC iter.                  ...       10 min, 36.806 sec
     gradient                   ...        4 min, 40.582 sec
 * total energy  : -5104.0742393 Eh     change    :  -0.5102804E-04 Eh
   gradient norm :     0.0198480 Eh/a0  converged?    E=F G=F D=F
   time step     :     0.2500000 fs     power     :   0.2616524E-08
   step length   :     0.0024858 a0     speed     :   0.2405127E-03

........................................................................
.............................. CYCLE    2 ..............................
........................................................................

 iter      E             dE          RMSdq      gap      omega  full diag
   1  -5198.6180123 -0.519862E+04  0.433E-04    4.10       0.0  T
   2  -5198.6180124 -0.264909E-07  0.265E-04    4.10       6.1  T
   3  -5198.6180123  0.386253E-07  0.973E-05    4.10      16.5  T
     SCC iter.                  ...       10 min, 36.059 sec
     gradient                   ...        4 min, 42.009 sec
 * total energy  : -5104.0743080 Eh     change    :  -0.6871555E-04 Eh
   gradient norm :     0.0179249 Eh/a0  converged?    E=F G=F D=F
   time step     :     0.2500000 fs     power     :   0.3455537E-08
   step length   :     0.0036481 a0     speed     :   0.3529748E-03

........................................................................
.............................. CYCLE    3 ..............................
........................................................................

 iter      E             dE          RMSdq      gap      omega  full diag
   1  -5198.6203092 -0.519862E+04  0.556E-04    4.10       0.0  T
   2  -5198.6203092 -0.409955E-07  0.340E-04    4.10       4.7  T
   3  -5198.6203092  0.571281E-07  0.116E-04    4.10      13.8  T
     SCC iter.                  ...       10 min, 39.452 sec
     gradient                   ...        4 min, 39.969 sec
 * total energy  : -5104.0743862 Eh     change    :  -0.7816261E-04 Eh
   gradient norm :     0.0156332 Eh/a0  converged?    E=F G=F D=F
   time step     :     0.2500000 fs     power     :   0.3837616E-08
   step length   :     0.0046941 a0     speed     :   0.4541814E-03

........................................................................
.............................. CYCLE    4 ..............................
........................................................................

 iter      E             dE          RMSdq      gap      omega  full diag
   1  -5198.6231419 -0.519862E+04  0.662E-04    4.10       0.0  T
   2  -5198.6231419 -0.542423E-07  0.406E-04    4.10       4.0  T
   3  -5198.6231418  0.864729E-07  0.138E-04    4.10      11.7  T
     SCC iter.                  ...       10 min, 38.059 sec
     gradient                   ...        4 min, 39.506 sec
 * total energy  : -5104.0744649 Eh     change    :  -0.7877337E-04 Eh
   gradient norm :     0.0132340 Eh/a0  converged?    E=F G=F D=F
   time step     :     0.2500000 fs     power     :   0.3768703E-08
   step length   :     0.0055948 a0     speed     :   0.5413264E-03

........................................................................
.............................. CYCLE    5 ..............................
........................................................................

 iter      E             dE          RMSdq      gap      omega  full diag
   1  -5198.6264918 -0.519863E+04  0.747E-04    4.10       0.0  T
   2  -5198.6264919 -0.637247E-07  0.461E-04    4.10       3.5  T
   3  -5198.6264918  0.126503E-06  0.160E-04    4.10      10.0  T
     SCC iter.                  ...       10 min, 35.619 sec
     gradient                   ...        4 min, 40.525 sec
 * total energy  : -5104.0745370 Eh     change    :  -0.7207836E-04 Eh
   gradient norm :     0.0110596 Eh/a0  converged?    E=F G=F D=F
   time step     :     0.2500000 fs     power     :   0.3338575E-08
   step length   :     0.0063268 a0     speed     :   0.6121559E-03

........................................................................
.............................. CYCLE    6 ..............................
........................................................................

 iter      E             dE          RMSdq      gap      omega  full diag
   1  -5198.6307567 -0.519863E+04  0.895E-04    4.10       0.0  T
   2  -5198.6307567 -0.850314E-07  0.557E-04    4.10       2.9  T
   3  -5198.6307565  0.241489E-06  0.213E-04    4.10       7.6  T
     SCC iter.                  ...       10 min, 36.391 sec
     gradient                   ...        4 min, 40.434 sec
 * total energy  : -5104.0746033 Eh     change    :  -0.6630466E-04 Eh
   gradient norm :     0.0093260 Eh/a0  converged?    E=F G=F D=F
   time step     :     0.2750000 fs     power     :   0.2621316E-08
   step length   :     0.0076217 a0     speed     :   0.6704027E-03

........................................................................
.............................. CYCLE    7 ..............................
........................................................................

 iter      E             dE          RMSdq      gap      omega  full diag
   1  -5198.6360273 -0.519864E+04  0.103E-03    4.10       0.0  T
   2  -5198.6360274 -0.102546E-06  0.651E-04    4.10       2.5  T
   3  -5198.6360270  0.417530E-06  0.273E-04    4.10       5.9  T
     SCC iter.                  ...       10 min, 36.564 sec
     gradient                   ...        4 min, 41.346 sec
 * total energy  : -5104.0746579 Eh     change    :  -0.5456659E-04 Eh
   gradient norm :     0.0084461 Eh/a0  converged?    E=F G=F D=F
   time step     :     0.3025000 fs     power     :   0.1786137E-08
   step length   :     0.0088623 a0     speed     :   0.7086592E-03

........................................................................
.............................. CYCLE    8 ..............................
........................................................................

 iter      E             dE          RMSdq      gap      omega  full diag
   1  -5198.6422391 -0.519864E+04  0.115E-03    4.10       0.0  T
   2  -5198.6422392 -0.117747E-06  0.728E-04    4.10       2.2  T
   3  -5198.6422386  0.618821E-06  0.332E-04    4.10       4.8  T
     SCC iter.                  ...       10 min, 37.303 sec
     gradient                   ...        4 min, 40.183 sec
 * total energy  : -5104.0746984 Eh     change    :  -0.4055023E-04 Eh
   gradient norm :     0.0082570 Eh/a0  converged?    E=F G=F D=F
   time step     :     0.3327500 fs     power     :   0.1043758E-08
   step length   :     0.0099098 a0     speed     :   0.7203804E-03

........................................................................
.............................. CYCLE    9 ..............................
........................................................................

 iter      E             dE          RMSdq      gap      omega  full diag
   1  -5198.6491034 -0.519865E+04  0.122E-03    4.10       0.0  T
   2  -5198.6491036 -0.135465E-06  0.781E-04    4.10       2.1  T
   3  -5198.6491028  0.726580E-06  0.370E-04    4.10       4.3  T
     SCC iter.                  ...       10 min, 34.324 sec
     gradient                   ...        4 min, 41.836 sec
 * total energy  : -5104.0747265 Eh     change    :  -0.2804821E-04 Eh
   gradient norm :     0.0081472 Eh/a0  converged?    E=F G=F D=F
   time step     :     0.3660250 fs     power     :   0.4902645E-09
   step length   :     0.0106989 a0     speed     :   0.7070385E-03

........................................................................
.............................. CYCLE   10 ..............................
........................................................................

 iter      E             dE          RMSdq      gap      omega  full diag
   1  -5198.6561171 -0.519866E+04  0.127E-03    4.10       0.0  T
   2  -5198.6561173 -0.154814E-06  0.802E-04    4.10       2.0  T
   3  -5198.6561166  0.694891E-06  0.378E-04    4.10       4.3  T
     SCC iter.                  ...       10 min, 36.185 sec
     gradient                   ...        4 min, 41.445 sec
 * total energy  : -5104.0747437 Eh     change    :  -0.1717099E-04 Eh
   gradient norm :     0.0078969 Eh/a0  converged?    E=F G=F D=F
   time step     :     0.4026275 fs     power     :   0.7243856E-10
   step length   :     0.0112518 a0     speed     :   0.6759808E-03

........................................................................
.............................. CYCLE   11 ..............................
........................................................................

 iter      E             dE          RMSdq      gap      omega  full diag
   1  -5198.6625613 -0.519866E+04  0.128E-03    4.10       0.0  T
   2  -5198.6625614 -0.161038E-06  0.789E-04    4.10       2.0  T
   3  -5198.6625609  0.539126E-06  0.346E-04    4.10       4.7  T
     SCC iter.                  ...       10 min, 40.412 sec
     gradient                   ...        4 min, 41.593 sec
 * total energy  : -5104.0747509 Eh     change    :  -0.7231632E-05 Eh
   gradient norm :     0.0079355 Eh/a0  converged?    E=F G=F D=F
   time step     :     0.4428903 fs     power     :  -0.2533200E-09
   step length   :     0.0115676 a0     speed     :   0.6317750E-03

........................................................................
.............................. CYCLE   12 ..............................
........................................................................
 * reset velocities

 iter      E             dE          RMSdq      gap      omega  full diag
   1  -5198.6623893 -0.519866E+04  0.575E-05    4.10       0.0  T
   2  -5198.6623893 -0.481123E-08  0.506E-05    4.10      31.8  T
   3  -5198.6623894 -0.105501E-07  0.185E-05    4.10      86.9  T
     SCC iter.                  ...       10 min, 36.734 sec
     gradient                   ...        4 min, 41.925 sec
 * total energy  : -5104.0747544 Eh     change    :  -0.3529436E-05 Eh
   gradient norm :     0.0077957 Eh/a0  converged?    E=T G=F D=T
   time step     :     0.2214451 fs     power     :   0.1704198E-09
   step length   :     0.0003649 a0     speed     :   0.3985356E-04

........................................................................
.............................. CYCLE   13 ..............................
........................................................................

 iter      E             dE          RMSdq      gap      omega  full diag
   1  -5198.6620374 -0.519866E+04  0.709E-05    4.10       0.0  T
   2  -5198.6620374 -0.110867E-08  0.493E-05    4.10      32.6  T
   3  -5198.6620374  0.214004E-08  0.216E-05    4.10      74.4  T
     SCC iter.                  ...       10 min, 36.616 sec
     gradient                   ...        4 min, 40.855 sec
 * total energy  : -5104.0747599 Eh     change    :  -0.5519684E-05 Eh
   gradient norm :     0.0074804 Eh/a0  converged?    E=F G=F D=T
   time step     :     0.2214451 fs     power     :   0.3240844E-09
   step length   :     0.0007233 a0     speed     :   0.7900299E-04

........................................................................
.............................. CYCLE   14 ..............................
........................................................................

 iter      E             dE          RMSdq      gap      omega  full diag
   1  -5198.6615093 -0.519866E+04  0.102E-04    4.10       0.0  T
   2  -5198.6615093 -0.240107E-08  0.713E-05    4.10      22.5  T
   3  -5198.6615093  0.417367E-08  0.311E-05    4.10      51.7  T
     SCC iter.                  ...       10 min, 35.770 sec
     gradient                   ...        4 min, 41.036 sec
 * total energy  : -5104.0747677 Eh     change    :  -0.7729512E-05 Eh
   gradient norm :     0.0070237 Eh/a0  converged?    E=F G=F D=F
   time step     :     0.2214451 fs     power     :   0.4485485E-09
   step length   :     0.0010671 a0     speed     :   0.1165612E-03

........................................................................
.............................. CYCLE   15 ..............................
........................................................................

 iter      E             dE          RMSdq      gap      omega  full diag
   1  -5198.6608114 -0.519866E+04  0.132E-04    4.10       0.0  T
   2  -5198.6608114 -0.381988E-08  0.925E-05    4.10      17.4  T
   3  -5198.6608113  0.701311E-08  0.400E-05    4.10      40.2  T
     SCC iter.                  ...       10 min, 37.024 sec
     gradient                   ...        4 min, 40.416 sec
 * total energy  : -5104.0747770 Eh     change    :  -0.9323698E-05 Eh
   gradient norm :     0.0064469 Eh/a0  converged?    E=F G=F D=F
   time step     :     0.2214451 fs     power     :   0.5348924E-09
   step length   :     0.0013897 a0     speed     :   0.1517944E-03

........................................................................
.............................. CYCLE   16 ..............................
........................................................................

 iter      E             dE          RMSdq      gap      omega  full diag
   1  -5198.6599513 -0.519866E+04  0.159E-04    4.10       0.0  T
   2  -5198.6599513 -0.549517E-08  0.111E-04    4.10      14.4  T
   3  -5198.6599513  0.106711E-07  0.481E-05    4.10      33.4  T
     SCC iter.                  ...       10 min, 38.081 sec
     gradient                   ...        4 min, 40.291 sec
 * total energy  : -5104.0747872 Eh     change    :  -0.1020835E-04 Eh
   gradient norm :     0.0057796 Eh/a0  converged?    E=F G=F D=F
   time step     :     0.2214451 fs     power     :   0.5782531E-09
   step length   :     0.0016849 a0     speed     :   0.1840436E-03

........................................................................
.............................. CYCLE   17 ..............................
........................................................................

 iter      E             dE          RMSdq      gap      omega  full diag
   1  -5198.6589386 -0.519866E+04  0.183E-04    4.10       0.0  T
   2  -5198.6589386 -0.709770E-08  0.128E-04    4.10      12.6  T
   3  -5198.6589386  0.147129E-07  0.552E-05    4.10      29.1  T
     SCC iter.                  ...       10 min, 39.051 sec
     gradient                   ...        4 min, 41.721 sec
 * total energy  : -5104.0747976 Eh     change    :  -0.1039853E-04 Eh
   gradient norm :     0.0050611 Eh/a0  converged?    E=F G=F D=F
   time step     :     0.2214451 fs     power     :   0.5784155E-09
   step length   :     0.0019476 a0     speed     :   0.2127364E-03

........................................................................
.............................. CYCLE   18 ..............................
........................................................................

 iter      E             dE          RMSdq      gap      omega  full diag
   1  -5198.6576548 -0.519866E+04  0.223E-04    4.10       0.0  T
   2  -5198.6576548 -0.102491E-07  0.157E-04    4.10      10.3  T
   3  -5198.6576548  0.231803E-07  0.683E-05    4.10      23.6  T
     SCC iter.                  ...       10 min, 36.337 sec
     gradient                   ...        4 min, 39.678 sec
 * total energy  : -5104.0748085 Eh     change    :  -0.1090251E-04 Eh
   gradient norm :     0.0042700 Eh/a0  converged?    E=F G=F D=F
   time step     :     0.2435896 fs     power     :   0.5337872E-09
   step length   :     0.0024157 a0     speed     :   0.2398835E-03

........................................................................
.............................. CYCLE   19 ..............................
........................................................................

 iter      E             dE          RMSdq      gap      omega  full diag
   1  -5198.6560612 -0.519866E+04  0.265E-04    4.10       0.0  T
   2  -5198.6560612 -0.135296E-07  0.187E-04    4.10       8.6  T
   3  -5198.6560612  0.348837E-07  0.817E-05    4.10      19.7  T
     SCC iter.                  ...       10 min, 38.432 sec
     gradient                   ...        4 min, 40.605 sec
 * total energy  : -5104.0748190 Eh     change    :  -0.1045572E-04 Eh
   gradient norm :     0.0035076 Eh/a0  converged?    E=F G=F D=F
   time step     :     0.2679486 fs     power     :   0.4435875E-09
   step length   :     0.0029222 a0     speed     :   0.2638015E-03

........................................................................
.............................. CYCLE   20 ..............................
........................................................................

 iter      E             dE          RMSdq      gap      omega  full diag
   1  -5198.6541341 -0.519865E+04  0.302E-04    4.10       0.0  T
   2  -5198.6541341 -0.163463E-07  0.213E-04    4.10       7.5  T
   3  -5198.6541340  0.499695E-07  0.945E-05    4.10      17.0  T
     SCC iter.                  ...       10 min, 37.725 sec
     gradient                   ...        4 min, 40.116 sec
 * total energy  : -5104.0748280 Eh     change    :  -0.8998083E-05 Eh
   gradient norm :     0.0029742 Eh/a0  converged?    E=F G=F D=F
   time step     :     0.2947435 fs     power     :   0.3202332E-09
   step length   :     0.0034368 a0     speed     :   0.2820502E-03
 * RMSD in coord.:     0.0011427 a0     energy gain  -0.6396958E-03 Eh

........................................................................
.............................. CYCLE   21 ..............................
........................................................................

 iter      E             dE          RMSdq      gap      omega  full diag
   1  -5198.6524347 -0.519865E+04  0.253E-04    4.10       0.0  T
   2  -5198.6524347 -0.935415E-08  0.176E-04    4.10       9.1  T
   3  -5198.6524346  0.371901E-07  0.784E-05    4.10      20.5  T
     SCC iter.                  ...       10 min, 36.873 sec
     gradient                   ...        4 min, 41.080 sec
 * total energy  : -5104.0748335 Eh     change    :  -0.5544606E-05 Eh
   gradient norm :     0.0028554 Eh/a0  converged?    E=F G=F D=F
   time step     :     0.2500000 fs     power     :   0.2286251E-09
   step length   :     0.0029666 a0     speed     :   0.2870372E-03

........................................................................
.............................. CYCLE   22 ..............................
........................................................................

 iter      E             dE          RMSdq      gap      omega  full diag
   1  -5198.6507494 -0.519865E+04  0.237E-04    4.10       0.0  T
   2  -5198.6507494 -0.707860E-08  0.164E-04    4.10       9.8  T
   3  -5198.6507494  0.353184E-07  0.751E-05    4.10      21.4  T
     SCC iter.                  ...       10 min, 36.585 sec
     gradient                   ...        4 min, 40.013 sec
 * total energy  : -5104.0748377 Eh     change    :  -0.4193046E-05 Eh
   gradient norm :     0.0029648 Eh/a0  converged?    E=T G=F D=F
   time step     :     0.2500000 fs     power     :   0.1686520E-09
   step length   :     0.0029332 a0     speed     :   0.2838058E-03

........................................................................
.............................. CYCLE   23 ..............................
........................................................................

 iter      E             dE          RMSdq      gap      omega  full diag
   1  -5198.6491557 -0.519865E+04  0.220E-04    4.10       0.0  T
   2  -5198.6491557 -0.478121E-08  0.148E-04    4.10      10.8  T
   3  -5198.6491557  0.284999E-07  0.671E-05    4.10      24.0  T
     SCC iter.                  ...       10 min, 37.684 sec
     gradient                   ...        4 min, 41.228 sec
 * total energy  : -5104.0748411 Eh     change    :  -0.3440528E-05 Eh
   gradient norm :     0.0031163 Eh/a0  converged?    E=T G=F D=F
   time step     :     0.2500000 fs     power     :   0.1448806E-09
   step length   :     0.0028440 a0     speed     :   0.2751708E-03

........................................................................
.............................. CYCLE   24 ..............................
........................................................................

 iter      E             dE          RMSdq      gap      omega  full diag
   1  -5198.6477128 -0.519865E+04  0.204E-04    4.10       0.0  T
   2  -5198.6477128 -0.308228E-08  0.132E-04    4.10      12.1  T
   3  -5198.6477128  0.172286E-07  0.532E-05    4.10      30.2  T
     SCC iter.                  ...       10 min, 36.168 sec
     gradient                   ...        4 min, 42.135 sec
 * total energy  : -5104.0748445 Eh     change    :  -0.3352950E-05 Eh
   gradient norm :     0.0032479 Eh/a0  converged?    E=T G=F D=F
   time step     :     0.2500000 fs     power     :   0.1501937E-09
   step length   :     0.0027397 a0     speed     :   0.2650794E-03

........................................................................
.............................. CYCLE   25 ..............................
........................................................................

 iter      E             dE          RMSdq      gap      omega  full diag
   1  -5198.6464588 -0.519865E+04  0.194E-04    4.10       0.0  T
   2  -5198.6464588 -0.195178E-08  0.120E-04    4.10      13.4  T
   3  -5198.6464588  0.562159E-08  0.330E-05    4.10      48.7  T
     SCC iter.                  ...       10 min, 35.740 sec
     gradient                   ...        4 min, 40.974 sec
 * total energy  : -5104.0748482 Eh     change    :  -0.3671305E-05 Eh
   gradient norm :     0.0033037 Eh/a0  converged?    E=T G=F D=F
   time step     :     0.2500000 fs     power     :   0.1731550E-09
   step length   :     0.0026502 a0     speed     :   0.2564189E-03

........................................................................
.............................. CYCLE   26 ..............................
........................................................................

 iter      E             dE          RMSdq      gap      omega  full diag
   1  -5198.6453143 -0.519865E+04  0.209E-04    4.10       0.0  T
   2  -5198.6453143 -0.178443E-08  0.125E-04    4.10      12.9  T
   3  -5198.6453143  0.128512E-08  0.216E-05    4.10      74.3  T
     SCC iter.                  ...       10 min, 37.083 sec
     gradient                   ...        4 min, 40.620 sec
 * total energy  : -5104.0748527 Eh     change    :  -0.4577460E-05 Eh
   gradient norm :     0.0032649 Eh/a0  converged?    E=T G=F D=F
   time step     :     0.2750000 fs     power     :   0.2023216E-09
   step length   :     0.0028615 a0     speed     :   0.2516942E-03

........................................................................
.............................. CYCLE   27 ..............................
........................................................................

 iter      E             dE          RMSdq      gap      omega  full diag
   1  -5198.6443348 -0.519864E+04  0.231E-04    4.10       0.0  T
   2  -5198.6443348 -0.209820E-08  0.137E-04    4.10      11.8  T
   3  -5198.6443348  0.291948E-08  0.286E-05    4.10      56.2  T
     SCC iter.                  ...       10 min, 36.279 sec
     gradient                   ...        4 min, 39.661 sec
 * total energy  : -5104.0748584 Eh     change    :  -0.5635697E-05 Eh
   gradient norm :     0.0031284 Eh/a0  converged?    E=F G=F D=F
   time step     :     0.3025000 fs     power     :   0.2290538E-09
   step length   :     0.0031463 a0     speed     :   0.2515909E-03

........................................................................
.............................. CYCLE   28 ..............................
........................................................................

 iter      E             dE          RMSdq      gap      omega  full diag
   1  -5198.6435806 -0.519864E+04  0.263E-04    4.10       0.0  T
   2  -5198.6435806 -0.288856E-08  0.156E-04    4.10      10.3  T
   3  -5198.6435806  0.103028E-07  0.474E-05    4.10      33.9  T
     SCC iter.                  ...       10 min, 34.456 sec
     gradient                   ...        4 min, 40.653 sec
 * total energy  : -5104.0748651 Eh     change    :  -0.6691655E-05 Eh
   gradient norm :     0.0029079 Eh/a0  converged?    E=F G=F D=F
   time step     :     0.3327500 fs     power     :   0.2456307E-09
   step length   :     0.0035193 a0     speed     :   0.2558307E-03

........................................................................
.............................. CYCLE   29 ..............................
........................................................................

 iter      E             dE          RMSdq      gap      omega  full diag
   1  -5198.6431154 -0.519864E+04  0.303E-04    4.10       0.0  T
   2  -5198.6431154 -0.449199E-08  0.182E-04    4.10       8.8  T
   3  -5198.6431154  0.266818E-07  0.734E-05    4.10      21.9  T
     SCC iter.                  ...       10 min, 39.729 sec
     gradient                   ...        4 min, 40.502 sec
 * total energy  : -5104.0748726 Eh     change    :  -0.7498071E-05 Eh
   gradient norm :     0.0026413 Eh/a0  converged?    E=F G=F D=F
   time step     :     0.3660250 fs     power     :   0.2469676E-09
   step length   :     0.0039857 a0     speed     :   0.2633950E-03

........................................................................
.............................. CYCLE   30 ..............................
........................................................................

 iter      E             dE          RMSdq      gap      omega  full diag
   1  -5198.6429981 -0.519864E+04  0.344E-04    4.10       0.0  T
   2  -5198.6429981 -0.654290E-08  0.210E-04    4.10       7.7  T
   3  -5198.6429980  0.464970E-07  0.957E-05    4.10      16.8  T
     SCC iter.                  ...       10 min, 36.667 sec
     gradient                   ...        4 min, 43.171 sec
 * total energy  : -5104.0748805 Eh     change    :  -0.7973514E-05 Eh
   gradient norm :     0.0023903 Eh/a0  converged?    E=F G=F D=F
   time step     :     0.4026275 fs     power     :   0.2324220E-09
   step length   :     0.0045390 a0     speed     :   0.2726889E-03

........................................................................
.............................. CYCLE   31 ..............................
........................................................................

 iter      E             dE          RMSdq      gap      omega  full diag
   1  -5198.6432659 -0.519864E+04  0.382E-04    4.10       0.0  T
   2  -5198.6432659 -0.779073E-08  0.235E-04    4.10       6.9  T
   3  -5198.6432658  0.618056E-07  0.109E-04    4.10      14.7  T
     SCC iter.                  ...       10 min, 38.792 sec
     gradient                   ...        4 min, 43.470 sec
 * total energy  : -5104.0748886 Eh     change    :  -0.8061130E-05 Eh
   gradient norm :     0.0022209 Eh/a0  converged?    E=F G=F D=F
   time step     :     0.4428903 fs     power     :   0.2072752E-09
   step length   :     0.0051594 a0     speed     :   0.2817860E-03

........................................................................
.............................. CYCLE   32 ..............................
........................................................................

 iter      E             dE          RMSdq      gap      omega  full diag
   1  -5198.6439085 -0.519864E+04  0.409E-04    4.10       0.0  T
   2  -5198.6439085 -0.821910E-08  0.250E-04    4.10       6.4  T
   3  -5198.6439084  0.628561E-07  0.109E-04    4.10      14.8  T
     SCC iter.                  ...       10 min, 36.628 sec
     gradient                   ...        4 min, 42.034 sec
 * total energy  : -5104.0748965 Eh     change    :  -0.7876942E-05 Eh
   gradient norm :     0.0021587 Eh/a0  converged?    E=F G=F D=F
   time step     :     0.4871793 fs     power     :   0.1812432E-09
   step length   :     0.0058201 a0     speed     :   0.2889706E-03

........................................................................
.............................. CYCLE   33 ..............................
........................................................................

 iter      E             dE          RMSdq      gap      omega  full diag
   1  -5198.6448526 -0.519864E+04  0.421E-04    4.10       0.0  T
   2  -5198.6448526 -0.817090E-08  0.253E-04    4.10       6.3  T
   3  -5198.6448526  0.405907E-07  0.874E-05    4.10      18.4  T
     SCC iter.                  ...       10 min, 36.126 sec
     gradient                   ...        4 min, 42.528 sec
 * total energy  : -5104.0749044 Eh     change    :  -0.7888815E-05 Eh
   gradient norm :     0.0021805 Eh/a0  converged?    E=F G=F D=F
   time step     :     0.5358972 fs     power     :   0.1637098E-09
   step length   :     0.0065064 a0     speed     :   0.2936809E-03

........................................................................
.............................. CYCLE   34 ..............................
........................................................................

 iter      E             dE          RMSdq      gap      omega  full diag
   1  -5198.6459697 -0.519865E+04  0.417E-04    4.10       0.0  T
   2  -5198.6459697 -0.793625E-08  0.249E-04    4.10       6.5  T
   3  -5198.6459697  0.916589E-08  0.483E-05    4.10      33.3  T
     SCC iter.                  ...       10 min, 35.993 sec
     gradient                   ...        4 min, 39.902 sec
 * total energy  : -5104.0749128 Eh     change    :  -0.8446770E-05 Eh
   gradient norm :     0.0022435 Eh/a0  converged?    E=F G=F D=F
   time step     :     0.5894869 fs     power     :   0.1607282E-09
   step length   :     0.0072378 a0     speed     :   0.2969950E-03

........................................................................
.............................. CYCLE   35 ..............................
........................................................................

 iter      E             dE          RMSdq      gap      omega  full diag
   1  -5198.6470977 -0.519865E+04  0.404E-04    4.10       0.0  T
   2  -5198.6470977 -0.690761E-08  0.244E-04    4.10       6.6  T
   3  -5198.6470977  0.122091E-07  0.518E-05    4.10      31.0  T
     SCC iter.                  ...       10 min, 36.455 sec
     gradient                   ...        4 min, 42.032 sec
 * total energy  : -5104.0749224 Eh     change    :  -0.9578339E-05 Eh
   gradient norm :     0.0022562 Eh/a0  converged?    E=F G=F D=F
   time step     :     0.6484356 fs     power     :   0.1727384E-09
   step length   :     0.0080738 a0     speed     :   0.3011819E-03

........................................................................
.............................. CYCLE   36 ..............................
........................................................................

 iter      E             dE          RMSdq      gap      omega  full diag
   1  -5198.6480549 -0.519865E+04  0.398E-04    4.10       0.0  T
   2  -5198.6480549 -0.628461E-08  0.245E-04    4.10       6.6  T
   3  -5198.6480549  0.228410E-07  0.655E-05    4.10      24.6  T
     SCC iter.                  ...       10 min, 36.439 sec
     gradient                   ...        4 min, 40.480 sec
 * total energy  : -5104.0749338 Eh     change    :  -0.1138929E-04 Eh
   gradient norm :     0.0021328 Eh/a0  converged?    E=F G=F D=F
   time step     :     0.7132792 fs     power     :   0.1882424E-09
   step length   :     0.0091026 a0     speed     :   0.3086887E-03

........................................................................
.............................. CYCLE   37 ..............................
........................................................................

 iter      E             dE          RMSdq      gap      omega  full diag
   1  -5198.6486436 -0.519865E+04  0.405E-04    4.10       0.0  T
   2  -5198.6486436 -0.883938E-08  0.256E-04    4.10       6.3  T
   3  -5198.6486435  0.523614E-07  0.940E-05    4.10      17.1  T
     SCC iter.                  ...       10 min, 37.871 sec
     gradient                   ...        4 min, 39.278 sec
 * total energy  : -5104.0749468 Eh     change    :  -0.1299220E-04 Eh
   gradient norm :     0.0020356 Eh/a0  converged?    E=F G=F D=F
   time step     :     0.7846071 fs     power     :   0.1927730E-09
   step length   :     0.0103852 a0     speed     :   0.3201673E-03

........................................................................
.............................. CYCLE   38 ..............................
........................................................................

 iter      E             dE          RMSdq      gap      omega  full diag
   1  -5198.6486766 -0.519865E+04  0.431E-04    4.10       0.0  T
   2  -5198.6486767 -0.112632E-07  0.268E-04    4.10       6.0  T
   3  -5198.6486766  0.454829E-07  0.909E-05    4.10      17.7  T
     SCC iter.                  ...       10 min, 35.922 sec
     gradient                   ...        4 min, 42.494 sec
 * total energy  : -5104.0749614 Eh     change    :  -0.1467647E-04 Eh
   gradient norm :     0.0021454 Eh/a0  converged?    E=F G=F D=F
   time step     :     0.8630678 fs     power     :   0.2017129E-09
   step length   :     0.0119015 a0     speed     :   0.3335587E-03

........................................................................
.............................. CYCLE   39 ..............................
........................................................................

 iter      E             dE          RMSdq      gap      omega  full diag
   1  -5198.6481824 -0.519865E+04  0.495E-04    4.10       0.0  T
   2  -5198.6481824 -0.114087E-07  0.298E-04    4.10       5.4  T
   3  -5198.6481823  0.189975E-07  0.661E-05    4.10      24.4  T
     SCC iter.                  ...       10 min, 36.598 sec
     gradient                   ...        4 min, 39.771 sec
 * total energy  : -5104.0749796 Eh     change    :  -0.1815148E-04 Eh
   gradient norm :     0.0021033 Eh/a0  converged?    E=F G=F D=F
   time step     :     0.9493746 fs     power     :   0.2327431E-09
   step length   :     0.0137023 a0     speed     :   0.3491179E-03

........................................................................
.............................. CYCLE   40 ..............................
........................................................................

 iter      E             dE          RMSdq      gap      omega  full diag
   1  -5198.6476396 -0.519865E+04  0.573E-04    4.10       0.0  T
   2  -5198.6476396 -0.151304E-07  0.347E-04    4.10       4.6  T
   3  -5198.6476395  0.388882E-07  0.885E-05    4.10      18.2  T
     SCC iter.                  ...       10 min, 34.693 sec
     gradient                   ...        4 min, 41.285 sec
 * total energy  : -5104.0750014 Eh     change    :  -0.2175708E-04 Eh
   gradient norm :     0.0018576 Eh/a0  converged?    E=F G=F D=F
   time step     :     1.0443120 fs     power     :   0.2489726E-09
   step length   :     0.0160133 a0     speed     :   0.3709078E-03

........................................................................
.............................. CYCLE   41 ..............................
........................................................................

 iter      E             dE          RMSdq      gap      omega  full diag
   1  -5198.6480369 -0.519865E+04  0.607E-04    4.10       0.0  T
   2  -5198.6480369 -0.164482E-07  0.372E-04    4.10       4.3  T
   3  -5198.6480369  0.540895E-07  0.103E-04    4.10      15.6  T
     SCC iter.                  ...       10 min, 33.620 sec
     gradient                   ...        4 min, 41.714 sec
 * total energy  : -5104.0750252 Eh     change    :  -0.2385483E-04 Eh
   gradient norm :     0.0019641 Eh/a0  converged?    E=F G=F D=F
   time step     :     1.1487432 fs     power     :   0.2428430E-09
   step length   :     0.0188314 a0     speed     :   0.3965278E-03

........................................................................
.............................. CYCLE   42 ..............................
........................................................................

 iter      E             dE          RMSdq      gap      omega  full diag
   1  -5198.6497755 -0.519865E+04  0.655E-04    4.10       0.0  T
   2  -5198.6497755 -0.119171E-07  0.389E-04    4.10       4.1  T
   3  -5198.6497755  0.136342E-07  0.611E-05    4.10      26.3  T
     SCC iter.                  ...       10 min, 35.175 sec
     gradient                   ...        4 min, 42.176 sec
 * total energy  : -5104.0750535 Eh     change    :  -0.2825564E-04 Eh
   gradient norm :     0.0020342 Eh/a0  converged?    E=F G=F D=F
   time step     :     1.2500000 fs     power     :   0.2802333E-09
   step length   :     0.0217094 a0     speed     :   0.4200993E-03
 * RMSD in coord.:     0.0023779 a0     energy gain  -0.2255078E-03 Eh

........................................................................
.............................. CYCLE   43 ..............................
........................................................................

 iter      E             dE          RMSdq      gap      omega  full diag
   1  -5198.6501007 -0.519865E+04  0.129E-04    4.10       0.0  T
   2  -5198.6501007 -0.640284E-09  0.758E-05    4.10      21.2  T
   3  -5198.6501007  0.168711E-08  0.196E-05    4.10      82.1  T
     SCC iter.                  ...       10 min, 37.719 sec
     gradient                   ...        4 min, 42.074 sec
 * total energy  : -5104.0750593 Eh     change    :  -0.5844799E-05 Eh
   gradient norm :     0.0019670 Eh/a0  converged?    E=F G=F D=F
   time step     :     0.2500000 fs     power     :   0.3054353E-09
   step length   :     0.0042616 a0     speed     :   0.4123363E-03

........................................................................
.............................. CYCLE   44 ..............................
........................................................................

 iter      E             dE          RMSdq      gap      omega  full diag
   1  -5198.6503830 -0.519865E+04  0.136E-04    4.10       0.0  T
   2  -5198.6503830 -0.687578E-09  0.818E-05    4.10      19.7  T
   3  -5198.6503830  0.309137E-08  0.259E-05    4.10      62.1  T
     SCC iter.                  ...       10 min, 35.545 sec
     gradient                   ...        4 min, 42.026 sec
 * total energy  : -5104.0750655 Eh     change    :  -0.6178053E-05 Eh
   gradient norm :     0.0017963 Eh/a0  converged?    E=F G=F D=F
   time step     :     0.2500000 fs     power     :   0.3192603E-09
   step length   :     0.0042255 a0     speed     :   0.4088432E-03

........................................................................
.............................. CYCLE   45 ..............................
........................................................................

 iter      E             dE          RMSdq      gap      omega  full diag
   1  -5198.6506103 -0.519865E+04  0.150E-04    4.10       0.0  T
   2  -5198.6506103 -0.128694E-08  0.912E-05    4.10      17.6  T
   3  -5198.6506103  0.443924E-08  0.300E-05    4.10      53.6  T
     SCC iter.                  ...       10 min, 37.092 sec
     gradient                   ...        4 min, 40.335 sec
 * total energy  : -5104.0750716 Eh     change    :  -0.6094154E-05 Eh
   gradient norm :     0.0015910 Eh/a0  converged?    E=F G=F D=F
   time step     :     0.2500000 fs     power     :   0.3171452E-09
   step length   :     0.0042335 a0     speed     :   0.4096142E-03

........................................................................
.............................. CYCLE   46 ..............................
........................................................................

 iter      E             dE          RMSdq      gap      omega  full diag
   1  -5198.6507787 -0.519865E+04  0.161E-04    4.10       0.0  T
   2  -5198.6507787 -0.141881E-08  0.986E-05    4.10      16.3  T
   3  -5198.6507787  0.516866E-08  0.318E-05    4.10      50.7  T
     SCC iter.                  ...       10 min, 38.223 sec
     gradient                   ...        4 min, 40.523 sec
 * total energy  : -5104.0750775 Eh     change    :  -0.5951301E-05 Eh
   gradient norm :     0.0014453 Eh/a0  converged?    E=F G=F D=F
   time step     :     0.2500000 fs     power     :   0.3026206E-09
   step length   :     0.0042751 a0     speed     :   0.4136362E-03

........................................................................
.............................. CYCLE   47 ..............................
........................................................................

 iter      E             dE          RMSdq      gap      omega  full diag
   1  -5198.6508944 -0.519865E+04  0.164E-04    4.10       0.0  T
   2  -5198.6508944 -0.132513E-08  0.100E-04    4.10      16.1  T
   3  -5198.6508944  0.476575E-08  0.298E-05    4.10      54.0  T
     SCC iter.                  ...       10 min, 39.074 sec
     gradient                   ...        4 min, 41.368 sec
 * total energy  : -5104.0750832 Eh     change    :  -0.5643124E-05 Eh
   gradient norm :     0.0014223 Eh/a0  converged?    E=F G=F D=F
   time step     :     0.2500000 fs     power     :   0.2857699E-09
   step length   :     0.0043247 a0     speed     :   0.4184386E-03

........................................................................
.............................. CYCLE   48 ..............................
........................................................................

 iter      E             dE          RMSdq      gap      omega  full diag
   1  -5198.6509792 -0.519865E+04  0.172E-04    4.10       0.0  T
   2  -5198.6509792 -0.131331E-08  0.104E-04    4.10      15.5  T
   3  -5198.6509792  0.398813E-08  0.271E-05    4.10      59.3  T
     SCC iter.                  ...       10 min, 36.640 sec
     gradient                   ...        4 min, 41.327 sec
 * total energy  : -5104.0750891 Eh     change    :  -0.5918943E-05 Eh
   gradient norm :     0.0015004 Eh/a0  converged?    E=F G=F D=F
   time step     :     0.2750000 fs     power     :   0.2755955E-09
   step length   :     0.0047942 a0     speed     :   0.4216984E-03

........................................................................
.............................. CYCLE   49 ..............................
........................................................................

 iter      E             dE          RMSdq      gap      omega  full diag
   1  -5198.6510444 -0.519865E+04  0.171E-04    4.10       0.0  T
   2  -5198.6510444 -0.929504E-09  0.102E-04    4.10      15.8  T
   3  -5198.6510444  0.200544E-08  0.204E-05    4.10      78.8  T
     SCC iter.                  ...       10 min, 37.053 sec
     gradient                   ...        4 min, 42.692 sec
 * total energy  : -5104.0750956 Eh     change    :  -0.6461011E-05 Eh
   gradient norm :     0.0015977 Eh/a0  converged?    E=F G=F D=F
   time step     :     0.3025000 fs     power     :   0.2778720E-09
   step length   :     0.0052832 a0     speed     :   0.4224580E-03

........................................................................
.............................. CYCLE   50 ..............................
........................................................................

 iter      E             dE          RMSdq      gap      omega  full diag
   1  -5198.6510952 -0.519865E+04  0.169E-04    4.10       0.0  T
   2  -5198.6510952 -0.601176E-09  0.998E-05    4.10      16.1  T
   3  -5198.6510952  0.723958E-09  0.144E-05    4.10     111.9  T
     SCC iter.                  ...       10 min, 36.021 sec
     gradient                   ...        4 min, 42.299 sec
 * total energy  : -5104.0751029 Eh     change    :  -0.7324604E-05 Eh
   gradient norm :     0.0016322 Eh/a0  converged?    E=F G=F D=F
   time step     :     0.3327500 fs     power     :   0.2898166E-09
   step length   :     0.0058142 a0     speed     :   0.4226528E-03

........................................................................
.............................. CYCLE   51 ..............................
........................................................................

 iter      E             dE          RMSdq      gap      omega  full diag
   1  -5198.6511215 -0.519865E+04  0.175E-04    4.10       0.0  T
   2  -5198.6511215 -0.582986E-09  0.104E-04    4.10      15.5  T
   3  -5198.6511215  0.111595E-08  0.165E-05    4.10      97.7  T
     SCC iter.                  ...       10 min, 38.781 sec
     gradient                   ...        4 min, 40.533 sec
 * total energy  : -5104.0751113 Eh     change    :  -0.8459551E-05 Eh
   gradient norm :     0.0015701 Eh/a0  converged?    E=F G=F D=F
   time step     :     0.3660250 fs     power     :   0.3027061E-09
   step length   :     0.0064292 a0     speed     :   0.4248760E-03

........................................................................
.............................. CYCLE   52 ..............................
........................................................................

 iter      E             dE          RMSdq      gap      omega  full diag
   1  -5198.6510914 -0.519865E+04  0.195E-04    4.10       0.0  T
   2  -5198.6510914 -0.105774E-08  0.117E-04    4.10      13.8  T
   3  -5198.6510914  0.341606E-08  0.265E-05    4.10      60.7  T
     SCC iter.                  ...       10 min, 36.568 sec
     gradient                   ...        4 min, 41.433 sec
 * total energy  : -5104.0751208 Eh     change    :  -0.9511174E-05 Eh
   gradient norm :     0.0014498 Eh/a0  converged?    E=F G=F D=F
   time step     :     0.4026275 fs     power     :   0.3078067E-09
   step length   :     0.0071707 a0     speed     :   0.4307973E-03

........................................................................
.............................. CYCLE   53 ..............................
........................................................................

 iter      E             dE          RMSdq      gap      omega  full diag
   1  -5198.6509508 -0.519865E+04  0.222E-04    4.10       0.0  T
   2  -5198.6509508 -0.179261E-08  0.135E-04    4.10      11.9  T
   3  -5198.6509508  0.715227E-08  0.364E-05    4.10      44.2  T
     SCC iter.                  ...       10 min, 37.790 sec
     gradient                   ...        4 min, 39.854 sec
 * total energy  : -5104.0751313 Eh     change    :  -0.1042691E-04 Eh
   gradient norm :     0.0013801 Eh/a0  converged?    E=F G=F D=F
   time step     :     0.4428903 fs     power     :   0.3038242E-09
   step length   :     0.0080634 a0     speed     :   0.4403921E-03

........................................................................
.............................. CYCLE   54 ..............................
........................................................................

 iter      E             dE          RMSdq      gap      omega  full diag
   1  -5198.6506525 -0.519865E+04  0.247E-04    4.10       0.0  T
   2  -5198.6506525 -0.198088E-08  0.150E-04    4.10      10.7  T
   3  -5198.6506525  0.737327E-08  0.373E-05    4.10      43.1  T
     SCC iter.                  ...       10 min, 34.719 sec
     gradient                   ...        4 min, 40.472 sec
 * total energy  : -5104.0751426 Eh     change    :  -0.1136099E-04 Eh
   gradient norm :     0.0014173 Eh/a0  converged?    E=F G=F D=F
   time step     :     0.4871793 fs     power     :   0.3001935E-09
   step length   :     0.0090877 a0     speed     :   0.4512116E-03

........................................................................
.............................. CYCLE   55 ..............................
........................................................................

 iter      E             dE          RMSdq      gap      omega  full diag
   1  -5198.6502195 -0.519865E+04  0.265E-04    4.10       0.0  T
   2  -5198.6502195 -0.152704E-08  0.158E-04    4.10      10.2  T
   3  -5198.6502195  0.342243E-08  0.282E-05    4.10      57.0  T
     SCC iter.                  ...       10 min, 38.270 sec
     gradient                   ...        4 min, 40.042 sec
 * total energy  : -5104.0751553 Eh     change    :  -0.1262618E-04 Eh
   gradient norm :     0.0014744 Eh/a0  converged?    E=F G=F D=F
   time step     :     0.5358972 fs     power     :   0.3059022E-09
   step length   :     0.0102112 a0     speed     :   0.4609048E-03

........................................................................
.............................. CYCLE   56 ..............................
........................................................................

 iter      E             dE          RMSdq      gap      omega  full diag
   1  -5198.6497818 -0.519865E+04  0.282E-04    4.10       0.0  T
   2  -5198.6497818 -0.152613E-08  0.166E-04    4.10       9.7  T
   3  -5198.6497818  0.279852E-08  0.266E-05    4.10      60.5  T
     SCC iter.                  ...       10 min, 36.751 sec
     gradient                   ...        4 min, 40.765 sec
 * total energy  : -5104.0751697 Eh     change    :  -0.1441251E-04 Eh
   gradient norm :     0.0014731 Eh/a0  converged?    E=F G=F D=F
   time step     :     0.5894869 fs     power     :   0.3187694E-09
   step length   :     0.0114734 a0     speed     :   0.4707947E-03

........................................................................
.............................. CYCLE   57 ..............................
........................................................................

 iter      E             dE          RMSdq      gap      omega  full diag
   1  -5198.6495608 -0.519865E+04  0.312E-04    4.10       0.0  T
   2  -5198.6495608 -0.202181E-08  0.186E-04    4.10       8.6  T
   3  -5198.6495608  0.906493E-08  0.413E-05    4.10      39.0  T
     SCC iter.                  ...       10 min, 35.052 sec
     gradient                   ...        4 min, 42.136 sec
 * total energy  : -5104.0751861 Eh     change    :  -0.1637828E-04 Eh
   gradient norm :     0.0014002 Eh/a0  converged?    E=F G=F D=F
   time step     :     0.6484356 fs     power     :   0.3303999E-09
   step length   :     0.0129549 a0     speed     :   0.4832627E-03

........................................................................
.............................. CYCLE   58 ..............................
........................................................................

 iter      E             dE          RMSdq      gap      omega  full diag
   1  -5198.6497792 -0.519865E+04  0.357E-04    4.10       0.0  T
   2  -5198.6497792 -0.297678E-08  0.215E-04    4.10       7.5  T
   3  -5198.6497792  0.192704E-07  0.589E-05    4.10      27.3  T
     SCC iter.                  ...       10 min, 37.379 sec
     gradient                   ...        4 min, 42.109 sec
 * total energy  : -5104.0752045 Eh     change    :  -0.1839816E-04 Eh
   gradient norm :     0.0013538 Eh/a0  converged?    E=F G=F D=F
   time step     :     0.7132792 fs     power     :   0.3346006E-09
   step length   :     0.0147302 a0     speed     :   0.4995345E-03

........................................................................
.............................. CYCLE   59 ..............................
........................................................................

 iter      E             dE          RMSdq      gap      omega  full diag
   1  -5198.6504526 -0.519865E+04  0.393E-04    4.10       0.0  T
   2  -5198.6504526 -0.283944E-08  0.234E-04    4.10       6.9  T
   3  -5198.6504526  0.101563E-07  0.451E-05    4.10      35.7  T
     SCC iter.                  ...       10 min, 36.845 sec
     gradient                   ...        4 min, 41.227 sec
 * total energy  : -5104.0752252 Eh     change    :  -0.2071439E-04 Eh
   gradient norm :     0.0014209 Eh/a0  converged?    E=F G=F D=F
   time step     :     0.7846071 fs     power     :   0.3418398E-09
   step length   :     0.0167935 a0     speed     :   0.5177295E-03

........................................................................
.............................. CYCLE   60 ..............................
........................................................................

 iter      E             dE          RMSdq      gap      omega  full diag
   1  -5198.6512791 -0.519865E+04  0.426E-04    4.10       0.0  T
   2  -5198.6512791 -0.269119E-08  0.251E-04    4.10       6.4  T
   3  -5198.6512791  0.967702E-08  0.454E-05    4.10      35.4  T
     SCC iter.                  ...       10 min, 38.285 sec
     gradient                   ...        4 min, 44.247 sec
 * total energy  : -5104.0752489 Eh     change    :  -0.2372424E-04 Eh
   gradient norm :     0.0013915 Eh/a0  converged?    E=F G=F D=F
   time step     :     0.8630678 fs     power     :   0.3590011E-09
   step length   :     0.0191141 a0     speed     :   0.5357034E-03

........................................................................
.............................. CYCLE   61 ..............................
........................................................................

 iter      E             dE          RMSdq      gap      omega  full diag
   1  -5198.6518874 -0.519865E+04  0.487E-04    4.10       0.0  T
   2  -5198.6518874 -0.437467E-08  0.289E-04    4.10       5.6  T
   3  -5198.6518873  0.193841E-07  0.601E-05    4.10      26.8  T
     SCC iter.                  ...       10 min, 37.196 sec
     gradient                   ...        4 min, 42.846 sec
 * total energy  : -5104.0752759 Eh     change    :  -0.2705606E-04 Eh
   gradient norm :     0.0013295 Eh/a0  converged?    E=F G=F D=F
   time step     :     0.9493746 fs     power     :   0.3697036E-09
   step length   :     0.0218804 a0     speed     :   0.5574854E-03

........................................................................
.............................. CYCLE   62 ..............................
........................................................................

 iter      E             dE          RMSdq      gap      omega  full diag
   1  -5198.6520968 -0.519865E+04  0.543E-04    4.10       0.0  T
   2  -5198.6520968 -0.514501E-08  0.321E-04    4.10       5.0  T
   3  -5198.6520968  0.149703E-07  0.566E-05    4.10      28.4  T
     SCC iter.                  ...       10 min, 37.728 sec
     gradient                   ...        4 min, 43.946 sec
 * total energy  : -5104.0753065 Eh     change    :  -0.3051116E-04 Eh
   gradient norm :     0.0013988 Eh/a0  converged?    E=F G=F D=F
   time step     :     1.0443120 fs     power     :   0.3806995E-09
   step length   :     0.0251559 a0     speed     :   0.5826717E-03

........................................................................
.............................. CYCLE   63 ..............................
........................................................................

 iter      E             dE          RMSdq      gap      omega  full diag
   1  -5198.6519327 -0.519865E+04  0.605E-04    4.10       0.0  T
   2  -5198.6519327 -0.607997E-08  0.358E-04    4.10       4.5  T
   3  -5198.6519326  0.276232E-07  0.745E-05    4.10      21.6  T
     SCC iter.                  ...       10 min, 38.875 sec
     gradient                   ...        4 min, 41.901 sec
 * total energy  : -5104.0753417 Eh     change    :  -0.3524889E-04 Eh
   gradient norm :     0.0013402 Eh/a0  converged?    E=F G=F D=F
   time step     :     1.1487432 fs     power     :   0.4018243E-09
   step length   :     0.0288721 a0     speed     :   0.6079546E-03

........................................................................
.............................. CYCLE   64 ..............................
........................................................................

 iter      E             dE          RMSdq      gap      omega  full diag
   1  -5198.6516562 -0.519865E+04  0.699E-04    4.10       0.0  T
   2  -5198.6516562 -0.892669E-08  0.417E-04    4.10       3.9  T
   3  -5198.6516561  0.601267E-07  0.103E-04    4.10      15.6  T
     SCC iter.                  ...       10 min, 37.853 sec
     gradient                   ...        4 min, 40.335 sec
 * total energy  : -5104.0753815 Eh     change    :  -0.3979738E-04 Eh
   gradient norm :     0.0013639 Eh/a0  converged?    E=F G=F D=F
   time step     :     1.2500000 fs     power     :   0.4119688E-09
   step length   :     0.0329746 a0     speed     :   0.6380940E-03

........................................................................
.............................. CYCLE   65 ..............................
........................................................................

 iter      E             dE          RMSdq      gap      omega  full diag
   1  -5198.6520777 -0.519865E+04  0.734E-04    4.10       0.0  T
   2  -5198.6520777 -0.897944E-08  0.433E-04    4.10       3.7  T
   3  -5198.6520777  0.265445E-07  0.803E-05    4.10      20.0  T
     SCC iter.                  ...       10 min, 37.359 sec
     gradient                   ...        4 min, 41.770 sec
 * total energy  : -5104.0754225 Eh     change    :  -0.4101474E-04 Eh
   gradient norm :     0.0015064 Eh/a0  converged?    E=F G=F D=F
   time step     :     1.2500000 fs     power     :   0.4251875E-09
   step length   :     0.0344025 a0     speed     :   0.6657247E-03

........................................................................
.............................. CYCLE   66 ..............................
........................................................................

 iter      E             dE          RMSdq      gap      omega  full diag
   1  -5198.6528347 -0.519865E+04  0.772E-04    4.10       0.0  T
   2  -5198.6528347 -0.252803E-07  0.459E-04    4.10       3.5  T
   3  -5198.6528346  0.802147E-07  0.138E-04    4.10      11.6  T
     SCC iter.                  ...       10 min, 38.407 sec
     gradient                   ...        4 min, 42.034 sec
 * total energy  : -5104.0754647 Eh     change    :  -0.4221937E-04 Eh
   gradient norm :     0.0015491 Eh/a0  converged?    E=F G=F D=F
   time step     :     1.2500000 fs     power     :   0.4273990E-09
   step length   :     0.0356021 a0     speed     :   0.6889396E-03

........................................................................
.............................. CYCLE   67 ..............................
........................................................................

 iter      E             dE          RMSdq      gap      omega  full diag
   1  -5198.6531014 -0.519865E+04  0.788E-04    4.10       0.0  T
   2  -5198.6531014 -0.290729E-07  0.468E-04    4.10       3.4  T
   3  -5198.6531013  0.904856E-07  0.157E-04    4.10      10.3  T
     SCC iter.                  ...       10 min, 35.576 sec
     gradient                   ...        4 min, 41.967 sec
 * total energy  : -5104.0755075 Eh     change    :  -0.4275659E-04 Eh
   gradient norm :     0.0016989 Eh/a0  converged?    E=F G=F D=F
   time step     :     1.2500000 fs     power     :   0.4306516E-09
   step length   :     0.0366382 a0     speed     :   0.7089881E-03
 * RMSD in coord.:     0.0058701 a0     energy gain  -0.4540326E-03 Eh

........................................................................
.............................. CYCLE   68 ..............................
........................................................................

 iter      E             dE          RMSdq      gap      omega  full diag
   1  -5198.6531467 -0.519865E+04  0.150E-04    4.10       0.0  T
   2  -5198.6531467 -0.735781E-09  0.885E-05    4.10      18.2  T
   3  -5198.6531467  0.591808E-08  0.353E-05    4.10      45.6  T
     SCC iter.                  ...       10 min, 35.886 sec
     gradient                   ...        4 min, 43.127 sec
 * total energy  : -5104.0755163 Eh     change    :  -0.8797648E-05 Eh
   gradient norm :     0.0015510 Eh/a0  converged?    E=F G=F D=F
   time step     :     0.2500000 fs     power     :   0.4576594E-09
   step length   :     0.0071652 a0     speed     :   0.6932708E-03

........................................................................
.............................. CYCLE   69 ..............................
........................................................................

 iter      E             dE          RMSdq      gap      omega  full diag
   1  -5198.6531961 -0.519865E+04  0.168E-04    4.10       0.0  T
   2  -5198.6531961 -0.334694E-08  0.101E-04    4.10      15.9  T
   3  -5198.6531961  0.434466E-08  0.429E-05    4.10      37.5  T
     SCC iter.                  ...       10 min, 38.266 sec
     gradient                   ...        4 min, 43.230 sec
 * total energy  : -5104.0755250 Eh     change    :  -0.8719848E-05 Eh
   gradient norm :     0.0012688 Eh/a0  converged?    E=F G=F D=F
   time step     :     0.2500000 fs     power     :   0.4503864E-09
   step length   :     0.0070934 a0     speed     :   0.6863260E-03

........................................................................
.............................. CYCLE   70 ..............................
........................................................................

 iter      E             dE          RMSdq      gap      omega  full diag
   1  -5198.6532490 -0.519865E+04  0.174E-04    4.10       0.0  T
   2  -5198.6532490 -0.357613E-08  0.106E-04    4.10      15.2  T
   3  -5198.6532490  0.474392E-08  0.435E-05    4.10      37.0  T
     SCC iter.                  ...       10 min, 34.524 sec
     gradient                   ...        4 min, 43.315 sec
 * total energy  : -5104.0755333 Eh     change    :  -0.8331693E-05 Eh
   gradient norm :     0.0013438 Eh/a0  converged?    E=F G=F D=F
   time step     :     0.2500000 fs     power     :   0.4253068E-09
   step length   :     0.0071277 a0     speed     :   0.6896463E-03

........................................................................
.............................. CYCLE   71 ..............................
........................................................................

 iter      E             dE          RMSdq      gap      omega  full diag
   1  -5198.6532998 -0.519865E+04  0.158E-04    4.10       0.0  T
   2  -5198.6532998 -0.958607E-09  0.955E-05    4.10      16.9  T
[...]
  3611   6 C     3612   6 C                                       1.3847855
  3612   6 C     3613   6 C                                       1.3835144
  3609   6 C     3614   6 C                                       1.3889821
  3613   6 C     3614   6 C                                       1.3837580
  3608   6 C     3615   6 C                                       1.5373753
  3617   6 C     3618   6 C                                       1.3909814
  3618   6 C     3619   6 C                                       1.3819874
  3619   6 C     3620   6 C                                       1.3850368
  3620   6 C     3621   6 C                                       1.3824646
  3617   6 C     3622   6 C                                       1.3870850
  3621   6 C     3622   6 C                                       1.3837106
  3616   6 C     3623   6 C                                       1.5388029
  3625   6 C     3626   6 C                                       1.3885702
  3626   6 C     3627   6 C                                       1.3841727
  3627   6 C     3628   6 C                                       1.3836477
  3628   6 C     3629   6 C                                       1.3848364
  3625   6 C     3630   6 C                                       1.3906235
  3629   6 C     3630   6 C                                       1.3827360
  3631   6 C     3632   6 C                                       1.5387226
  3633   6 C     3634   6 C                                       1.3912194
  3634   6 C     3635   6 C                                       1.3844950
  3635   6 C     3636   6 C                                       1.3858474
  3636   6 C     3637   6 C                                       1.3834871
  3633   6 C     3638   6 C                                       1.3894329
  3637   6 C     3638   6 C                                       1.3833558
  3641   6 C     3642   6 C                                       1.3901280
  3642   6 C     3643   6 C                                       1.3840059
  3643   6 C     3644   6 C                                       1.3847037
  3644   6 C     3645   6 C                                       1.3847500
  3641   6 C     3646   6 C                                       1.3906064
  3645   6 C     3646   6 C                                       1.3840109
  3647   6 C     3648   6 C                                       1.5379508
  3649   6 C     3650   6 C                                       1.3890361
  3650   6 C     3651   6 C                                       1.3842277
  3651   6 C     3652   6 C                                       1.3839271
  3652   6 C     3653   6 C                                       1.3849032
  3649   6 C     3654   6 C                                       1.3907270
  3653   6 C     3654   6 C                                       1.3828979
  3655   6 C     3656   6 C                                       1.5377796
  3657   6 C     3658   6 C                                       1.3899599
  3658   6 C     3659   6 C                                       1.3828839
  3659   6 C     3660   6 C                                       1.3832774
  3660   6 C     3661   6 C                                       1.3837474
  3657   6 C     3662   6 C                                       1.3892691
  3661   6 C     3662   6 C                                       1.3843992
  3656   6 C     3663   6 C                                       1.5410381 (max)
  3663   6 C     3664   6 C                                       1.5368852
  3665   6 C     3666   6 C                                       1.3908559
  3666   6 C     3667   6 C                                       1.3827544
  3667   6 C     3668   6 C                                       1.3844938
  3668   6 C     3669   6 C                                       1.3842085
  3665   6 C     3670   6 C                                       1.3883584
  3669   6 C     3670   6 C                                       1.3840374
  3664   6 C     3671   6 C                                       1.5353654
  3671   6 C     3672   6 C                                       1.5345686
  3673   6 C     3674   6 C                                       1.3892429
  3674   6 C     3675   6 C                                       1.3833632
  3675   6 C     3676   6 C                                       1.3840056
  3676   6 C     3677   6 C                                       1.3841848
  3673   6 C     3678   6 C                                       1.3897779
  3677   6 C     3678   6 C                                       1.3829950
  3672   6 C     3679   6 C                                       1.5368479
  3679   6 C     3680   6 C                                       1.5358353
  3681   6 C     3682   6 C                                       1.3907161
  3682   6 C     3683   6 C                                       1.3830165
  3683   6 C     3684   6 C                                       1.3839901
  3684   6 C     3685   6 C                                       1.3832700
  3681   6 C     3686   6 C                                       1.3890827
  3685   6 C     3686   6 C                                       1.3835650
  3680   6 C     3687   6 C                                       1.5360810
  3687   6 C     3688   6 C                                       1.5391271
  3549   6 C     3689   1 H                                       1.0941013
  3551   6 C     3690   1 H                                       1.0928405
  3551   6 C     3691   1 H                                       1.0926466
  3552   6 C     3692   1 H                                       1.0943289
  3559   6 C     3693   1 H                                       1.0915989
  3559   6 C     3694   1 H                                       1.0902644
  3560   6 C     3695   1 H                                       1.0936190
  3567   6 C     3696   1 H                                       1.0917500
  3567   6 C     3697   1 H                                       1.0902995
  3568   6 C     3698   1 H                                       1.0957194
  3575   6 C     3699   1 H                                       1.0943469
  3576   6 C     3700   1 H                                       1.0932133
  3583   6 C     3701   1 H                                       1.0909167
  3583   6 C     3702   1 H                                       1.0910263
  3584   6 C     3703   1 H                                       1.0949706
  3591   6 C     3704   1 H                                       1.0900250
  3591   6 C     3705   1 H                                       1.0925567
  3592   6 C     3706   1 H                                       1.0958225
  3599   6 C     3707   1 H                                       1.0904979
  3599   6 C     3708   1 H                                       1.0930203
  3600   6 C     3709   1 H                                       1.0951001
  3608   6 C     3710   1 H                                       1.0939885
  3615   6 C     3711   1 H                                       1.0927280
  3615   6 C     3712   1 H                                       1.0917128
  3616   6 C     3713   1 H                                       1.0949400
  3623   6 C     3714   1 H                                       1.0921420
  3623   6 C     3715   1 H                                       1.0922208
  3624   6 C     3716   1 H                                       1.0954781
  3631   6 C     3717   1 H                                       1.0924327
  3631   6 C     3718   1 H                                       1.0932698
  3632   6 C     3719   1 H                                       1.0948767
  3639   6 C     3720   1 H                                       1.0898961
  3639   6 C     3721   1 H                                       1.0908410
  3640   6 C     3722   1 H                                       1.0955039
  3647   6 C     3723   1 H                                       1.0912038
  3647   6 C     3724   1 H                                       1.0911503
  3648   6 C     3725   1 H                                       1.0944984
  3655   6 C     3726   1 H                                       1.0921524
  3655   6 C     3727   1 H                                       1.0931258
  3656   6 C     3728   1 H                                       1.0915806
  3663   6 C     3729   1 H                                       1.0934526
  3663   6 C     3730   1 H                                       1.0927726
  3664   6 C     3731   1 H                                       1.0945992
  3671   6 C     3732   1 H                                       1.0911720
  3671   6 C     3733   1 H                                       1.0928713
  3672   6 C     3734   1 H                                       1.0938812
  3679   6 C     3735   1 H                                       1.0920373
  3679   6 C     3736   1 H                                       1.0927864
  3543   6 C     3737   1 H                                       1.0809550
  3548   6 C     3738   1 H                                       1.0802592
  3547   6 C     3739   1 H                                       1.0802326
  3546   6 C     3740   1 H                                       1.0809841
  3545   6 C     3741   1 H                                       1.0798598
  3554   6 C     3742   1 H                                       1.0813289
  3555   6 C     3743   1 H                                       1.0804048
  3556   6 C     3744   1 H                                       1.0800869
  3557   6 C     3745   1 H                                       1.0794776
  3558   6 C     3746   1 H                                       1.0805478
  3562   6 C     3747   1 H                                       1.0810592
  3563   6 C     3748   1 H                                       1.0802270
  3564   6 C     3749   1 H                                       1.0805995
  3565   6 C     3750   1 H                                       1.0809141
  3566   6 C     3751   1 H                                       1.0813552
  3570   6 C     3752   1 H                                       1.0802365
  3571   6 C     3753   1 H                                       1.0807073
  3572   6 C     3754   1 H                                       1.0797445
  3573   6 C     3755   1 H                                       1.0811451
  3574   6 C     3756   1 H                                       1.0800995
  3575   6 C     3757   1 H                                       1.0926696
  3578   6 C     3758   1 H                                       1.0811959
  3579   6 C     3759   1 H                                       1.0791656
  3580   6 C     3760   1 H                                       1.0811640
  3581   6 C     3761   1 H                                       1.0796344
  3582   6 C     3762   1 H                                       1.0799998
  3586   6 C     3763   1 H                                       1.0817849
  3587   6 C     3764   1 H                                       1.0807560
  3588   6 C     3765   1 H                                       1.0806175
  3589   6 C     3766   1 H                                       1.0807142
  3590   6 C     3767   1 H                                       1.0798985
  3594   6 C     3768   1 H                                       1.0800644
  3595   6 C     3769   1 H                                       1.0808911
  3596   6 C     3770   1 H                                       1.0798723
  3597   6 C     3771   1 H                                       1.0798019
  3598   6 C     3772   1 H                                       1.0798162
  3602   6 C     3773   1 H                                       1.0801212
  3603   6 C     3774   1 H                                       1.0801780
  3604   6 C     3775   1 H                                       1.0798239
  3605   6 C     3776   1 H                                       1.0804686
  3606   6 C     3777   1 H                                       1.0810658
  3607   6 C     3778   1 H                                       1.0919882
  3607   6 C     3779   1 H                                       1.0920013
  3610   6 C     3780   1 H                                       1.0791579
  3611   6 C     3781   1 H                                       1.0806999
  3612   6 C     3782   1 H                                       1.0803703
  3613   6 C     3783   1 H                                       1.0786572
  3614   6 C     3784   1 H                                       1.0820183
  3618   6 C     3785   1 H                                       1.0802627
  3619   6 C     3786   1 H                                       1.0805412
  3620   6 C     3787   1 H                                       1.0802509
  3621   6 C     3788   1 H                                       1.0797276
  3622   6 C     3789   1 H                                       1.0805027
  3626   6 C     3790   1 H                                       1.0810095
  3627   6 C     3791   1 H                                       1.0805965
  3628   6 C     3792   1 H                                       1.0801895
  3629   6 C     3793   1 H                                       1.0808536
  3630   6 C     3794   1 H                                       1.0794297
  3634   6 C     3795   1 H                                       1.0815993
  3635   6 C     3796   1 H                                       1.0822247
  3636   6 C     3797   1 H                                       1.0800228
  3637   6 C     3798   1 H                                       1.0796657
  3638   6 C     3799   1 H                                       1.0794268
  3642   6 C     3800   1 H                                       1.0809451
  3643   6 C     3801   1 H                                       1.0799617
  3644   6 C     3802   1 H                                       1.0803450
  3645   6 C     3803   1 H                                       1.0818728
  3646   6 C     3804   1 H                                       1.0805613
  3650   6 C     3805   1 H                                       1.0813692
  3651   6 C     3806   1 H                                       1.0806729
  3652   6 C     3807   1 H                                       1.0802581
  3653   6 C     3808   1 H                                       1.0806324
  3654   6 C     3809   1 H                                       1.0797130
  3658   6 C     3810   1 H                                       1.0811662
  3659   6 C     3811   1 H                                       1.0808267
  3660   6 C     3812   1 H                                       1.0795332
  3661   6 C     3813   1 H                                       1.0805555
  3662   6 C     3814   1 H                                       1.0808521
  3666   6 C     3815   1 H                                       1.0795957
  3667   6 C     3816   1 H                                       1.0801255
  3668   6 C     3817   1 H                                       1.0801598
  3669   6 C     3818   1 H                                       1.0805885
  3670   6 C     3819   1 H                                       1.0813467
  3674   6 C     3820   1 H                                       1.0809368
  3675   6 C     3821   1 H                                       1.0805228
  3676   6 C     3822   1 H                                       1.0806958
  3677   6 C     3823   1 H                                       1.0802555
  3678   6 C     3824   1 H                                       1.0809684
  3686   6 C     3825   1 H                                       1.0813659
  3685   6 C     3826   1 H                                       1.0804890
  3684   6 C     3827   1 H                                       1.0790169
  3683   6 C     3828   1 H                                       1.0805884
  3682   6 C     3829   1 H                                       1.0801966
  3550   6 C     3830   1 H                                       1.0871906
  3550   6 C     3831   1 H                                       1.0882736
  3550   6 C     3832   1 H                                       1.0874559
  3680   6 C     3833   1 H                                       1.0947947
  3687   6 C     3834   1 H                                       1.0926550
  3687   6 C     3835   1 H                                       1.0918543
  3688   6 C     3836   6 C                                       1.5321551
  3837   6 C     3838   6 C                                       1.3881497
  3838   6 C     3839   6 C                                       1.3841486
  3839   6 C     3840   6 C                                       1.3834914
  3840   6 C     3841   6 C                                       1.3846291
  3837   6 C     3842   6 C                                       1.3909409
  3841   6 C     3842   6 C                                       1.3836616
  3838   6 C     3843   1 H                                       1.0814193
  3839   6 C     3844   1 H                                       1.0805407
  3840   6 C     3845   1 H                                       1.0801525
  3841   6 C     3846   1 H                                       1.0806289
  3842   6 C     3847   1 H                                       1.0803505
  3836   6 C     3848   6 C                                       1.5305353
  3836   6 C     3849   1 H                                       1.0920138
  3836   6 C     3850   1 H                                       1.0909654
  3851   6 C     3852   6 C                                       1.3894842
  3852   6 C     3853   6 C                                       1.3842330
  3853   6 C     3854   6 C                                       1.3842524
  3854   6 C     3855   6 C                                       1.3845109
  3851   6 C     3856   6 C                                       1.3903906
  3855   6 C     3856   6 C                                       1.3830910
  3852   6 C     3857   1 H                                       1.0813898
  3853   6 C     3858   1 H                                       1.0808072
  3854   6 C     3859   1 H                                       1.0803609
  3855   6 C     3860   1 H                                       1.0797342
  3856   6 C     3861   1 H                                       1.0802454
  3688   6 C     3862   1 H                                       1.0956334
  3848   6 C     3863   1 H                                       1.0926587
  3848   6 C     3864   1 H                                       1.0949824

 * 2 distinct bonds (by element types)

   Z      Z             #   av. dist./Å        max./Å        min./Å
   1 H    6 C        1944     1.0850808     1.0976534     1.0771435
   6 C    6 C        1852     1.4190242     1.5410381     1.3798414


optimized geometry written to: xtbopt.xyz


           -------------------------------------------------
          | TOTAL ENERGY            -5104.081043483161 Eh   |
          | GRADIENT NORM               0.000769571613 Eh/α |
          | HOMO-LUMO GAP               4.101882735756 eV   |
           -------------------------------------------------

------------------------------------------------------------------------
 * finished run on 2024/10/08 at 12:32:54.848     
------------------------------------------------------------------------
 total:
 * wall-time:     3 d, 15 h, 25 min, 20.667 sec
 *  cpu-time:    23 d, 16 h,  0 min, 14.672 sec
 * ratio c/w:     6.497 speedup
 SCF:
 * wall-time:     0 d,  0 h, 47 min, 43.502 sec
 *  cpu-time:     0 d,  5 h, 46 min, 59.748 sec
 * ratio c/w:     7.271 speedup
 ANC optimizer:
 * wall-time:     3 d, 14 h, 36 min, 26.853 sec
 *  cpu-time:    23 d, 10 h, 11 min, 42.844 sec
 * ratio c/w:     6.491 speedup

