3864
 energy: -5104.081043483161 gnorm: 0.000769571613 xtb: 6.6.1 (8d0f1dd)
C           44.25755717018065       42.54114305494737       52.72454282897723
C           44.26712178372507       41.19261411547093       52.39198440722468
C           43.13787835487866       40.43317233265623       52.67192179545358
C           42.03253493167412       41.01037681040398       53.26931846337718
C           42.02965745820061       42.35712548608505       53.58832254592210
C           43.14899581754455       43.12274922875465       53.31289475211506
C           45.47499465406290       40.58994789180836       51.71728832539103
C           45.96295078693132       39.34317140883056       52.45273868777603
C           45.12625186412196       40.28310877967154       50.25185421809226
C           46.30839112855357       39.85836648291875       49.36276080023077
C           45.76519459261986       39.41456044981634       48.02637218878353
C           45.79502596191697       38.07552553263066       47.65856237004041
C           45.30205578567641       37.66198481644594       46.43261403805626
C           44.76947559367174       38.58678155777484       45.55186674425080
C           44.72749394211531       39.92340927923932       45.90993578449799
C           45.21570734269913       40.33054269266176       47.13638557150372
C           47.33074402486335       40.98873612960955       49.19907868146842
C           48.49342089925690       40.62512759715627       48.26513367615313
C           49.37393701396725       39.56793578569195       48.87801387860782
C           49.47891369924561       38.31653363448270       48.28701208782145
C           50.31066843003666       37.35201912836435       48.82476212884993
C           51.04412740403752       37.61811687201108       49.96719590456432
C           50.94367741166455       38.85964621119312       50.56919920922027
C           50.11962545711432       39.82547703529796       50.02239810895711
C           49.31563219927909       41.88092959357068       47.93019775447486
C           48.74101882072921       42.67144483700610       46.73907923609576
C           48.95073661899894       44.14687164755134       46.96441933420479
C           47.87083729259644       44.97324839440208       47.24621675997679
C           48.04881095475400       46.32920969226240       47.45870143263852
C           49.31309165296436       46.88260284761093       47.35968362870488
C           50.40054327412077       46.06712911189098       47.09442628126939
C           50.22219982601745       44.70784306944771       46.91899915629179
C           49.37350843122187       42.20278622334052       45.42031692067458
C           48.95223529192511       43.07153607230276       44.22978462968427
C           47.52317799456979       42.85143766313808       43.80532765999812
C           47.05180130047010       41.59862292112405       43.43243310262029
C           45.75628167604231       41.43776984831769       42.97475281923595
C           44.91323587929458       42.53280307889822       42.87652192518515
C           45.36400577050904       43.78438514304008       43.25749840121072
C           46.65868694268759       43.93610633399349       43.71773404307033
C           49.88806272497552       42.86917555340992       43.02309182547034
C           51.23625201324739       43.60460585487273       43.18862094558175
C           52.33258571857456       42.61218881326223       43.50657756458814
C           53.00780839699105       42.64313919979971       44.71924448117067
C           53.95608577216985       41.68281979924007       45.03267663060767
C           54.25561621334674       40.67685457439887       44.13105433687293
C           53.60909411372505       40.64879884197137       42.90585819460828
C           52.66147225988661       41.60797058548868       42.60116645127716
C           51.65703262283010       44.43920761987750       41.96299325591392
C           50.60916202745186       45.38451928156957       41.34596326518967
C           51.29970262155062       46.24573296764495       40.31442937837762
C           51.06858557644014       46.03487708517071       38.96102795727536
C           51.66321068713878       46.83273648497111       37.99980126863058
C           52.50542387660036       47.86227365714067       38.38128039550467
C           52.76264467897025       48.07101137038040       39.72607497149358
C           52.17031960813313       47.26634422017197       40.68273564363525
C           49.89069758944156       46.24571313931413       42.39026096339299
C           48.94535074817373       47.27697582567093       41.75315484249452
C           48.59126362855633       48.35493803628975       42.74577892722787
C           48.15864761480338       48.05784948751685       44.03253815380053
C           47.87721212928884       49.06651663682983       44.93614126580246
C           48.02909136622011       50.39109902802630       44.56872118776577
C           48.42544147269435       50.69754482121669       43.27992470404199
C           48.70112153929428       49.68886061080735       42.37770239563703
C           47.67203230524088       46.63080385371066       41.16131781948026
C           47.46399155799133       47.02848792494479       39.69385796850507
C           47.30978251178827       48.52192934741564       39.53438994823082
C           48.18040609682105       49.23779480029253       38.72231491027635
C           48.00538622190881       50.59572807603700       38.51493978820129
C           46.95743241418918       51.26009402376442       39.12790024995137
C           46.09089442574891       50.56165919240755       39.95122734993696
C           46.26715445089620       49.20532339863918       40.14800681210625
C           46.22496322693878       46.37416491947810       39.06164576708225
C           46.29079052088819       44.85338658454360       38.85588963818109
C           44.90119550503766       44.34664766462573       38.55266004059816
C           44.26721494900644       43.47847814914274       39.43205986116659
C           42.97675485708583       43.03871560481855       39.19339093267735
C           42.29978800515617       43.46073801813323       38.06306502731299
C           42.92388899071879       44.31946461727772       37.17373414429099
C           44.21169407730971       44.76137576138926       37.41783837566665
C           47.27069404660867       44.48139468521539       37.73810230359999
C           47.54143272155749       42.97120903603047       37.63913132486091
C           48.21226121769993       42.67219430197383       36.32223177168693
C           47.53084072915150       41.96725696579230       35.33859165898095
C           48.12071177589536       41.70529259413814       34.11461658350114
C           49.40541215411861       42.14886800528250       33.85271607255198
C           50.09341628082105       42.85698847375465       34.82274582726874
C           49.49979580429055       43.11662222237518       36.04461924169320
C           48.37570555081165       42.48265106538921       38.82694129142351
C           48.64735144831508       40.97129691765248       38.82077765249711
C           47.37506287172111       40.18421187282932       38.64906189300958
C           47.22216758936550       39.33452414493038       37.56130265389110
C           46.06333745988399       38.59689929315043       37.39563454036585
C           45.03686586099313       38.69985899130771       38.31809788452727
C           45.17737638894999       39.54730107391521       39.40313741375146
C           46.33608339638540       40.28338305133026       39.56695450925355
C           49.35071444710617       40.61678512457169       40.13758433347886
C           49.56619695053133       39.11740452432586       40.36813404673694
C           50.48823287776585       38.50347586823976       39.34808383761279
C           51.81716342124590       38.89584852183263       39.23713102879201
C           52.65611182144126       38.29821796608453       38.31433381211716
C           52.17915305480539       37.30029844434949       37.48253999124989
C           50.85675711797085       36.90440338724035       37.58100331920431
C           50.02102008762891       37.50075817286251       38.50812161465647
C           50.09900164465103       38.91066603594331       41.79164165267478
C           50.32370606451599       37.43947882108154       42.15371874864134
C           49.08636664391545       36.61374901775618       41.91632588874656
C           47.86311670568332       36.98156930445503       42.46621254632557
C           46.72616893219841       36.23111105668289       42.23298782643820
C           46.79364438709244       35.08703950061790       41.45678892233315
C           48.00848240768061       34.70149620114685       40.91733089116931
C           49.14284615815268       35.46203383224742       41.14294609618199
C           50.76442317287941       37.34253117227826       43.62112862461174
C           51.50229458199604       36.03503446155255       43.93086814708466
C           52.83333388208236       35.97885678379726       43.22560230951535
C           53.12501300122896       34.93311547434782       42.35978290779693
C           54.35037045891610       34.86360484012459       41.72006472573114
C           55.30431705790623       35.84240686106509       41.93697810541855
C           55.02404673538032       36.89213695357073       42.79436138003378
C           53.79853674296830       36.95789244861907       43.43100198234372
C           51.66707367777025       35.91137902417867       45.45018620110178
C           52.50299223862565       34.71017510660374       45.90909626056947
C           52.06405760622251       33.40739030058600       45.29221140887784
C           53.00421463970030       32.55479698094024       44.72666528439211
C           52.63284422422402       31.32308719009890       44.21867891265754
C           51.30761711213356       30.92634312896897       44.26058664280959
C           50.35994030166221       31.77031401302046       44.81278941638283
C           50.73703507686962       32.99655281404102       45.32900205791965
C           52.39930775005022       34.60964091147615       47.43783994363477
C           53.30212585237481       33.53041241658919       48.04600068004181
C           54.71881023286939       34.00874397026539       48.24067814373337
C           55.77832492256712       33.29503821756855       47.69571938958132
C           57.08616473736948       33.69877819937475       47.89774382683926
C           57.35595553882778       34.83357619089581       48.64163465264274
C           56.30961422201005       35.55894589153773       49.18217147774619
C           55.00442852226718       35.14535429264780       48.98845557745403
C           52.70329458676917       33.05471096475670       49.37565169333792
C           53.39648181046489       31.80958638940165       49.94185956046062
C           53.42365412153484       30.69304211111001       48.93022700725808
C           52.25762449738461       30.24173054045305       48.32183210078670
C           52.29779966137746       29.23779108890194       47.37217150090279
C           53.50537455170614       28.65985249986445       47.02072173955040
C           54.67107676048711       29.09088509828586       47.62978002093914
C           54.62867130144291       30.10091677311911       48.57480886584625
C           52.66298114271270       31.38326995271369       51.21854024567082
C           53.33763875961927       30.24165186937619       51.99049294773018
H           46.27067623452144       41.34111391143772       51.74670429169571
H           44.38306278011877       39.48167109080864       50.23382016195752
H           44.66155412191584       41.17165468877936       49.81577300043575
H           46.81042131289146       39.00231249301188       49.82382570519925
H           46.82890745508124       41.87576614465620       48.80899352980619
H           47.73865010301034       41.24106568238040       50.17913062022642
H           48.07776810941134       40.22457702323479       47.33440001090026
H           49.34994253285343       42.53005582349874       48.80855218672450
H           50.34484589301513       41.59241740987965       47.70715583977129
H           47.66192391866166       42.49145921995950       46.67894680842920
H           49.09976587826557       41.16056093418567       45.24638906749633
H           49.03686498879962       44.11646364672369       44.54742234345856
H           50.06204323813102       41.80154713456968       42.88610812599186
H           49.37784989062052       43.23050442265037       42.13024635983736
H           51.14962011947527       44.29378566455366       44.03466081992917
H           52.51430076452208       45.04127869942718       42.27243110716194
H           52.00007160878067       43.77046764136859       41.17042250103660
H           49.85826422647840       44.78479569498796       40.82032473450188
H           49.32161863006714       45.59753556649512       43.05324543757067
H           50.63174871301884       46.77124271592223       42.99529997871796
H           49.49034557111704       47.76205046498762       40.93711582509704
H           48.35339665736047       46.72150048041829       39.13476300798375
H           45.36136012455966       46.59923169852205       39.69018492789667
H           46.05927300994417       46.84494076693917       38.08993711104745
H           46.61617395993516       44.39415644885943       39.79360451772440
H           46.86344127589665       44.82509432684925       36.78592073922719
H           48.21564854384021       45.00292126882010       37.89424959169625
H           46.57680945826499       42.45214858847323       37.65947182955950
H           49.33518322662192       43.00470691437506       38.84581744398161
H           47.84787721852736       42.73147763864364       39.74980616264318
H           49.31355655205612       40.73223254471097       37.98469582251013
H           50.31250052926882       41.13340819953073       40.16585123224375
H           48.74615212250798       40.99753234063026       40.96395887629028
H           48.59371132786377       38.61938859784659       40.29135113116341
H           51.04698522002442       39.43768038710429       41.91081503335369
H           49.38943233296383       39.35026123729467       42.49618322167491
H           51.13095359756831       37.05165302828306       41.52288296216987
H           51.41784989466866       38.18601017884795       43.85487780556776
H           49.88615995720210       37.42012813000935       44.26702203370805
H           50.88954565367148       35.19698371512477       43.58059975903033
H           52.13267324410788       36.82210663991312       45.83618929761523
H           50.66964951509019       35.84919727580732       45.89095115716650
H           53.54872661011958       34.88376929488593       45.63570123786551
H           52.63429815650299       35.58065736120521       47.87684205276228
H           51.36199727488423       34.37039584533935       47.68585406381438
H           53.31349153564159       32.67279952592187       47.36538448513269
H           52.76089386877644       33.86227189088061       50.10874729456418
H           51.64633072566438       32.82599922343526       49.21902058410024
H           45.12634760998468       43.14933659597317       52.51375926978914
H           43.16480970594692       44.17763236867837       53.55097899025943
H           41.15939326381326       42.80569316219694       54.04596227837170
H           41.16275112022593       40.40518498770700       53.48544684009250
H           43.11915265240182       39.38344364875172       52.41665567288466
H           46.21188619177647       37.34438254574059       48.33714239543907
H           45.34939974369672       36.61526877704750       46.16728358093110
H           44.37838630277034       38.27840055645798       44.59258853924554
H           44.31674422182358       40.65131949811910       45.22829515632134
H           45.16715818471603       41.37802885897676       47.39584381197817
H           48.90404621500092       38.09936937029956       47.39673347017024
H           50.39258140713660       36.38940252884740       48.34336158118762
H           51.69372482078616       36.86525657482369       50.38753074184812
H           51.51714757825875       39.07633760182079       51.45834741272592
H           50.06676774010389       40.79824678635514       50.48804393354709
H           46.87777123150916       44.54990351374830       47.29463340488718
H           47.19764162432252       46.95112740123648       47.69745492460958
H           49.45538009458452       47.94331710062404       47.48815198474572
H           51.39431445468094       46.48613736309247       47.04158277524424
H           51.08005904845386       44.07624872234302       46.74571674342758
H           50.46051768555672       42.24071280212802       45.50518829916075
H           47.70104437989351       40.73738107319173       43.49607483037256
H           45.40751621424277       40.45390488628892       42.69525594987176
H           43.90622389334040       42.41834581742052       42.50511551738833
H           44.70923065401546       44.64184396138302       43.19702479431989
H           47.00255315443103       44.91687082881283       44.01201330467615
H           52.79506708366888       43.42641819742725       45.43328781485483
H           54.45252096604428       41.71624271578758       45.99234235325132
H           54.98630974118846       39.91943317051803       44.37764260332456
H           53.83799945548034       39.86648196415838       42.19601842617117
H           52.16057311304381       41.57298892433145       41.64453003189227
H           50.41050664670008       45.23306657838705       38.65494337971818
H           51.46379345870398       46.64841010496997       36.95413113374474
H           52.95338381711447       48.49895153719975       37.63230937419517
H           53.41831393061344       48.87183229299446       40.03884292738626
H           52.38217605986797       47.45199831493479       41.72475672877935
H           48.05402981612745       47.02856378518685       44.34318234649400
H           47.53855874154114       48.81865287042289       45.93056774968659
H           47.84821236690882       51.17714669513993       45.28641655795632
H           48.52421712034684       51.72694308720256       42.97115573126940
H           49.01133777052811       49.93432916912394       41.37277525017793
H           47.74618413722835       45.54460847225668       41.22941391258714
H           46.80109227465314       46.92827559640799       41.74847301951357
H           49.00813231881795       48.72621022177218       38.24734999841674
H           48.69117454346270       51.13566328245842       37.87760679901076
H           46.81558357132909       52.31859140856476       38.96458146256606
H           45.27304560722177       51.07186211802749       40.43738077714509
H           45.57567959749480       48.67471568236549       40.78508112308780
H           44.79126914254761       43.14692540566912       40.31716574462786
H           42.49735448480141       42.36569710905390       39.89037472093653
H           41.29293910413489       43.12075947559590       37.86899161319077
H           42.40125405430533       44.64695361872843       36.28693994933192
H           44.67850753609228       45.43586997251295       36.71460647945294
H           46.52735606978025       41.61814377157742       35.53862919640317
H           47.57578760061288       41.15275952759235       33.36273851579223
H           49.86851527405316       41.94484643605895       32.89852146148568
H           51.09640284186535       43.20883257366480       34.62672045246762
H           50.05538411012358       43.67164248525765       36.78622168982803
H           48.02104752821686       39.25160282099096       36.83775018702092
H           45.96210340151455       37.93971387058829       36.54396720228785
H           44.13161209041838       38.12427533194450       38.19026343998274
H           44.37778380608717       39.63326539681569       40.12453642899801
H           46.43117059367714       40.93948585455730       40.41958203830450
H           52.20905909901421       39.67037592109237       39.88060762629422
H           53.68960336717878       38.60699325321900       38.24216903951940
H           52.83571902746329       36.83324030631729       36.76322851291111
H           50.47556393096948       36.12540689923331       36.93659812970578
H           48.99091221034814       37.18256746555454       38.58745066788040
H           47.78814125345316       37.86595649007992       43.08284174071670
H           45.78613604508322       36.54161147202063       42.66385496973759
H           45.90464650808526       34.50036566193727       41.27365090497909
H           48.07281050336859       33.80752788548514       40.31407240363328
H           50.08646690201290       35.16435501919543       40.70744628346728
H           52.38701229284238       34.16075691065833       42.19220052754201
H           54.56013114861214       34.04037490933287       41.05224534042992
H           56.26398714836531       35.79128817493259       41.44462301429947
H           55.76760980213213       37.65701845431315       42.96788556541921
H           53.59658329089787       37.78135502474409       44.09979317848769
H           54.03996874855570       32.86240536727582       44.68439227373651
H           53.37993069342073       30.67066938761054       43.79055597857806
H           51.01535038905851       29.96536245592483       43.86313179423423
H           49.32070284190444       31.47473040767808       44.84690220338893
H           49.98048627586493       33.63385274114295       45.76113413094812
H           55.57243299312717       32.40815720974632       47.11227778279981
H           57.89721364829488       33.12662793634784       47.47091546692935
H           58.37649938597789       35.15104783266985       48.79805183844405
H           56.50961151696116       36.45013415328547       49.75954434176123
H           54.20361699092296       35.71975911271684       49.43255690890599
H           55.54208738257395       30.44014553778770       49.04349477830129
H           55.61792840318210       28.64241276043230       47.36458846002972
H           53.53743365923292       27.87718870718776       46.27697952355793
H           51.38326033612481       28.90857319933280       46.90044784403593
H           51.30610408830776       30.68083540237556       48.58335562282851
H           45.27998726327031       38.50983202285818       52.30291543415557
H           46.94265940371788       39.05242861543562       52.08429291331912
H           46.04634597297921       39.54293253168431       53.51916143060637
H           54.42886721369349       32.07114077340103       50.19954463414174
H           52.58720239632814       32.25218106459967       51.87635338567805
H           51.64650106334168       31.07179950012095       50.96228197205681
C           52.50547806719054       29.99155995808792       53.25302239985317
C           54.76707043996434       30.57290274318078       52.33243784995935
C           55.79724769863273       29.73620310145481       51.92242654190563
C           57.11552657648946       30.03173791124049       52.22198766545737
C           57.42487821452163       31.17389474813925       52.93970903331518
C           56.40677518152288       32.01272405301850       53.35975034819988
C           55.09051076810357       31.71296255270062       53.06014460032164
H           55.56231053401041       28.84370832505579       51.35914569401546
H           57.90306767131553       29.36879734007158       51.89355277909498
H           58.45340033844425       31.40803142999494       53.17218008566066
H           56.63602276927397       32.90483613088403       53.92493657487596
H           54.31246555757038       32.37988377165359       53.40148519546010
C           52.97771701783864       28.83879298056538       54.14339633559592
H           52.51274902900842       30.90056559994736       53.85429878095209
H           51.47230851571925       29.79941344555661       52.95479501776297
C           52.05266233645388       28.79670806175762       55.32625816838605
C           50.92863406196404       27.98086965887984       55.32363733213492
C           50.00670907160356       28.04145810512447       56.35496479412561
C           50.19619100641837       28.92202051670711       57.40591772161358
C           51.32230142262878       29.72752124644685       57.42633828545816
C           52.24158613281512       29.66653092773823       56.39442526270108
H           50.77310438685457       27.29395739836402       54.50322375269857
H           49.13411204669341       27.40375518748585       56.33567230836697
H           49.47055215877206       28.98327500371282       58.20310019540450
H           51.48090680236527       30.40794838438591       58.25016373042759
H           53.11682007998056       30.30194916090248       56.41442768707590
H           53.32611797061279       29.34180509002838       51.36595999103393
H           52.94340862692939       27.89848985571174       53.59059052107357
H           54.00663864754905       29.01766555557887       54.46194884724009
C           58.86049432338641       66.15548354257928       62.19513638088147
C           59.02287741655449       67.45657145844307       61.73490231284255
C           60.27693090348082       67.84215768837173       61.27282472825605
C           61.32910885855969       66.94539820339328       61.24732959926261
C           61.14928607694876       65.64630644566206       61.69248836144858
C           59.91180046266962       65.25492465163913       62.17244295014178
C           57.86519781386035       68.42143016773447       61.76495530003345
C           58.16483982470798       69.55687926608292       62.74926715866989
C           57.52256988089494       68.99670355068784       60.38337274503154
C           56.93779078565854       67.96450378690454       59.40598459955086
C           56.09446082345789       68.64471932607977       58.35390207961687
C           56.63012359215500       69.63232478198526       57.53419309702390
C           55.88199265369978       70.19163073761773       56.51360493924872
C           54.57956799339461       69.77411360249978       56.29943232691596
C           54.02472110928611       68.81355701519183       57.12689564829250
C           54.77677651285501       68.25692101062771       58.14732358559002
C           58.03160390500130       67.13720354175970       58.71052380062629
C           57.42857218035854       66.10744313220434       57.75156674140814
C           56.58550857707336       65.07415375160920       58.45824446602327
C           57.01072411822907       64.43722204406770       59.61724331129910
C           56.24596224500416       63.43949785099799       60.19499300734345
C           55.06291240697342       63.03301567978477       59.60169111630866
C           54.62565296762015       63.66466723217642       58.45098930390826
C           55.37444503766241       64.68699685375600       57.89883744006099
C           58.48994940609713       65.35256294637959       56.93127065524325
C           59.42144217405002       66.22998839086590       56.07410427892569
C           60.24573414875460       65.32492874073712       55.18865640604544
C           61.56593822987493       65.03696471033928       55.51161789566541
C           62.33468128006652       64.21332401509586       54.70674104990313
C           61.79703782988162       63.66862804813569       53.55350121808362
C           60.47914302645080       63.93910865602417       53.22785537459496
C           59.70720494552192       64.74752280523143       54.04320378329078
C           58.64840649051342       67.27506790066758       55.25850892311417
C           59.55594984148783       68.07873521712035       54.31541876001623
C           60.70862661246218       68.68370521461802       55.07630695925312
C           62.01296114808355       68.29756653526785       54.79509311180777
C           63.07885052993334       68.82919761289639       55.49922793972380
C           62.85559817787955       69.76014789980761       56.49838865626416
C           61.56044233377030       70.15896335777347       56.78265689195468
C           60.49809728485033       69.62617765647489       56.07580449479387
C           58.76070768677872       69.17521409234813       53.58725229361305
C           57.81455186924236       68.63375090660334       52.50218792595912
C           56.79892773527180       69.69062907369475       52.14547063559780
C           57.12490950052032       70.78622908527062       51.35554750451607
C           56.17451810150941       71.74196459891176       51.04476151906120
C           54.88292704435391       71.62454680980707       51.52848525824047
C           54.55023411167071       70.54539159237744       52.32834078566021
C           55.50120670637943       69.58804997099780       52.63209835046779
C           58.59677169741082       68.13986902127087       51.27912474079054
C           57.68164444346925       67.67337383467554       50.13761117025901
C           56.60016492492773       66.76356824711014       50.66309255448164
C           56.92604547224976       65.58571865127263       51.32858607925034
C           55.94045283858451       64.75710888787164       51.83021845765098
C           54.60777678219851       65.08998655247507       51.65964134302012
C           54.27133528424861       66.25638078589067       50.99866307086484
C           55.26035175719059       67.08934818758839       50.50472645312492
C           58.46539339434047       66.93222930061448       49.04442035025833
C           59.55935437630065       67.77315845755315       48.37306869376356
C           58.95404933228517       68.95976401958686       47.66856154283091
C           59.25151114075907       70.25234177914678       48.07923106510811
C           58.68517526780965       71.34673926833149       47.44972953429053