3536
 energy: -3716.270841778583 gnorm: 0.000757529344 xtb: 6.6.1 (8d0f1dd)
C           51.53061805281894       68.55721866707452       40.80548958836364
C           52.19715361835760       67.21102890422785       41.08099909139580
C           51.22202830898306       66.29521506270619       41.81900260406953
C           53.48162908837143       67.36760660840604       41.90481689410021
C           54.62708948301758       68.11007593270074       41.20726600763707
C           55.10686653057065       67.34214654071910       39.97493896673463
C           55.81941962108418       68.30100933217922       42.15680685191797
C           55.59003765610246       69.20317653485615       43.37522419742763
C           55.14103032489907       70.60312804191243       42.95568567876578
C           56.87514961662479       69.32589080362307       44.21034813262661
C           57.42271561170591       68.02164903460323       44.80079708154592
C           56.36812778243824       67.31791241738482       45.65565418748210
C           58.65995806355791       68.27642416372036       45.67525733975611
C           59.86697868444823       68.95135365403776       45.00982056707394
C           60.29861788863869       68.20086127114978       43.75000490779809
C           61.05142235830061       69.01041323216397       45.99137031127223
C           60.90329598846620       70.02487965175673       47.13373711838499
C           61.19319309014084       71.43988597881176       46.63162920054558
C           61.84010562417596       69.71700773900207       48.31395747173627
C           61.62951443635762       68.36491771797880       49.00884078142882
C           60.15174416254991       68.11700915343035       49.30162648412487
C           62.38774661958818       68.28340990082661       50.34227439850531
C           63.90096548584083       68.52610094624970       50.31320841553039
C           64.59677536518286       67.58330728330927       49.33260855746303
C           64.49052290539429       68.30729336393262       51.71590424523339
C           64.17548329724742       69.40611830912333       52.74073418801746
C           65.15565911215481       70.56769621000039       52.59302390116734
C           64.22454018939504       68.84084314510476       54.16770650543080
C           62.95622539205281       68.06009915455698       54.54606611246579
C           61.91599192384091       69.00258453985273       55.14843114621151
C           63.25356363301299       66.92477715531233       55.53317086525914
C           63.96770278355806       65.71771926457829       54.91409801711686
C           63.00545086404538       64.91103048706289       54.04757711491219
C           64.54681532992214       64.80065725125547       56.00029683274853
C           65.80442383854110       65.34050101479045       56.68843061167640
C           67.01097843088964       65.27122361411350       55.75703256401606
C           66.09478106963566       64.59472124119333       58.00773685706095
C           66.02878931543827       65.51021395783764       59.23696327483506
C           66.64126063069678       64.81584630182216       60.45213820224587
C           64.58133376794662       65.93070995472692       59.52712864706218
C           64.44784987573631       67.30439185657831       60.19742432170408
C           63.02207257486444       67.46596749928065       60.72294311712380
C           64.80731711358149       68.43798574721950       59.21733874957815
C           65.80119783686933       69.46617221474902       59.76869517085532
C           65.13665968211976       70.36318900748765       60.81188365264549
C           66.37802675059777       70.32659134034401       58.63373674623338
C           67.49831463962825       69.66804589643233       57.81132678936049
C           68.79464473638916       69.61431399907902       58.61660348953550
C           67.67538246175492       70.47201052668443       56.51500496843060
C           68.82834014486356       70.07002560382217       55.58335642459482
C           68.89708321529562       71.09632222283892       54.45089879234099
C           68.65023624463825       68.64194597839774       55.05330443423016
C           69.76855910709139       68.17379262590366       54.10148376251659
C           69.23831802168861       68.06451813329794       52.67000151842426
C           70.38271412151434       66.82298507585271       54.49883623804799
C           71.13155741243068       66.77391166498957       55.83689012065572
C           72.26947438659745       67.79361265324825       55.88309651254126
C           71.71113847552904       65.36722307488076       56.06506920529301
C           70.69718115371442       64.29206519879061       56.48467999624852
C           70.32985905148095       64.45286256145252       57.95817425780077
C           71.29519640037017       62.90726560971862       56.20049444453372
C           70.45218318210443       61.69079905160621       56.61617962620222
C           71.22351754059794       60.42251340831287       56.25005115658661
C           69.06961142794857       61.73175629431734       55.95425836212462
C           68.14658201274305       60.52634817019001       56.18764136924120
C           66.88915527938164       60.70683646918939       55.33659015707909
C           67.77804176512940       60.38192551471811       57.66888068358668
C           67.14786113808107       59.03495752917465       58.05733758847082
C           66.49526192868176       59.18584880887854       59.43071792794518
C           68.20204164086476       57.91478513206334       58.05424852819018
C           67.71007163665212       56.55756277845501       57.53879088954313
C           66.75568645809808       55.86628563521793       58.50942340523761
C           68.88178262702489       55.63382551487761       57.16320088044160
C           69.87089384302267       55.28429816233578       58.28934755802121
C           71.11784121738117       56.16833355044995       58.23323326483411
C           70.30352239989378       53.81372309946678       58.19689697863603
C           69.25213649145566       52.81018010604689       58.68560069954030
C           69.25361327237246       52.72762089848368       60.21128314034620
C           69.51544342803389       51.41959359652969       58.09187823755965
C           69.04196934113345       51.24973803177907       56.64092812786437
C           67.53010083055861       51.04032638223515       56.61161411299712
C           69.77988573149841       50.07058811726623       55.99450334002210
C           69.51952443716662       49.86083781311616       54.49728510561008
C           70.17039008210037       48.55048117454331       54.05156367634099
C           70.04345911899550       51.03088092138566       53.64362506870098
C           68.95500439018460       51.97915565892541       53.12660832956938
C           68.11471388876394       51.29652344682899       52.04892997969839
C           69.56475716798930       53.26949792075296       52.56206242366231
C           70.07932617436528       54.23236605984250       53.63061921499303
C           70.49639252551380       55.56864207665787       53.02812660760911
H           51.31474043083749       69.07314715870433       41.73959614669433
H           52.16693331749963       69.19606750369975       40.19855948693655
H           50.59305937801541       68.41347952085840       40.27208629700175
H           71.28199206724248       55.42827004450321       52.28818752895887
H           69.65007610113965       56.04681834364052       52.53946767504872
H           70.86909413718294       56.24033486919647       53.79854799755521
H           70.37888323771415       53.01603371139296       51.87766950475561
H           68.80172430834723       53.78859516473205       51.97601879611414
H           70.76855187944049       51.59726480687872       54.23010379205907
H           70.57838376779446       50.63504270637826       52.77637549235075
H           68.44235517440737       49.75816389972540       54.34579918676465
H           69.79635482952297       47.71287493140221       54.63611221294504
H           69.95279537293314       48.35539972268589       53.00329528382269
H           71.25094767205825       48.59719596568723       54.17613304003429
H           70.85569870298117       50.20735905266356       56.13666084220534
H           69.49811108559909       49.15921736153042       56.52906031867801
H           70.58930313109802       51.22663714271803       58.14879968681479
H           69.01433594060403       50.66678738601357       58.70503158787380
H           68.29605804260041       52.24978188890969       53.95732538208951
H           68.72458257452843       51.07674439833611       51.17475772403989
H           67.69422477715275       50.36326412491569       52.41362631179489
H           67.29419999002769       51.94053461053490       51.74089083758199
H           69.28382931964998       52.16004037436263       56.08414611338169
H           67.27653279116117       50.07640851900536       57.05010127409000
H           67.02578050256243       51.81758322040643       57.18114791598612
H           67.14658594456272       51.07110348978044       55.59548533151674
H           68.26349787781471       53.15180131594929       58.36738200502516
H           69.10506351466643       53.70838075484822       60.65642181778900
H           68.45651155475366       52.07313042567679       60.55834696995571
H           70.20072460427167       52.32995648009503       60.57096206000656
H           70.56424633101381       53.60051219180701       57.15758372918406
H           71.21073619808655       53.67344078923988       58.79074907867911
H           69.38864384702306       55.44153679049963       59.25744748329235
H           71.78877669417255       55.93380968081108       59.05808088874861
H           71.65624828920808       56.00329857907456       57.30117711920693
H           70.86241356170132       57.22166077899514       58.29851316921312
H           68.44948176510670       54.70932523701302       56.77370137324620
H           69.43775631070521       56.09380206879629       56.34213426112463
H           67.15691291063791       56.74141437412995       56.60771698026296
H           65.83386806800779       56.43198626077425       58.60990720247921
H           66.49599332187735       54.87618314371257       58.14186795481604
H           67.20202260083464       55.75860369507738       59.49512883862911
H           69.02526534793022       58.22193557799176       57.40766699038777
H           68.60488776929328       57.80004436864206       59.06255105826710
H           66.36713741786103       58.78737598039044       57.33180242732007
H           66.07282509771449       58.24810437460826       59.77784376419046
H           67.23233593431918       59.51510215193917       60.16171446695805
H           65.69919818025770       59.92547125168215       59.39198665530516
H           68.66963894783035       60.51785222907198       58.28398307206648
H           67.08259227648676       61.18555489337904       57.92485164296851
H           68.65261512864706       59.62012488839745       55.84418146012312
H           66.22229499848805       59.85457565075167       55.43818481903224
H           66.34905878072033       61.60169245828568       55.64105374059290
H           67.15406569763188       60.80560756624241       54.28587698757443
H           68.54430223211199       62.62001040140952       56.30817636189579
H           69.21683070762107       61.84417969314544       54.87675461353338
H           70.33633198754399       61.71127665414292       57.70390191981667
H           70.74628501617531       59.53827040081621       56.66270978020741
H           71.28511334918137       60.30857653443231       55.16952828277186
H           72.23664569962723       60.46845847991334       56.64505138915911
H           71.49158762482850       62.83557446412247       55.12664514139706
H           72.26052333771368       62.84148148289536       56.71137418884077
H           69.79685372166642       64.40797581379677       55.87839698792961
H           70.00292387806242       65.46916607489926       58.16623056412494
H           69.52388932370955       63.77917324677484       58.23698930900917
H           71.19067671405435       64.23789860522400       58.58887983536312
H           72.20515307001401       65.05207815309841       55.14223403797271
H           72.48234938612397       65.42326282058274       56.83776491800196
H           70.43615261048326       67.00716563736341       56.64935106331525
H           71.89240485264568       68.81049374761344       55.81599766755086
H           72.81992118963908       67.70413705008168       56.81769788837472
H           72.96296432723510       67.62688125285571       55.06104297169953
H           69.58928217878805       66.07361261404841       54.50997321893362
H           71.08961200108384       66.53749155024229       53.71367693166952
H           70.57106983961299       68.91594932951276       54.10122044814252
H           68.46851600824266       67.29681039586184       52.61054497891508
H           68.80792302546763       69.00800716020166       52.34324185520435
H           70.03734309930971       67.79899707784537       51.97958517003193
H           68.59755861914893       67.96714456033236       55.90644231114104
H           67.68802844838800       68.58355056387590       54.53967120552053
H           69.77078274327431       70.12131392842385       56.13840638115270
H           69.71982565336072       70.88986232584746       53.77189566676071
H           67.97092334256611       71.09612916667399       53.88059297409698
H           69.04235748509602       72.09582244861959       54.85659822818444
H           66.74477029956701       70.41298444657811       55.94404260035531
H           67.81953946709550       71.52038451180697       56.79237483120698
H           67.20035710577814       68.64582591274871       57.55862951487197
H           68.63002098594743       69.14894010281883       59.58552887357599
H           69.55550105559790       69.03763038496783       58.09690846567157
H           69.17822078866648       70.61922897631531       58.78319066368525
H           65.55869891368039       70.60279259979856       57.96494670404071
H           66.77445832733365       71.25348372240902       59.05596727006877
H           66.62083749157023       68.92825462133352       60.25706567451278
H           65.85076379551745       71.07720851639299       61.21760901365474
H           64.31595405338912       70.92021077197828       60.36315273635817
H           64.74435466949467       69.77417366012928       61.63694943730251
H           65.24035026161691       68.00510453846283       58.31557261047757
H           63.89712232221629       68.95958972249929       58.91244289162972
H           65.13437994088463       67.34196135705550       61.05077744997312
H           62.80182890246055       66.71071415371095       61.47538715613490
H           62.87879906829236       68.44565826020560       61.17249087559318
H           62.30909720519923       67.35563218392065       59.90765664783086
H           64.00955561700424       65.95548061956991       58.59900630943513
H           64.12555795251106       65.17238140706722       60.16837581163383
H           66.62852945181658       66.40246277238468       59.02642062886461
H           66.55375715026921       65.44154193481135       61.33792176683977
H           66.13475795812532       63.87338324931211       60.64792727429703
H           67.69693651243300       64.60862958903378       60.28752053434000
H           65.38627879616867       63.77438603944134       58.14323508868538
H           67.09122428359819       64.15110941755677       57.96108093756281
H           65.64099075127092       66.39649289689132       56.92287049904556
H           66.86174489582392       65.88558169760881       54.87287543724634
H           67.89665958127819       65.63351251969776       56.27307269203259
H           67.18862167826443       64.24805658431769       55.43198186497452
H           63.76948383989453       64.62860736633790       56.74774606682909
H           64.78931355638041       63.83144410680709       55.55560705133416
H           64.78312599518830       66.06934559020645       54.27664237695280
H           63.52622919267001       64.07978240864111       53.57713928586065
H           62.19735438955965       64.51519326116033       54.65917234349699
H           62.57281168711606       65.52418251884590       53.26104896653388
H           63.85335547959566       67.33571159046367       56.34716763974034
H           62.31137223803857       66.57816128720972       55.96551573589530
H           62.52540631212800       67.63134566474965       53.63705134929421
H           62.27410699805166       69.41059541064142       56.09260918110182
H           61.71120148305742       69.83263722630653       54.47563220847265
H           60.98235914129407       68.47584320784810       55.33269124592638
H           65.10500059123866       68.20133610850253       54.25610848606006
H           64.35589460719955       69.66129829240904       54.87842283333781
H           63.16619386892601       69.78948093836385       52.56231716045704
H           66.16523433106036       70.23859742044471       52.83341789098275
H           65.15705178920308       70.94909226929440       51.57428918865237
H           64.89229521138466       71.38597631441681       53.26083523843196
H           64.12634410387435       67.34714282619412       52.08673790297243
H           65.57764362427328       68.22562759683623       51.63233837225821
H           64.09587223723410       69.55772651587930       50.00202145032814
H           65.67403907105208       67.73664006886929       49.35547239219196
H           64.39438002508133       66.54849945784134       49.60243352973234
H           64.25675365328078       67.74857063412975       48.31340057975657
H           61.92914932780365       68.99929636885010       51.02832371231968
H           62.21827428891221       67.28442001981107       50.75549565888637
H           61.99251565013826       67.56366426502338       48.35678205492140
H           60.03659231794214       67.24309593330008       49.93738710713235
H           59.72872108496493       68.97434941126221       49.81900949092036
H           59.59034881305743       67.94615901211520       48.38874120526351
H           62.87159124115189       69.77901767077024       47.95843678963706
H           61.70434903617503       70.50571048579641       49.05945363687189
H           59.87341019763386       70.01188261631948       47.49681791595892
H           61.02501617548065       72.16949261847567       47.42136477367038
H           62.22792533395764       71.52618107505127       46.30361917156425
H           60.54864669602951       71.69479727622078       45.79401536057654
H           61.19252093540337       68.00996461280506       46.40271271858195
H           61.95928591828093       69.25799158688991       45.43448899140708
H           59.59508975199226       69.97300311166634       44.72734595079424
H           60.51662165903241       67.16164319136880       43.98525698388810
H           59.52281926113804       68.22848422595149       42.98930589708563
H           61.19498105757167       68.65110443672053       43.32729030578791
H           58.34478134200466       68.88640802594814       46.52481763761566
H           58.99102776570244       67.30877435054370       46.06468815783111
H           57.71137398825536       67.34937281636941       43.98833623885299
H           56.80401961281478       66.45969230710111       46.16324419892874
H           55.97841914267963       67.99535924309195       46.41177176939384
H           55.53911434265358       66.96434738746557       45.04788753035138
H           57.64225320800971       69.78188380474759       43.58062901990450
H           56.68065745135816       70.01615849454836       45.03620173689214
H           54.80598550184730       68.77546071306413       44.00487724458750
H           54.15457834287917       70.58081230705857       42.50019842693944
H           55.09258215646589       71.26140879604938       43.82054121633865
H           55.84180020660900       71.03296213863851       42.24231320991002
H           56.12643526012800       67.31128903809336       42.49825876544569
H           56.64928992315055       68.72069437628724       41.58063068372574
H           54.27774029309045       69.09209373650019       40.87886810484255
H           55.96071647375219       67.84488954227669       39.52458202424587
H           55.40699546828794       66.33390086129103       40.25456062307062
H           54.32700954776087       67.27400287582293       39.22092590585241
H           53.22459721700103       67.89209080711277       42.82708477917792
H           53.84152973747055       66.37294920785587       42.18183243781520
H           52.43737295750758       66.73873018006763       40.12335165673367
H           50.93794692225954       66.73498326777113       42.77302537174111
H           50.31753610462764       66.14238194410612       41.23394382084764
H           51.67609519846434       65.32374799128489       42.00441831954807
H           69.29292111612762       54.40463165863903       54.36845277212137
H           70.93344764316507       53.79508566942669       54.15220896177900
C           55.48143991133633       73.39564149892468       46.27511159856109
C           56.14887068397538       73.20780685579240       47.63575778310101
C           57.36430284231557       72.29229114793445       47.48541159637121
C           55.18554907258395       72.60511203400516       48.66397616139249
C           53.99488044331520       73.48176093159385       49.07216029476157
C           54.43338804032319       74.59886998442742       50.01693838707856
C           52.92503237108018       72.61414410207772       49.75168397284155
C           52.08180298513961       71.79334700866454       48.76355936207036
C           50.93468958731818       72.64067570983147       48.21669757407938
C           51.55847722147735       70.51705128915174       49.43168621130236
C           51.07644482564646       69.42251322505616       48.46748623943074
C           50.26241411666732       68.40388930323816       49.26709827595229
C           52.27381178225883       68.75924438989597       47.76454855796160
C           52.10818464488148       68.39752648699115       46.27981062200313
C           51.88627552622771       69.64408359369901       45.42169698857622
C           50.99965866599729       67.37401344475958       46.00402769099254
C           51.27119491656070       65.96891855601947       46.55323449519496
C           52.43098527848981       65.29233944159920       45.82349887246806
C           50.00928706663303       65.08928088453202       46.54559486902784
C           49.39783601408099       64.75571177630950       45.17333850456215
C           48.20221328087236       65.65994954176345       44.87012987064980
C           48.94424642747056       63.28841986019776       45.11677488260585
C           50.08758713952049       62.27239569262526       44.97873881745647
C           50.60560028381178       62.24847970214195       43.54204345618871
C           49.60794335529874       60.88095212884534       45.41345938234812
C           50.70456825411490       59.81750240320954       45.53939688749551
C           50.06318648244862       58.44042432622846       45.71215657950306
C           51.74602505452713       60.09516986212214       46.63721534876235
C           51.26031404281656       60.11330277229798       48.10015377253541
C           50.94513342026480       61.53361247368976       48.56427059183786
C           52.34990068994938       59.48483561064668       48.98175690372083
C           52.05966501183040       59.37371754023219       50.48548060794635
C           53.36686150946142       59.05386502652056       51.20847094134506
C           51.01187795240396       58.28959508420666       50.75633684385875
C           50.40011981176765       58.27529862804785       52.16623744914134
C           49.69629423195541       56.93647911100266       52.38398156799808
C           49.43561384245694       59.45799479131378       52.34193306766247
C           48.55936153613326       59.45281452111099       53.60205782879432
C           47.53973698790629       60.58820518905136       53.50547270669870
C           49.37215804373108       59.59550216902828       54.89309772419055
C           48.58606076841959       59.14937119415233       56.13810422055445
C           48.87599540970206       60.06338388945792       57.32406634528106
C           48.91276487833210       57.69752251194781       56.50162684106446
C           47.91158349514168       57.05781472642744       57.47979035223414
C           48.61197923140018       56.63003829199094       58.76965528503995
C           47.20142150445668       55.84449349618884       56.86962715932082
C           46.32078309832673       56.11816843246698       55.64464632716921
C           45.15148457728158       57.03631802904946       55.98759814738205
C           45.78699254373910       54.78705693414422       55.09191006087936
C           46.77830103122361       54.03091803538688       54.19407158198351
C           46.70118886705515       54.57264607732786       52.76846040771444
C           46.47185911272947       52.52968849368799       54.23966345151374
C           47.46910547216005       51.61271578450164       53.51596849884400
C           46.82960528877990       50.23158518461271       53.37032411981953
C           48.80528506823194       51.52175871039842       54.27405902010510
C           50.08990526643636       51.56100767546698       53.43017760669547
C           50.26262947586829       52.91714404246486       52.74641818343727
C           50.19454608999965       50.44498921703629       52.38341701855389
C           50.40011799541156       49.03588792399872       52.95560565766996
C           51.81934338844917       48.86790597670384       53.49313888780361
C           50.10760273888256       47.96657833002588       51.89102726159768
C           49.71975991862185       46.59166165981224       52.45953853941711
C           49.86724603256118       45.52586710611763       51.37689363877494
C           48.28137772903164       46.63275559186861       52.98646274685615
C           47.75786291256740       45.39084310219953       53.72446871099397
C           46.29127368178995       45.64802730254641       54.07023544450065
C           48.59486767597387       45.12210835179668       54.97881950660949
C           48.15107063583307       43.98747351240752       55.91352098180791
C           49.03509724212205       44.04634179252528       57.16120305812063
C           48.26193785652467       42.58680742377835       55.28690185216701
C           47.01637891345317       42.05975580536655       54.56352696128683
C           45.84212514056398       41.87196412050677       55.52069420513330
C           47.33376712707381       40.72046890034832       53.88307431137353
C           46.32101579639108       40.33820212069605       52.78754578281368
C           45.60250089560151       39.03260621559660       53.12952233934799
C           46.99196298369885       40.20534674802672       51.41500423186519
C           47.62650258549646       41.49236805196998       50.87481897995355
C           46.55977647633591       42.49810567540278       50.44802279125680
C           48.53765085015341       41.17423317040732       49.68130773154485
C           49.88972941855041       40.54678071847094       50.05197325686481
C           50.85585329105504       41.62287945344017       50.53786446353386
C           50.44567333730540       39.80442599009549       48.83048981989493
C           51.80831313574512       39.11878778711012       49.00541111143586
C           52.21865130949198       38.50678591088715       47.66565886342919
C           51.75712863563651       38.06550204263247       50.11899815527035
C           53.02758663122103       37.22716906439423       50.32507081219434
C           52.76446702211888       36.19344681337694       51.41991340185876
C           54.23000320582407       38.10730561450546       50.67934174041830
C           55.54091852213961       37.33338380491978       50.81518780820849
C           56.74265255656489       38.27015905045130       50.84933187970537
H           55.07350765927399       72.44980764074616       45.92249411798886
H           54.67233653844693       74.11977431733773       46.32461964635279
H           56.20388056917597       73.75054162357881       45.54273974872273
H           56.81629865923458       38.82983789478192       49.91935732616668
H           56.65174943400752       38.98097955724800       51.66803382334958
H           57.66335369056888       37.70630607453789       50.98244769719195
H           54.36297197481441       38.85382776824405       49.89650469653680
H           54.02384730414513       38.63960363331545       51.61133095547546
H           51.53461980000334       38.56430930168599       51.06456349943643
H           50.92996361009314       37.38227272398989       49.90445165828744
H           52.54216333402606       39.88278792545525       49.26741547491132
H           53.24040592734065       38.13755276512430       47.69504063421560
H           51.56108179654743       37.67946674936861       47.40475737535418
H           52.15519137378999       39.25250876867891       46.87519524801137
H           49.71745565543607       39.04790518667087       48.52296735363664
H           50.53107380785148       40.52510333054591       48.01212926400142
H           47.99694008562636       40.49965652230606       49.01224415097635
H           48.73304675518242       42.09431174142340       49.12696518595711
H           53.25189762786424       36.68615682479670       49.39964365290214
H           53.59325698593750       35.49636715552317       51.50937189171753
H           52.62388735763248       36.68784475372352       52.37791184924697