3864
 energy: -5104.246747161995 gnorm: 0.000794571008 xtb: 6.6.1 (8d0f1dd)
C           55.60226452463709       46.74785254339452       66.34172729402444
C           55.90240131177419       47.97488053845127       66.92022830796169
C           56.90271075737890       48.75127402585674       66.34519887359632
C           57.60286463644272       48.29887069016885       65.24123369285174
C           57.29767879721209       47.07081774955519       64.67775593942453
C           56.28729095483621       46.30015225944028       65.22539951989927
C           55.17798626312170       48.42716508652948       68.16286383019624
C           56.17085880514299       48.65836186386988       69.30544778496684
C           54.35345706723336       49.69507192713968       67.90998491071386
C           53.21806091706709       49.47937719438693       66.90015477398813
C           52.28589978977621       48.37567242472372       67.32500933933824
C           52.04165371665328       47.30138363208342       66.47887972568320
C           51.16864015353300       46.29086993721674       66.84390066155422
C           50.52030466977786       46.34023443358826       68.06566162006126
C           50.75487076795994       47.40607662782188       68.91874630946351
C           51.62889021336757       48.41286098779703       68.55072538817515
C           52.45659616808454       50.79725732222543       66.70523212104730
C           51.31699904500498       50.70616182346886       65.66650746566474
C           51.41485062850050       51.88200309833788       64.72974088614181
C           51.78101700386929       51.68958855715221       63.40442828094412
C           51.97624001888359       52.76975168908496       62.56157898771962
C           51.79073441706134       54.05911797630601       63.02691106222011
C           51.40102580071299       54.26253441131735       64.34013064351603
C           51.22444025070854       53.18200925377530       65.18534413856212
C           49.95077486599732       50.61799754934486       66.36191211456585
C           48.76780554175102       50.63807953409657       65.38589128856297
C           48.93407577325559       49.64831916895433       64.25890125980428
C           48.79525348375716       50.05528507423612       62.93843541270969
C           48.88268502681600       49.14373342004622       61.90049826296271
C           49.11893704046471       47.80706658226366       62.16944853250125
C           49.27622106641181       47.39292866645137       63.48095241249256
C           49.18019311099945       48.30442996850472       64.51619081972552
C           47.43181371362635       50.31880055915261       66.08394232415205
C           47.09552597790270       51.15030535596548       67.33066305584843
C           45.81729893117674       50.62883850094400       67.94689114865125
C           44.60445879908003       50.70289550601724       67.27175665964394
C           43.43211157947508       50.25459343053759       67.85144490769331
C           43.44910108530253       49.71411279804244       69.12562841799314
C           44.65173715030909       49.61608794958811       69.80378152919397
C           45.82220895966681       50.06818316734472       69.21799038213101
C           46.96919352271726       52.64692563706344       67.01754896583310
C           46.81113016955380       53.46908346228373       68.30519172396035
C           48.09878802087256       53.42070601040702       69.09168242612472
C           49.28140865472700       53.92124341105836       68.55786227465663
C           50.46974044928808       53.84086002507875       69.26025638249479
C           50.49694510080298       53.26107653955042       70.51736669018915
C           49.32432905634835       52.77339178290499       71.06751667413880
C           48.13737181627604       52.85457517857214       70.35927949599518
C           46.41985882666287       54.93376083052320       68.04652663887882
C           45.03783840706128       55.13005250661667       67.39869835339226
C           44.94352357771650       56.54620158469171       66.88452862482021
C           44.87381681543201       57.63541054946435       67.74541598154032
C           44.83001168959818       58.92679751743796       67.25060068763017
C           44.86370623678057       59.15303502449929       65.88494239418775
C           44.93946068060884       58.07771450776460       65.01837681458053
C           44.97577415473374       56.78894316138901       65.51731882338925
C           43.90040947221143       54.78626628315317       68.36587316342805
C           42.50410142691653       54.88289553757900       67.72546416337342
C           41.46599968962092       54.79566495615443       68.81462852458716
C           41.28319707063298       53.62171304215665       69.53767053208563
C           40.33575636040369       53.55048274802083       70.54129255480635
C           39.55187255984620       54.65170683692737       70.84178068092167
C           39.72867558489482       55.82740948106782       70.13426881621740
C           40.67978037217159       55.89591374271320       69.13105211148866
C           42.30571593443939       53.78693891230638       66.66758066858192
C           40.84966901512307       53.60172436645523       66.20852150898904
C           40.76647912595410       52.37219977583413       65.34038152779655
C           40.12648849350352       51.23079261117670       65.80570945291070
C           40.04983705725666       50.09341014367916       65.02131624047206
C           40.64373366647082       50.06902510332036       63.77195718495732
C           41.30244829646810       51.19276638970274       63.30684776050508
C           41.34964192747361       52.33764258871773       64.08059349625007
C           40.31536163150552       54.85428427216718       65.50338573708594
C           38.90921742254866       54.66419903281730       64.91078782696114
C           37.97638025606084       54.02767822831611       65.90782849078965
C           37.37721721102153       52.80578384050294       65.62641930321342
C           36.53085681769679       52.20158932651690       66.53876144473807
C           36.26928140032525       52.81177094004779       67.75292988600089
C           36.86254074589737       54.02828547525927       68.04662786739037
C           37.70651170255692       54.62989496154304       67.13156313846504
C           38.38424390720346       56.02602650938262       64.42828315302859
C           36.92753045065005       56.00948253641240       63.93897641351941
C           36.47508600235403       57.42622619695657       63.68639953755205
C           36.86668595143590       58.12144496607807       62.54743128051263
C           36.42722530998928       59.41201543121078       62.31731501129128
C           35.59360451879095       60.03644612004179       63.22977708511521
C           35.20920418629863       59.36115782313997       64.37503135593786
C           35.64606067360368       58.06679450876886       64.59748770811218
C           36.76090269652391       55.13095031055997       62.69486312558029
C           35.37220474733986       55.28032787737243       62.05758130391980
C           34.28358784653971       54.96659811705577       63.05039778416297
C           33.29956034289666       55.90418886833756       63.33481747483618
C           32.30010615116161       55.63153495143223       64.25248603317829
C           32.27205711235026       54.41222037242432       64.90685530313644
C           33.24744524894085       53.46871878044549       64.63196352828794
C           34.23979615824507       53.74296386544669       63.70979791462580
C           35.25310868671625       54.40734079207638       60.79853481215319
C           34.35361345209165       55.03341342765617       59.71890304426330
C           34.97864248491679       56.31196635125045       59.22389454240923
C           34.41649008391254       57.53882078540307       59.55230437824284
C           35.01814810303492       58.72369378138180       59.16580435406363
C           36.19381452485779       58.70031965783959       58.43590280337115
C           36.75093729118829       57.48332850713332       58.08003053189078
C           36.15045033064482       56.30195078845529       58.47519279333887
C           34.15092770472805       54.00480536644604       58.60155722585723
C           33.43828958513014       54.53619815776827       57.34963690055920
C           32.09554397421445       55.12574146554132       57.68716656248744
C           31.07661096950608       54.35005869664582       58.22798802915935
C           29.84931299341867       54.90625411422748       58.53930528384685
C           29.61904731524331       56.25322858303571       58.31704691950829
C           30.62721433281726       57.03772276498500       57.78347684516065
C           31.85315202443531       56.47682821664288       57.47293469091005
C           33.33039013045789       53.38289938905317       56.34492178185703
C           32.80262284110870       53.76483459888083       54.95504643325466
C           33.63686751979983       54.86409334111521       54.35371596312303
C           34.96266448103285       54.65267872220583       53.99454950280905
C           35.71711620824092       55.67510384635059       53.44879170686436
C           35.16303131928127       56.92943080637190       53.26402393571518
C           33.84936939683300       57.15652436088276       53.63604115572878
C           33.09164258690507       56.12878760978227       54.16796130016103
C           32.81069935657346       52.49086313601308       54.09833058082908
C           32.45805195821556       52.69918035180780       52.62178396938612
C           31.07600833812012       53.27663650234369       52.46489748339174
C           29.95341190598969       52.56728802389878       52.87900985107371
C           28.68381965623991       53.08750846240809       52.71035412186489
C           28.51420922827872       54.32913503065956       52.12001674859160
C           29.62325597140857       55.04542031527865       51.70414572450784
C           30.89222796855106       54.52111427446240       51.87785015771410
C           32.58406808485967       51.35963107520958       51.86045984039777
C           33.69207749252906       51.37459417666548       50.80134491665127
C           35.03851341704674       51.66067544052309       51.42052506907614
C           35.80319513665390       52.71638484910209       50.94263404109588
C           37.03261158982976       53.01859184807586       51.49901344819793
C           37.51603222477981       52.27257448937997       52.55889085607979
C           36.76510281838231       51.21652894083488       53.04610026046097
C           35.54388050004597       50.90810254408564       52.47342369206340
C           33.72871381959014       50.06183563959764       49.99803966844976
C           32.52096532125210       49.88060744695206       49.06296872244582
C           32.54824910208049       48.53250191841288       48.38382059759675
C           31.49464314154902       47.64401706273937       48.55653666339698
C           31.46284622974951       46.43338261798173       47.88767128583278
C           32.49134448077771       46.09053705310229       47.02799840781854
C           33.55515283581975       46.96121949801741       46.85454089963357
C           33.58154574510282       48.16828242573236       47.52793576299067
C           32.44075835213958       51.00183217935258       48.00499572987557
C           31.36763780966889       52.06369642043619       48.30424709998469
H           54.49012221769610       47.62906136116632       68.46656335264532
H           53.93578326066728       50.03279065412183       68.86056817175250
H           55.00634552596647       50.48880444088450       67.53904842584741
H           53.66545557529376       49.19990196933723       65.93886426224773
H           52.05264014399275       51.12698057656911       67.66474785235046
H           53.18307413794017       51.54574427388084       66.38272593323558
H           51.45793290604468       49.79609996112241       65.07345313933581
H           49.92315298970153       49.70262593541867       66.95620502630030
H           49.84973567007196       51.45901558745123       67.05076692285662
H           48.70775940650136       51.63762002830416       64.94226302001843
H           47.43473231687309       49.26630928968823       66.38023775503187
H           47.89765280631800       51.01676749699765       68.06361438067707
H           47.85946002109052       52.97912855776499       66.48423071776305
H           46.11136442634092       52.79925260951460       66.36441301403553
H           46.02747532631890       53.00329592383930       68.91135413002007
H           46.44324717497431       55.46717686679364       69.00069706799266
H           47.16678701629775       55.39642089277996       67.39940354167771
H           44.96892270584395       54.46180017267621       66.53788206478183
H           44.04074332014200       53.77156608784962       68.74225985382557
H           43.93642402515988       55.45967601013738       69.22566878049091
H           42.42020256055941       55.86378862724111       67.24561689059499
H           40.23186877957466       53.42559819037057       67.09579343025396
H           40.28645545363100       55.66655445284885       66.23098987268243
H           40.98835603713068       55.15222024403860       64.69761294822487
H           38.99259892763816       53.99434855306298       64.04933609699108
H           38.45456830451457       56.74597737161601       65.24785634449299
H           39.02960279016196       56.37700174864342       63.61998514802105
H           36.30313796152423       55.59535563698381       64.73957959359554
H           37.51826767821260       55.40091151520102       61.95556029705922
H           36.92457158527959       54.09257250389197       62.98262914592524
H           35.25988833721244       56.32497724920925       61.75200473770752
H           36.24727496035491       54.26797292657296       60.36921287027673
H           34.85504448235343       53.42591989103713       61.06592224623660
H           33.38015655535758       55.27015019669322       60.16383658070040
H           35.12607999292694       53.62262914790246       58.29478934739263
H           33.58087604070712       53.17003501553853       59.01555176079670
H           34.05560816172314       55.32554401197509       56.90823651210228
H           34.32522205459732       52.95137375196117       56.22142373158778
H           32.67795603168459       52.61117146208499       56.75823121908238
H           31.77242278093325       54.12737830596378       55.05042887893401
H           33.80583857824162       52.04580725683870       54.14148430330606
H           32.10626289846354       51.78241901611531       54.53708128626914
H           33.17511237753999       53.41330071935661       52.20392423592703
H           32.77514936679980       50.55358313892103       52.57004971908363
H           31.63483131582965       51.14234639355664       51.37110156829736
H           33.48542147560313       52.18929924001124       50.10186707981198
H           34.64518410418057       50.05167783959816       49.40495236724336
H           33.77159596923062       49.21156159595213       50.68308197874983
H           54.82275989246891       46.13523520119968       66.77436611495004
H           56.03642075697550       45.34420316988679       64.78767324049116
H           57.84630225589135       46.71801804526849       63.81690744470244
H           58.39236109315949       48.90374380093311       64.81899806511026
H           57.14560992571899       49.71707414541775       66.76539254261762
H           52.53926299558456       47.25977658337164       65.51980673902840
H           50.99084914363088       45.46328853984645       66.17142181261516
H           49.83416777094595       45.55600207561909       68.35199070029041
H           50.25034848357697       47.45302162511226       69.87355786058781
H           51.79425211623891       49.23999697787094       69.22563175433805
H           51.93008063273476       50.68399824481413       63.03463882486518
H           52.28798983529330       52.59818921047363       61.54283356030249
H           51.96097996115750       54.90254588457618       62.37462121517889
H           51.23954693951314       55.26614398176444       64.70934213213330
H           50.95171860081646       53.34732972635875       66.21698870896405
H           48.61254232848332       51.09811657650091       62.72007340472032
H           48.76273183030142       49.47984018676726       60.87929912725154
H           49.18095885213695       47.08774654079297       61.36568364717795
H           49.46966123858469       46.35105687701616       63.69925874637421
H           49.30408092361637       47.96393278224177       65.53482024617345
H           46.63476812208119       50.44880906727963       65.34973432783946
H           44.56821389556585       51.11641522970305       66.27627277273723
H           42.49820553845560       50.33286985476971       67.31089844290062
H           42.53111994241867       49.37276928604112       69.58306119438515
H           44.67849911058283       49.18974983253597       70.79709557720285
H           46.75522474014592       49.98925119263423       69.75992986829466
H           49.27582595571096       54.38089217503597       67.58038748465812
H           51.38015127411815       54.23060544237826       68.82649480627208
H           51.42522503547608       53.19302468818701       71.06626637779807
H           49.33440964315572       52.32562562015498       72.05136901312001
H           47.22662092903827       52.46778081546469       70.79586646273381
H           44.85635078259316       57.48025951600377       68.81467651949428
H           44.77813206419820       59.76195629207709       67.93646145360714
H           44.83646872958184       60.16350420840624       65.50291157431168
H           44.97981730505300       58.23834072310095       63.95115009147327
H           45.04519396325895       55.95747574859354       64.83222758606070
H           41.88091933278328       52.74953139845709       69.31499522330770
H           40.20960988801802       52.62848880981884       71.08957478536946
H           38.80965241766902       54.59436635856353       71.62544418531316
H           39.12369952732755       56.69358960011461       70.36382397900674
H           40.81304114266749       56.82178856264697       68.58733252173992
H           42.91924527242517       54.02144447652492       65.79758281006727
H           42.65570761025695       52.83656667576525       67.07643003616832
H           39.67592279324668       51.23818917592499       66.78942212946154
H           39.52348423803370       49.22346251421569       65.38755204882270
H           40.58780406868438       49.18116206179254       63.16086523526612
H           41.78557383658627       51.17160631588673       62.34030731689941
H           41.84301416017735       53.21622783971673       63.69971106791024
H           37.58649027630472       52.30901350417819       64.68866448138408
H           36.08075789849222       51.24646452380469       66.30548143962770
H           35.60745584968013       52.34331733726248       68.46862510961640
H           36.67062493965337       54.50813020160756       68.99642139021500
H           38.16410903980274       55.57585859867915       67.38142689213004
H           37.50780149152637       57.64632743814365       61.82141180044198
H           36.73175392984555       59.92873848787080       61.41791428417221
H           35.24399742435010       61.04375724204000       63.05078609342417
H           34.55937578514984       59.84103316956075       65.09358878861212
H           35.32748525483884       57.53978629827805       65.48704957229747
H           33.32192189908929       56.86517191713184       62.83876186006123
H           31.54306545020940       56.37455372216863       64.46129020127198
H           31.49567787553864       54.19955492626320       65.62798942121997
H           33.23535288687927       52.51636883592840       65.14323608924940
H           34.99348675637961       52.99564504404421       63.51210305969752
H           33.49449273590371       57.56715334296902       60.11849163719201
H           34.56735225448470       59.66791072320267       59.43922932020146
H           36.67155635720649       59.62559191526996       58.14632566591415
H           37.65940368062095       57.45534841018892       57.49473511873537
H           36.60169968678903       55.36201414773150       58.19323845633509
H           31.23654349635872       53.29818365374513       58.41505447053749
H           29.06768435763484       54.28853786012227       58.95894739732626
H           28.66028374896768       56.68878604927600       58.56012038511055
H           30.45685549638474       58.09129451383205       57.60998496910508
H           32.63704005343698       57.09696451632799       57.06031695240871
H           35.41203002033992       53.68021809409176       54.12721851734447
H           36.74232581527349       55.48663937593395       53.16425178967517
H           35.74215825315974       57.73284708529062       52.83551778710957
H           33.41782068427202       58.13982320222595       53.50654227926614
H           32.06064138443170       56.30709988608255       54.44535305994135
H           30.07007424451924       51.59390423968082       53.33270724334240
H           27.82043503952806       52.52252218733337       53.03202521467328
H           27.52145239288637       54.73417402496733       51.98349460213088
H           29.49880063171783       56.01357150073840       51.23897064290688
H           31.75493732653949       55.08815407262714       51.55540742521284
H           35.42960956963805       53.30363427666817       50.11440105684932
H           37.61007172136934       53.84063847445911       51.10217984234709
H           38.47628568370106       52.50336926259230       52.99659454590748
H           37.14068527731405       50.63012919950082       53.87271596460202
H           34.97835849696013       50.06733638887479       52.84970618386108
H           34.41476623392568       48.83652610220238       47.37508337008568
H           34.36985805693801       46.69983000978803       46.19392238351615
H           32.46362470656831       45.14987152405723       46.49469486481150
H           30.63098595139700       45.75977329895846       48.03791955896812
H           30.68280382717963       47.89881698126883       49.22291015868385
H           55.63782094434888       48.87294813207107       70.22902027007905
H           56.78509139947228       47.77347177114899       69.45921843946968
H           56.82553459218001       49.49785318072995       69.08485872899305
H           31.61223996203428       49.90620507614480       49.66767343149726
H           33.40784459734303       51.50231205744937       47.93054937494105
H           32.22981417178881       50.56876664639816       47.02442835224468
C           29.93834358627586       51.51157839242805       48.12003364317420
C           31.64377240778790       53.26607231452173       47.43680024631968
C           31.51240573371198       53.20200727825133       46.05427924671064
C           31.81166714859733       54.29687461111380       45.26432298149530
C           32.25293783710431       55.47516669042380       45.84430688527130
C           32.39081595895892       55.55102368962560       47.21928312634839
C           32.08924537334747       54.45299413895824       48.00560823240189
H           31.17486619248949       52.28816874620647       45.58687311372793
H           31.70243697763442       54.22322913362722       44.19110386389989
H           32.49076476992494       56.33410266795816       45.23264341205486
H           32.73354813012102       56.46696490619584       47.67976023514208
H           32.19761278222964       54.52358096160047       49.07887201322492
C           29.15223380382752       51.49981730899430       49.43794465186133
H           29.39152049077903       52.12401703865304       47.39941497060374
H           29.97645090827121       50.49567843081944       47.72138315828845
C           27.77725419769141       50.93170989094982       49.24634016919128
C           26.67440030294327       51.76226766636784       49.09922201550789
C           25.41062607338441       51.23275832040572       48.90478765645634
C           25.23257784471651       49.86072968342599       48.85202526390310
C           26.32578315193163       49.02265037363880       48.99442683106169
C           27.58659204256316       49.55583966075407       49.19005352462877
H           26.80892035037167       52.83409423745952       49.14328659501874
H           24.56088752885149       51.89166085485885       48.79590635752854
H           24.24604875647640       49.44672404113506       48.70205259272199
H           26.19321854103120       47.95085655509335       48.95424923165808
H           28.43481760365133       48.89502226861605       49.30183838295250
H           31.46984847461195       52.38489910028239       49.34390762322900
H           29.68455156012921       50.89343006474765       50.17365140368878
H           29.08382532988163       52.51805295394177       49.82624727515537
C           71.89411404095515       48.65712944531454       40.88616529203158
C           71.77110708341763       48.40297778071902       42.24682073957394
C           70.83365733788622       47.46692605357329       42.66292150090167
C           70.03056368504434       46.80734928716193       41.74958964366404
C           70.15138974783022       47.08209153985364       40.39840153673062
C           71.08803765466995       48.00659194516499       39.96957399323907
C           72.63679582591831       49.10341016721689       43.26376008402688
C           74.02425808295847       48.45752571296949       43.29572049954591
C           72.73356894256055       50.61201291245000       42.98908569922769
C           72.90068363948619       51.43410931139130       44.27743498222032
C           73.42827876788665       52.80815254299987       43.94763023841645
C           74.58568531469989       53.29203175701291       44.54249126975009
C           75.06662501156177       54.55551667465765       44.24184742671999
C           74.39710872885229       55.35557605608557       43.33343744664579
C           73.24355596760937       54.88323748330455       42.72979524189557
C           72.76345346789918       53.62365086768052       43.03642806857225
C           71.57605043865026       51.53495167055897       45.06225668477394
C           71.73655443251380       51.27379355218201       46.57167228637559
C           72.05520788245325       49.81946216290346       46.79693051571372
C           71.09200939800876       48.83666348512617       46.59620688985837
C           71.39203535876965       47.49812815149502       46.76587757738361
C           72.67255672612634       47.11417755893323       47.12676137285093
C           73.64234645579334       48.08101206456894       47.32693980465871
C           73.33268158260087       49.42103816392974       47.16814637962968
C           70.45856727770344       51.72907394777529       47.29484312256138
C           70.29672891938867       51.18968027258406       48.72562385695410
C           71.51740814670950       51.45492181534603       49.56812537713358
C           71.92435649196679       52.74603863147034       49.88297979304003
C           73.05600988862982       52.96389919124679       50.64764975193781
C           73.79971636720684       51.89605810849322       51.11728298321042
C           73.40124985573551       50.60599910826894       50.81556022101348
C           72.27158836120552       50.39068297555205       50.04707107548412
C           69.03061639001504       51.79785708642190       49.34300852119346
C           68.68957504173162       51.25333869599687       50.74064562950394
C           68.61722404662071       49.74917434034693       50.70280155690835
C           69.55354890218479       48.97998154427545       51.38215874703744
C           69.54529747886234       47.59966284951471       51.28400634303460
C           68.59801749909420       46.96419760019641       50.50077128465860
C           67.64730397770978       47.71773692771713       49.83334579383929
C           67.65507356491223       49.09566466198461       49.93946115084687
C           67.38559043318081       51.90903510008855       51.21885582669797
C           67.13453861445592       51.80064499517425       52.73129499262397
C           66.26990550624456       52.95743270506961       53.17257894644878
C           66.69981692012468       53.83707293801289       54.15583795947591
C           65.93320163692042       54.93172997754613       54.51830413085594
C           64.71913973611592       55.16219096071767       53.89916486332595
C           64.26564167124754       54.27856157049924       52.93496305021901
C           65.03262870265576       53.18522957286696       52.57871347453218
C           66.48493439670435       50.47183596019480       53.13602212335593
C           66.61310200969993       50.24219439797358       54.64946121340751
C           67.99661736389656       49.75279264909535       54.99050660391296
C           68.42763830242242       48.48893817295172       54.60222455176168
C           69.69259290189130       48.04058051064423       54.93455742097609
C           70.55243655673233       48.84965797761371       55.65886862826298
C           70.13862062077128       50.11222360607513       56.04495974382615
C           68.87114924906427       50.55598954553434       55.71044107921960
C           65.53708456301112       49.27439662963835       55.16948364527118
C           64.23722106395807       50.01498556475011       55.50825022571305
C           64.47322152243208       51.03848798983699       56.59500654976676
C           64.95090893722771       50.66065220421836       57.84558075449188
C           65.15421860126642       51.59680073017239       58.84296643900015