      -----------------------------------------------------------      
     |                   =====================                   |     
     |                           x T B                           |     
     |                   =====================                   |     
     |                         S. Grimme                         |     
     |          Mulliken Center for Theoretical Chemistry        |     
     |                    University of Bonn                     |     
      -----------------------------------------------------------      

   * xtb version 6.6.1 (8d0f1dd) compiled by 'stahn@M-Bot' on 2023-08-01

   xtb is free software: you can redistribute it and/or modify it under
   the terms of the GNU Lesser General Public License as published by
   the Free Software Foundation, either version 3 of the License, or
   (at your option) any later version.
   
   xtb is distributed in the hope that it will be useful,
   but WITHOUT ANY WARRANTY; without even the implied warranty of
   MERCHANTABILITY or FITNESS FOR A PARTICULAR PURPOSE.  See the
   GNU Lesser General Public License for more details.
   
   Cite this work as:
   * C. Bannwarth, E. Caldeweyher, S. Ehlert, A. Hansen, P. Pracht,
     J. Seibert, S. Spicher, S. Grimme, WIREs Comput. Mol. Sci., 2020, 11,
     e01493. DOI: 10.1002/wcms.1493
   
   for GFN2-xTB:
   * C. Bannwarth, S. Ehlert and S. Grimme., J. Chem. Theory Comput., 2019,
     15, 1652-1671. DOI: 10.1021/acs.jctc.8b01176
   for GFN1-xTB:
   * S. Grimme, C. Bannwarth, P. Shushkov, J. Chem. Theory Comput., 2017,
     13, 1989-2009. DOI: 10.1021/acs.jctc.7b00118
   for GFN0-xTB:
   * P. Pracht, E. Caldeweyher, S. Ehlert, S. Grimme, ChemRxiv, 2019, preprint.
     DOI: 10.26434/chemrxiv.8326202.v1
   for GFN-FF:
   * S. Spicher and S. Grimme, Angew. Chem. Int. Ed., 2020, 59, 15665-15673.
     DOI: 10.1002/anie.202004239
   
   for ALPB and GBSA implicit solvation:
   * S. Ehlert, M. Stahn, S. Spicher, S. Grimme, J. Chem. Theory Comput.,
     2021, 17, 4250-4261. DOI: 10.1021/acs.jctc.1c00471
   
   for DFT-D4:
   * E. Caldeweyher, C. Bannwarth and S. Grimme, J. Chem. Phys., 2017,
     147, 034112. DOI: 10.1063/1.4993215
   * E. Caldeweyher, S. Ehlert, A. Hansen, H. Neugebauer, S. Spicher,
     C. Bannwarth and S. Grimme, J. Chem. Phys., 2019, 150, 154122.
     DOI: 10.1063/1.5090222
   * E. Caldeweyher, J.-M. Mewes, S. Ehlert and S. Grimme, Phys. Chem. Chem. Phys.
     2020, 22, 8499-8512. DOI: 10.1039/D0CP00502A
   
   for sTDA-xTB:
   * S. Grimme and C. Bannwarth, J. Chem. Phys., 2016, 145, 054103.
     DOI: 10.1063/1.4959605
   
   in the mass-spec context:
   * V. Asgeirsson, C. Bauer and S. Grimme, Chem. Sci., 2017, 8, 4879.
     DOI: 10.1039/c7sc00601b
   * J. Koopman and S. Grimme, ACS Omega 2019, 4, 12, 15120-15133.
     DOI: 10.1021/acsomega.9b02011
   
   for metadynamics refer to:
   * S. Grimme, J. Chem. Theory Comput., 2019, 155, 2847-2862
     DOI: 10.1021/acs.jctc.9b00143
   
   for SPH calculations refer to:
   * S. Spicher and S. Grimme, J. Chem. Theory Comput., 2021, 17, 1701-1714
     DOI: 10.1021/acs.jctc.0c01306
   
   with help from (in alphabetical order)
   P. Atkinson, C. Bannwarth, F. Bohle, G. Brandenburg, E. Caldeweyher
   M. Checinski, S. Dohm, S. Ehlert, S. Ehrlich, I. Gerasimov, C. Hölzer
   A. Katbashev, J. Koopman, C. Lavigne, S. Lehtola, F. März, M. Müller,
   F. Musil, H. Neugebauer, J. Pisarek, C. Plett, P. Pracht, F. Pultar,
   J. Seibert, P. Shushkov, S. Spicher, M. Stahn, M. Steiner, T. Strunk,
   J. Stückrath, T. Rose, and J. Unsleber
   
 * started run on 2024/06/17 at 15:17:36.059     

           -------------------------------------------------
          |                Calculation Setup                |
           -------------------------------------------------

          program call               : /home/abt-grimme/AK-bin/xtb input.xyz --input input.inp --opt --gbsa water
          hostname                   : boar084.thch.uni-bonn.de
          coordinate file            : input.xyz
          omp threads                :                     8

   ID    Z sym.   atoms
    1    6 C      1-120, 363-482, 725-844, 1087-1206, 1449-1568, 1811-1930,
                  2173-2292, 2535-2654, 2897-3016
    2    1 H      121-362, 483-724, 845-1086, 1207-1448, 1569-1810,
                  1931-2172, 2293-2534, 2655-2896, 3017-3258

molecular fragmentation (1/2 indicates fragments):
111111111111111111111111111111111111111111111111111111111111111111111111
111111111111111111111111111111111111111111111111111111111111111111111111
111111111111111111111111111111111111111111111111111111111111111111111111
111111111111111111111111111111111111111111111111111111111111111111111111
111111111111111111111111111111111111111111111111111111111111111111111111
112222222222222222222222222222222222222222222222222222222222222222222222
222222222222222222222222222222222222222222222222222222222222222222222222
222222222222222222222222222222222222222222222222222222222222222222222222
222222222222222222222222222222222222222222222222222222222222222222222222
222222222222222222222222222222222222222222222222222222222222222222222222
222222222222222222222222222222222222222222222222222222222222222222222222
222222222222222222222222222222222222222222222222222222222222222222222222
222222222222222222222222222222222222222222222222222222222222222222222222
222222222222222222222222222222222222222222222222222222222222222222222222
222222222222222222222222222222222222222222222222222222222222222222222222
222222222222222222222222222222222222222222222222222222222222222222222222
222222222222222222222222222222222222222222222222222222222222222222222222
222222222222222222222222222222222222222222222222222222222222222222222222
222222222222222222222222222222222222222222222222222222222222222222222222
222222222222222222222222222222222222222222222222222222222222222222222222
222222222222222222222222222222222222222222222222222222222222222222222222
222222222222222222222222222222222222222222222222222222222222222222222222
222222222222222222222222222222222222222222222222222222222222222222222222
222222222222222222222222222222222222222222222222222222222222222222222222
222222222222222222222222222222222222222222222222222222222222222222222222
222222222222222222222222222222222222222222222222222222222222222222222222
222222222222222222222222222222222222222222222222222222222222222222222222
222222222222222222222222222222222222222222222222222222222222222222222222
222222222222222222222222222222222222222222222222222222222222222222222222
222222222222222222222222222222222222222222222222222222222222222222222222
222222222222222222222222222222222222222222222222222222222222222222222222
222222222222222222222222222222222222222222222222222222222222222222222222
222222222222222222222222222222222222222222222222222222222222222222222222
222222222222222222222222222222222222222222222222222222222222222222222222
222222222222222222222222222222222222222222222222222222222222222222222222
222222222222222222222222222222222222222222222222222222222222222222222222
222222222222222222222222222222222222222222222222222222222222222222222222
222222222222222222222222222222222222222222222222222222222222222222222222
222222222222222222222222222222222222222222222222222222222222222222222222
222222222222222222222222222222222222222222222222222222222222222222222222
222222222222222222222222222222222222222222222222222222222222222222222222
222222222222222222222222222222222222222222222222222222222222222222222222
222222222222222222222222222222222222222222222222222222222222222222222222
222222222222222222222222222222222222222222222222222222222222222222222222
222222222222222222222222222222222222222222222222222222222222222222222222
222222222222222222
# atoms in fragment 1/2:   362  2896
 fragment masses (1/2) :     1685.21    13481.68
CMA distance (Bohr)    :  10.627
constraining FC (au)   :  0.0500

           -------------------------------------------------
          |                 G F N 2 - x T B                 |
           -------------------------------------------------

        Reference                      10.1021/acs.jctc.8b01176
      * Hamiltonian:
        H0-scaling (s, p, d)           1.850000    2.230000    2.230000
        zeta-weighting                 0.500000
      * Dispersion:
        s8                             2.700000
        a1                             0.520000
        a2                             5.000000
        s9                             5.000000
      * Repulsion:
        kExp                           1.500000    1.000000
        rExp                           1.000000
      * Coulomb:
        alpha                          2.000000
        third order                    shell-resolved
        anisotropic                    true
        a3                             3.000000
        a5                             4.000000
        cn-shift                       1.200000
        cn-exp                         4.000000
        max-rad                        5.000000

      * Solvation model:               GBSA
        Solvent                        water
        Parameter file                 internal GFN2-xTB/GBSA
        Dielectric constant                8.0200E+01
        Reference state                gsolv [1 M gas/solution]
        Free energy shift                  1.8574E-03 Eh       1.1656E+00 kcal/mol
        Temperature                        2.9815E+02 K
        Density                            1.0000E+00 kg/L
        Solvent mass                       1.8000E+01 g/mol
        Interaction kernel             Still
        Born radius scaling (c1)           1.5524E+00
        Born radii integrator          GBOBC
        Born offset                        2.4628E-02 a0       4.6540E-02 AA
        H-bond correction              true
        Ion screening                  false
        Surface tension                    1.0000E-05 Eh       1.5569E+01 dyn/cm
        Grid points                               230 per atom
q/qsh data taken from xtbrestart
CAMM data taken from xtbrestart

          ...................................................
          :                      SETUP                      :
          :.................................................:
          :  # basis functions                6498          :
          :  # atomic orbitals                6498          :
          :  # shells                         4338          :
          :  # electrons                      6498          :
          :  max. iterations                   250          :
          :  Hamiltonian                  GFN2-xTB          :
          :  restarted?                       true          :
          :  GBSA solvation                   true          :
          :  PC potential                    false          :
          :  electronic temp.          300.0000000     K    :
          :  accuracy                    1.0000000          :
          :  -> integral cutoff          0.2500000E+02      :
          :  -> integral neglect         0.1000000E-07      :
          :  -> SCF convergence          0.1000000E-05 Eh   :
          :  -> wf. convergence          0.1000000E-03 e    :
          :  Broyden damping             0.4000000          :
          ...................................................

 iter      E             dE          RMSdq      gap      omega  full diag
   1  -3472.2244540 -0.347222E+04  0.714E-05   10.84       0.0  T
   2  -3472.2244540 -0.344835E-08  0.553E-05   10.84      31.7  T
   3  -3472.2244541 -0.472892E-08  0.275E-05   10.84      63.7  T

   *** convergence criteria satisfied after 3 iterations ***

         #    Occupation            Energy/Eh            Energy/eV
      -------------------------------------------------------------
         1        2.0000           -0.6164497             -16.7744
       ...           ...                  ...                  ...
      3243        2.0000           -0.3872543             -10.5377
      3244        2.0000           -0.3869421             -10.5292
      3245        2.0000           -0.3864027             -10.5146
      3246        2.0000           -0.3860015             -10.5036
      3247        2.0000           -0.3859147             -10.5013
      3248        2.0000           -0.3855760             -10.4921
      3249        2.0000           -0.3840524             -10.4506 (HOMO)
      3250                          0.0142098               0.3867 (LUMO)
      3251                          0.0166815               0.4539
      3252                          0.0169959               0.4625
      3253                          0.0183297               0.4988
      3254                          0.0184434               0.5019
       ...                                ...                  ...
      6498                          0.3691509              10.0451
      -------------------------------------------------------------
                  HL-Gap            0.3982622 Eh           10.8373 eV
             Fermi-level           -0.1849213 Eh           -5.0320 eV

 SCC (total)                   0 d,  0 h,  7 min, 10.048 sec
 SCC setup                      ...        0 min,  1.744 sec (  0.406%)
 Dispersion                     ...        0 min,  3.575 sec (  0.831%)
 classical contributions        ...        0 min,  0.129 sec (  0.030%)
 integral evaluation            ...        0 min,  5.836 sec (  1.357%)
 iterations                     ...        3 min,  6.372 sec ( 43.337%)
 molecular gradient             ...        3 min, 43.825 sec ( 52.047%)
 printout                       ...        0 min,  8.567 sec (  1.992%)

         :::::::::::::::::::::::::::::::::::::::::::::::::::::
         ::                     SUMMARY                     ::
         :::::::::::::::::::::::::::::::::::::::::::::::::::::
         :: total energy           -3426.779357938610 Eh    ::
         :: total w/o Gsasa/hb     -3426.687182604280 Eh    ::
         :: gradient norm              0.628653466242 Eh/a0 ::
         :: HOMO-LUMO gap             10.837266543622 eV    ::
         ::.................................................::
         :: SCC energy             -3472.224454052884 Eh    ::
         :: -> isotropic ES            0.281339102945 Eh    ::
         :: -> anisotropic ES          1.287479913805 Eh    ::
         :: -> anisotropic XC          2.133913533702 Eh    ::
         :: -> dispersion             -4.210849781298 Eh    ::
         :: -> Gsolv                  -0.027661593224 Eh    ::
         ::    -> Gelec                0.064513741107 Eh    ::
         ::    -> Gsasa               -0.089938008901 Eh    ::
         ::    -> Ghb                 -0.004094768556 Eh    ::
         ::    -> Gshift               0.001857443127 Eh    ::
         :: repulsion energy          44.764432878785 Eh    ::
         :: add. restraining           0.000000000000 Eh    ::
         :: total charge              -0.000000000011 e     ::
         :::::::::::::::::::::::::::::::::::::::::::::::::::::

      ----------------------------------------------------------- 
     |              Fast Inertial Relaxation Engine              |
      ----------------------------------------------------------- 

          ...................................................
          :                      SETUP                      :
          :.................................................:
          :   energy convergence        0.5000000E-05 Eh    :
          :   grad. convergence         0.1000000E-02 Eh/a0 :
          :   optimization log               true           :
          :   writing optlog all                1     steps :
          :   Hessian reset                    20     steps :
          :   time step scaling                 5     steps :
          :   maximium step len.        1.0000000     a0    :
          :   initial time step         0.2500000     fs    :
          :   maximum time step         1.2500000     fs    :
          :   power reset thr           0.0000000     au    :
          :   alpha parameter           0.1000000           :
          :   BFGS update                   false           :
          :   preconditioning               false           :
          ...................................................

........................................................................
.............................. CYCLE    1 ..............................
........................................................................

 iter      E             dE          RMSdq      gap      omega  full diag
   1  -3472.4575274 -0.347246E+04  0.737E-03   10.87       0.0  T
   2  -3472.4575708 -0.434343E-04  0.386E-03   10.87       1.0  T
   3  -3472.4575712 -0.423357E-06  0.180E-03   10.87       1.0  T
   4  -3472.4575714 -0.153691E-06  0.225E-04   10.87       7.8  T
   5  -3472.4575714 -0.382406E-07  0.144E-04   10.87      12.2  T
     SCC iter.                  ...        5 min,  3.968 sec
     gradient                   ...        3 min, 44.476 sec
 * total energy  : -3426.8243723 Eh     change    :  -0.4501434E-01 Eh
   gradient norm :     0.5954252 Eh/a0  converged?    E=F G=F D=F
   time step     :     0.2500000 fs     power     :   0.2323474E-05
   step length   :     0.0736768 a0     speed     :   0.7128631E-02

........................................................................
.............................. CYCLE    2 ..............................
........................................................................

 iter      E             dE          RMSdq      gap      omega  full diag
   1  -3472.8008800 -0.347280E+04  0.108E-02   10.91       0.0  T
   2  -3472.8009728 -0.927819E-04  0.566E-03   10.91       1.0  T
   3  -3472.8009738 -0.977596E-06  0.263E-03   10.91       1.0  T
   4  -3472.8009742 -0.376443E-06  0.348E-04   10.91       5.0  T
   5  -3472.8009743 -0.901982E-07  0.230E-04   10.91       7.6  T
     SCC iter.                  ...        4 min, 57.220 sec
     gradient                   ...        3 min, 43.767 sec
 * total energy  : -3426.8862855 Eh     change    :  -0.6191327E-01 Eh
   gradient norm :     0.5474013 Eh/a0  converged?    E=F G=F D=F
   time step     :     0.2500000 fs     power     :   0.3143663E-05
   step length   :     0.1085126 a0     speed     :   0.1049918E-01

........................................................................
.............................. CYCLE    3 ..............................
........................................................................

 iter      E             dE          RMSdq      gap      omega  full diag
   1  -3473.2454889 -0.347325E+04  0.138E-02   10.92       0.0  T
   2  -3473.2456396 -0.150769E-03  0.726E-03   10.92       1.0  T
   3  -3473.2456413 -0.168147E-05  0.335E-03   10.92       1.0  T
   4  -3473.2456420 -0.640516E-06  0.456E-04   10.92       3.8  T
   5  -3473.2456421 -0.150121E-06  0.302E-04   10.92       5.8  T
     SCC iter.                  ...        4 min, 55.775 sec
     gradient                   ...        3 min, 42.662 sec
 * total energy  : -3426.9587078 Eh     change    :  -0.7242228E-01 Eh
   gradient norm :     0.4874954 Eh/a0  converged?    E=F G=F D=F
   time step     :     0.2500000 fs     power     :   0.3607351E-05
   step length   :     0.1405030 a0     speed     :   0.1359442E-01

........................................................................
.............................. CYCLE    4 ..............................
........................................................................

 iter      E             dE          RMSdq      gap      omega  full diag
   1  -3473.7798872 -0.347378E+04  0.164E-02   10.92       0.0  T
   2  -3473.7800948 -0.207632E-03  0.860E-03   10.92       1.0  T
   3  -3473.7800973 -0.248671E-05  0.392E-03   10.92       1.0  T
   4  -3473.7800982 -0.915394E-06  0.550E-04   10.92       3.2  T
   5  -3473.7800984 -0.208065E-06  0.363E-04   10.92       4.8  T
     SCC iter.                  ...        4 min, 54.149 sec
     gradient                   ...        3 min, 42.394 sec
 * total energy  : -3427.0344555 Eh     change    :  -0.7574771E-01 Eh
   gradient norm :     0.4200801 Eh/a0  converged?    E=F G=F D=F
   time step     :     0.2500000 fs     power     :   0.3685335E-05
   step length   :     0.1688222 a0     speed     :   0.1633445E-01

........................................................................
.............................. CYCLE    5 ..............................
........................................................................

 iter      E             dE          RMSdq      gap      omega  full diag
   1  -3474.3902577 -0.347439E+04  0.184E-02   10.92       0.0  T
   2  -3474.3905106 -0.252871E-03  0.963E-03   10.92       1.0  T
   3  -3474.3905139 -0.333842E-05  0.432E-03   10.92       1.0  T
   4  -3474.3905151 -0.116564E-05  0.629E-04   10.92       2.8  T
   5  -3474.3905154 -0.253144E-06  0.412E-04   10.92       4.2  T
   6  -3474.3905155 -0.146972E-06  0.177E-04   10.91       9.9  T
     SCC iter.                  ...        5 min, 55.035 sec
     gradient                   ...        3 min, 41.759 sec
 * total energy  : -3427.1065694 Eh     change    :  -0.7211390E-01 Eh
   gradient norm :     0.3518031 Eh/a0  converged?    E=F G=F D=F
   time step     :     0.2500000 fs     power     :   0.3406435E-05
   step length   :     0.1927540 a0     speed     :   0.1864999E-01

........................................................................
.............................. CYCLE    6 ..............................
........................................................................

 iter      E             dE          RMSdq      gap      omega  full diag
   1  -3475.1336000 -0.347513E+04  0.218E-02   10.92       0.0  T
   2  -3475.1339385 -0.338445E-03  0.114E-02   10.92       1.0  T
   3  -3475.1339435 -0.505476E-05  0.500E-03   10.91       1.0  T
   4  -3475.1339451 -0.158115E-05  0.754E-04   10.91       2.3  T
   5  -3475.1339454 -0.322751E-06  0.482E-04   10.91       3.6  T
   6  -3475.1339456 -0.167814E-06  0.190E-04   10.91       9.2  T
     SCC iter.                  ...        5 min, 59.676 sec
     gradient                   ...        3 min, 42.223 sec
 * total energy  : -3427.1753116 Eh     change    :  -0.6874219E-01 Eh
   gradient norm :     0.2860165 Eh/a0  converged?    E=F G=F D=F
   time step     :     0.2750000 fs     power     :   0.2777973E-05
   step length   :     0.2349742 a0     speed     :   0.2066820E-01

........................................................................
.............................. CYCLE    7 ..............................
........................................................................

 iter      E             dE          RMSdq      gap      omega  full diag
   1  -3476.0044912 -0.347600E+04  0.249E-02   10.91       0.0  T
   2  -3476.0048889 -0.397693E-03  0.131E-02   10.91       1.0  T
   3  -3476.0048963 -0.740234E-05  0.543E-03   10.91       1.0  T
   4  -3476.0048983 -0.205638E-05  0.887E-04   10.91       2.0  T
   5  -3476.0048987 -0.369874E-06  0.556E-04   10.91       3.1  T
   6  -3476.0048989 -0.190748E-06  0.200E-04   10.91       8.8  T
     SCC iter.                  ...        5 min, 48.984 sec
     gradient                   ...        3 min, 41.454 sec
 * total energy  : -3427.2326940 Eh     change    :  -0.5738234E-01 Eh
   gradient norm :     0.2423504 Eh/a0  converged?    E=F G=F D=F
   time step     :     0.3025000 fs     power     :   0.1894241E-05
   step length   :     0.2770335 a0     speed     :   0.2215246E-01

........................................................................
.............................. CYCLE    8 ..............................
........................................................................

 iter      E             dE          RMSdq      gap      omega  full diag
   1  -3476.9669977 -0.347697E+04  0.273E-02   10.91       0.0  T
   2  -3476.9673793 -0.381594E-03  0.145E-02   10.91       1.0  T
   3  -3476.9673894 -0.100579E-04  0.535E-03   10.90       1.0  T
   4  -3476.9673917 -0.231864E-05  0.995E-04   10.90       1.8  T
   5  -3476.9673920 -0.340918E-06  0.605E-04   10.90       2.9  T
   6  -3476.9673922 -0.179725E-06  0.187E-04   10.90       9.3  T
     SCC iter.                  ...        5 min, 58.831 sec
     gradient                   ...        3 min, 41.093 sec
 * total energy  : -3427.2733017 Eh     change    :  -0.4060772E-01 Eh
   gradient norm :     0.2360017 Eh/a0  converged?    E=F G=F D=F
   time step     :     0.3327500 fs     power     :   0.9904089E-06
   step length   :     0.3131089 a0     speed     :   0.2276106E-01

........................................................................
.............................. CYCLE    9 ..............................
........................................................................

 iter      E             dE          RMSdq      gap      omega  full diag
   1  -3477.9455354 -0.347795E+04  0.292E-02   10.91       0.0  T
   2  -3477.9458082 -0.272809E-03  0.159E-02   10.90       1.0  T
   3  -3477.9458205 -0.122979E-04  0.451E-03   10.90       1.0  T
   4  -3477.9458226 -0.209497E-05  0.105E-03   10.90       1.7  T
   5  -3477.9458228 -0.223550E-06  0.601E-04   10.90       2.9  T
   6  -3477.9458229 -0.131079E-06  0.147E-04   10.90      11.9  T
     SCC iter.                  ...        5 min, 56.338 sec
     gradient                   ...        3 min, 40.957 sec
 * total energy  : -3427.2975934 Eh     change    :  -0.2429171E-01 Eh
   gradient norm :     0.2489715 Eh/a0  converged?    E=F G=F D=F
   time step     :     0.3660250 fs     power     :   0.3216871E-06
   step length   :     0.3374644 a0     speed     :   0.2230141E-01

........................................................................
.............................. CYCLE   10 ..............................
........................................................................

 iter      E             dE          RMSdq      gap      omega  full diag
   1  -3478.8464289 -0.347885E+04  0.313E-02   10.91       0.0  T
   2  -3478.8465590 -0.130023E-03  0.177E-02   10.90       1.0  T
   3  -3478.8465723 -0.133709E-04  0.292E-03   10.90       1.0  T
   4  -3478.8465739 -0.154224E-05  0.105E-03   10.90       1.7  T
   5  -3478.8465739 -0.809273E-07  0.528E-04   10.90       3.3  T
   6  -3478.8465740 -0.753275E-07  0.873E-05   10.90      20.1  T
     SCC iter.                  ...        5 min, 57.060 sec
     gradient                   ...        3 min, 41.798 sec
 * total energy  : -3427.3100134 Eh     change    :  -0.1242003E-01 Eh
   gradient norm :     0.2480917 Eh/a0  converged?    E=F G=F D=F
   time step     :     0.4026275 fs     power     :  -0.7831246E-07
   step length   :     0.3510087 a0     speed     :   0.2108771E-01

........................................................................
.............................. CYCLE   11 ..............................
........................................................................
 * reset velocities

 iter      E             dE          RMSdq      gap      omega  full diag
   1  -3478.8296914 -0.347883E+04  0.115E-03   10.90       0.0  T
   2  -3478.8296922 -0.762079E-06  0.658E-04   10.90       2.7  T
   3  -3478.8296922 -0.429281E-08  0.261E-04   10.90       6.7  T
     SCC iter.                  ...        2 min, 55.565 sec
     gradient                   ...        3 min, 42.595 sec
 * total energy  : -3427.3123192 Eh     change    :  -0.2305770E-02 Eh
   gradient norm :     0.2411175 Eh/a0  converged?    E=F G=F D=F
   time step     :     0.2013138 fs     power     :   0.1498207E-06
   step length   :     0.0094269 a0     speed     :   0.1132688E-02

........................................................................
.............................. CYCLE   12 ..............................
........................................................................

 iter      E             dE          RMSdq      gap      omega  full diag
   1  -3478.7963613 -0.347880E+04  0.225E-03   10.90       0.0  T
   2  -3478.7963642 -0.294616E-05  0.130E-03   10.90       1.4  T
   3  -3478.7963642 -0.174350E-07  0.514E-04   10.90       3.4  T
   4  -3478.7963642 -0.841146E-08  0.439E-05   10.90      39.9  T
     SCC iter.                  ...        3 min, 54.809 sec
     gradient                   ...        3 min, 43.538 sec
 * total energy  : -3427.3166741 Eh     change    :  -0.4354893E-02 Eh
   gradient norm :     0.2274523 Eh/a0  converged?    E=F G=F D=F
   time step     :     0.2013138 fs     power     :   0.2786581E-06
   step length   :     0.0185887 a0     speed     :   0.2233526E-02

........................................................................
.............................. CYCLE   13 ..............................
........................................................................

 iter      E             dE          RMSdq      gap      omega  full diag
   1  -3478.7474490 -0.347875E+04  0.329E-03   10.90       0.0  T
   2  -3478.7474554 -0.637980E-05  0.189E-03   10.90       1.0  T
   3  -3478.7474554 -0.443306E-07  0.758E-04   10.90       2.3  T
   4  -3478.7474554 -0.233890E-07  0.743E-05   10.90      23.6  T
     SCC iter.                  ...        3 min, 55.170 sec
     gradient                   ...        3 min, 42.492 sec
 * total energy  : -3427.3225956 Eh     change    :  -0.5921552E-02 Eh
   gradient norm :     0.2075468 Eh/a0  converged?    E=F G=F D=F
   time step     :     0.2013138 fs     power     :   0.3723542E-06
   step length   :     0.0272306 a0     speed     :   0.3271895E-02

........................................................................
.............................. CYCLE   14 ..............................
........................................................................

 iter      E             dE          RMSdq      gap      omega  full diag
   1  -3478.6842509 -0.347868E+04  0.424E-03   10.90       0.0  T
   2  -3478.6842615 -0.106156E-04  0.243E-03   10.90       1.0  T
   3  -3478.6842616 -0.775372E-07  0.979E-04   10.90       1.8  T
   4  -3478.6842616 -0.417253E-07  0.997E-05   10.90      17.6  T
     SCC iter.                  ...        3 min, 49.475 sec
     gradient                   ...        3 min, 42.183 sec
 * total energy  : -3427.3294321 Eh     change    :  -0.6836429E-02 Eh
   gradient norm :     0.1821245 Eh/a0  converged?    E=F G=F D=F
   time step     :     0.2013138 fs     power     :   0.4208996E-06
   step length   :     0.0351135 a0     speed     :   0.4219064E-02

........................................................................
.............................. CYCLE   15 ..............................
........................................................................

 iter      E             dE          RMSdq      gap      omega  full diag
   1  -3478.6084940 -0.347861E+04  0.505E-03   10.90       0.0  T
   2  -3478.6085092 -0.151911E-04  0.290E-03   10.91       1.0  T
   3  -3478.6085093 -0.113416E-06  0.117E-03   10.91       1.5  T
   4  -3478.6085094 -0.613672E-07  0.121E-04   10.91      14.4  T
   5  -3478.6085094 -0.171872E-07  0.834E-05   10.91      21.0  T
     SCC iter.                  ...        4 min, 53.232 sec
     gradient                   ...        3 min, 44.303 sec
 * total energy  : -3427.3364398 Eh     change    :  -0.7007726E-02 Eh
   gradient norm :     0.1521737 Eh/a0  converged?    E=F G=F D=F
   time step     :     0.2013138 fs     power     :   0.4196109E-06
   step length   :     0.0420222 a0     speed     :   0.5049172E-02

........................................................................
.............................. CYCLE   16 ..............................
........................................................................

 iter      E             dE          RMSdq      gap      omega  full diag
   1  -3478.5223578 -0.347852E+04  0.570E-03   10.91       0.0  T
   2  -3478.5223774 -0.195494E-04  0.328E-03   10.91       1.0  T
   3  -3478.5223775 -0.133883E-06  0.133E-03   10.91       1.3  T
   4  -3478.5223776 -0.701152E-07  0.129E-04   10.91      13.5  T
   5  -3478.5223776 -0.200871E-07  0.864E-05   10.91      20.3  T
     SCC iter.                  ...        4 min, 50.422 sec
     gradient                   ...        3 min, 44.172 sec
 * total energy  : -3427.3428722 Eh     change    :  -0.6432451E-02 Eh
   gradient norm :     0.1191453 Eh/a0  converged?    E=F G=F D=F
   time step     :     0.2013138 fs     power     :   0.3699510E-06
   step length   :     0.0477690 a0     speed     :   0.5739677E-02

........................................................................
.............................. CYCLE   17 ..............................
........................................................................

 iter      E             dE          RMSdq      gap      omega  full diag
   1  -3478.4182607 -0.347842E+04  0.684E-03   10.91       0.0  T
   2  -3478.4182891 -0.284471E-04  0.393E-03   10.91       1.0  T
   3  -3478.4182893 -0.189574E-06  0.160E-03   10.91       1.1  T
   4  -3478.4182894 -0.983246E-07  0.153E-04   10.91      11.4  T
   5  -3478.4182895 -0.286345E-07  0.101E-04   10.91      17.4  T
     SCC iter.                  ...        4 min, 51.999 sec
     gradient                   ...        3 min, 41.977 sec
 * total energy  : -3427.3485285 Eh     change    :  -0.5656227E-02 Eh
   gradient norm :     0.0818964 Eh/a0  converged?    E=F G=F D=F
   time step     :     0.2214451 fs     power     :   0.2680166E-06
   step length   :     0.0579025 a0     speed     :   0.6324790E-02

........................................................................
.............................. CYCLE   18 ..............................
........................................................................

 iter      E             dE          RMSdq      gap      omega  full diag
   1  -3478.2979617 -0.347830E+04  0.783E-03   10.91       0.0  T
   2  -3478.2979997 -0.379672E-04  0.451E-03   10.91       1.0  T
   3  -3478.2979999 -0.250911E-06  0.185E-03   10.91       1.0  T
   4  -3478.2980000 -0.128387E-06  0.176E-04   10.91       9.9  T
   5  -3478.2980001 -0.380510E-07  0.114E-04   10.91      15.4  T
     SCC iter.                  ...        4 min, 53.254 sec
     gradient                   ...        3 min, 42.278 sec
 * total energy  : -3427.3522908 Eh     change    :  -0.3762353E-02 Eh
   gradient norm :     0.0497867 Eh/a0  converged?    E=F G=F D=F
   time step     :     0.2435896 fs     power     :   0.1196606E-06
   step length   :     0.0677282 a0     speed     :   0.6725520E-02

........................................................................
.............................. CYCLE   19 ..............................
........................................................................

 iter      E             dE          RMSdq      gap      omega  full diag
   1  -3478.1711357 -0.347817E+04  0.821E-03   10.91       0.0  T
   2  -3478.1711783 -0.426244E-04  0.475E-03   10.91       1.0  T
   3  -3478.1711786 -0.284289E-06  0.197E-03   10.91       1.0  T
   4  -3478.1711787 -0.141098E-06  0.186E-04   10.91       9.4  T
   5  -3478.1711787 -0.430791E-07  0.117E-04   10.91      15.0  T
     SCC iter.                  ...        4 min, 53.007 sec
     gradient                   ...        3 min, 40.530 sec
 * total energy  : -3427.3532587 Eh     change    :  -0.9679166E-03 Eh
   gradient norm :     0.0547813 Eh/a0  converged?    E=F G=F D=F
   time step     :     0.2679486 fs     power     :  -0.3862387E-07
   step length   :     0.0745784 a0     speed     :   0.6732503E-02

........................................................................
.............................. CYCLE   20 ..............................
........................................................................
 * reset velocities

 iter      E             dE          RMSdq      gap      omega  full diag
   1  -3478.1723428 -0.347817E+04  0.120E-04   10.91       0.0  T
   2  -3478.1723428 -0.570162E-08  0.777E-05   10.91      22.5  T
   3  -3478.1723428 -0.353384E-08  0.343E-05   10.91      51.1  T
     SCC iter.                  ...        2 min, 56.054 sec
     gradient                   ...        3 min, 42.571 sec
 * total energy  : -3427.3533091 Eh     change    :  -0.5034503E-04 Eh
   gradient norm :     0.0544335 Eh/a0  converged?    E=F G=F D=T
   time step     :     0.1339743 fs     power     :   0.4970217E-08
   step length   :     0.0009219 a0     speed     :   0.1664481E-03
 * RMSD in coord.:     0.0348040 a0     energy gain  -0.5739511E+00 Eh

........................................................................
.............................. CYCLE   21 ..............................
........................................................................

 iter      E             dE          RMSdq      gap      omega  full diag
   1  -3478.1785017 -0.347818E+04  0.544E-04   10.91       0.0  T
   2  -3478.1785018 -0.795417E-07  0.309E-04   10.91       5.7  T
   3  -3478.1785018 -0.728960E-09  0.813E-05   10.91      21.5  T
     SCC iter.                  ...        2 min, 58.115 sec
     gradient                   ...        3 min, 40.834 sec
 * total energy  : -3427.3535722 Eh     change    :  -0.2630793E-03 Eh
   gradient norm :     0.0527651 Eh/a0  converged?    E=F G=F D=F
   time step     :     0.2500000 fs     power     :   0.1374276E-07
   step length   :     0.0049100 a0     speed     :   0.4750708E-03

........................................................................
.............................. CYCLE   22 ..............................
........................................................................

 iter      E             dE          RMSdq      gap      omega  full diag
   1  -3478.1883569 -0.347819E+04  0.886E-04   10.91       0.0  T
   2  -3478.1883571 -0.203419E-06  0.505E-04   10.91       3.5  T
   3  -3478.1883571 -0.370301E-08  0.131E-04   10.91      13.4  T
     SCC iter.                  ...        2 min, 54.717 sec
     gradient                   ...        3 min, 42.452 sec
 * total energy  : -3427.3539836 Eh     change    :  -0.4114732E-03 Eh
   gradient norm :     0.0502350 Eh/a0  converged?    E=F G=F D=F
   time step     :     0.2500000 fs     power     :   0.2127030E-07
   step length   :     0.0080008 a0     speed     :   0.7741168E-03

........................................................................
.............................. CYCLE   23 ..............................
........................................................................

 iter      E             dE          RMSdq      gap      omega  full diag
   1  -3478.2014280 -0.347820E+04  0.119E-03   10.91       0.0  T
   2  -3478.2014283 -0.355813E-06  0.680E-04   10.91       2.6  T
   3  -3478.2014284 -0.840191E-08  0.173E-04   10.91      10.1  T
     SCC iter.                  ...        2 min, 54.091 sec
     gradient                   ...        3 min, 41.930 sec
 * total energy  : -3427.3545137 Eh     change    :  -0.5300586E-03 Eh
   gradient norm :     0.0471568 Eh/a0  converged?    E=F G=F D=F
   time step     :     0.2500000 fs     power     :   0.2712753E-07
   step length   :     0.0109372 a0     speed     :   0.1058236E-02

........................................................................
.............................. CYCLE   24 ..............................
........................................................................

 iter      E             dE          RMSdq      gap      omega  full diag
   1  -3478.2170410 -0.347822E+04  0.145E-03   10.91       0.0  T
   2  -3478.2170415 -0.500652E-06  0.830E-04   10.91       2.1  T
   3  -3478.2170415 -0.140940E-07  0.205E-04   10.91       8.5  T
     SCC iter.                  ...        3 min,  1.534 sec
     gradient                   ...        3 min, 42.041 sec
 * total energy  : -3427.3551288 Eh     change    :  -0.6151543E-03 Eh
   gradient norm :     0.0439632 Eh/a0  converged?    E=F G=F D=F
   time step     :     0.2500000 fs     power     :   0.3120512E-07
   step length   :     0.0136754 a0     speed     :   0.1323170E-02

........................................................................
.............................. CYCLE   25 ..............................
........................................................................

 iter      E             dE          RMSdq      gap      omega  full diag
   1  -3478.2343325 -0.347823E+04  0.166E-03   10.91       0.0  T
   2  -3478.2343331 -0.600604E-06  0.948E-04   10.91       1.8  T
   3  -3478.2343331 -0.197438E-07  0.223E-04   10.91       7.8  T
     SCC iter.                  ...        2 min, 56.797 sec
     gradient                   ...        3 min, 41.393 sec
 * total energy  : -3427.3557983 Eh     change    :  -0.6694996E-03 Eh
   gradient norm :     0.0411488 Eh/a0  converged?    E=F G=F D=F
   time step     :     0.2500000 fs     power     :   0.3374787E-07
   step length   :     0.0161854 a0     speed     :   0.1566023E-02

........................................................................
.............................. CYCLE   26 ..............................
........................................................................

 iter      E             dE          RMSdq      gap      omega  full diag
   1  -3478.2542206 -0.347825E+04  0.200E-03   10.92       0.0  T
   2  -3478.2542214 -0.765901E-06  0.114E-03   10.91       1.5  T
   3  -3478.2542214 -0.293189E-07  0.249E-04   10.91       7.0  T
   4  -3478.2542215 -0.111977E-07  0.616E-05   10.91      28.4  T
     SCC iter.                  ...        4 min,  6.566 sec
     gradient                   ...        3 min, 42.474 sec
 * total energy  : -3427.3565768 Eh     change    :  -0.7784563E-03 Eh
   gradient norm :     0.0389849 Eh/a0  converged?    E=F G=F D=F
   time step     :     0.2750000 fs     power     :   0.3539167E-07
   step length   :     0.0205562 a0     speed     :   0.1808112E-02

........................................................................
.............................. CYCLE   27 ..............................
........................................................................

 iter      E             dE          RMSdq      gap      omega  full diag
   1  -3478.2755238 -0.347828E+04  0.231E-03   10.91       0.0  T
   2  -3478.2755247 -0.838831E-06  0.132E-03   10.91       1.3  T
   3  -3478.2755247 -0.367349E-07  0.257E-04   10.91       6.8  T
   4  -3478.2755247 -0.147288E-07  0.688E-05   10.91      25.5  T
     SCC iter.                  ...        3 min, 59.741 sec
     gradient                   ...        3 min, 41.953 sec
 * total energy  : -3427.3574686 Eh     change    :  -0.8918176E-03 Eh
   gradient norm :     0.0379808 Eh/a0  converged?    E=F G=F D=F
   time step     :     0.3025000 fs     power     :   0.3677790E-07
   step length   :     0.0255824 a0     speed     :   0.2045651E-02

........................................................................
.............................. CYCLE   28 ..............................
........................................................................

 iter      E             dE          RMSdq      gap      omega  full diag
   1  -3478.2962419 -0.347830E+04  0.256E-03   10.92       0.0  T
   2  -3478.2962426 -0.722270E-06  0.147E-03   10.91       1.2  T
   3  -3478.2962427 -0.461819E-07  0.232E-04   10.91       7.6  T
   4  -3478.2962427 -0.178948E-07  0.759E-05   10.91      23.1  T
     SCC iter.                  ...        3 min, 57.742 sec
     gradient                   ...        3 min, 40.812 sec
 * total energy  : -3427.3585004 Eh     change    :  -0.1031736E-02 Eh
   gradient norm :     0.0380829 Eh/a0  converged?    E=F G=F D=F
   time step     :     0.3327500 fs     power     :   0.3894110E-07
   step length   :     0.0313482 a0     speed     :   0.2278816E-02

........................................................................
.............................. CYCLE   29 ..............................
........................................................................

 iter      E             dE          RMSdq      gap      omega  full diag
   1  -3478.3137558 -0.347831E+04  0.274E-03   10.92       0.0  T
   2  -3478.3137563 -0.460691E-06  0.159E-03   10.92       1.1  T
   3  -3478.3137563 -0.529108E-07  0.184E-04   10.91       9.5  T
   4  -3478.3137563 -0.211821E-07  0.802E-05   10.91      21.8  T
     SCC iter.                  ...        3 min, 53.548 sec
     gradient                   ...        3 min, 41.274 sec
 * total energy  : -3427.3597286 Eh     change    :  -0.1228284E-02 Eh
   gradient norm :     0.0383636 Eh/a0  converged?    E=F G=F D=F
   time step     :     0.3660250 fs     power     :   0.4265236E-07
   step length   :     0.0380750 a0     speed     :   0.2516197E-02

........................................................................
.............................. CYCLE   30 ..............................
........................................................................

 iter      E             dE          RMSdq      gap      omega  full diag
   1  -3478.3253753 -0.347833E+04  0.293E-03   10.92       0.0  T
   2  -3478.3253755 -0.279825E-06  0.171E-03   10.92       1.0  T
   3  -3478.3253756 -0.549030E-07  0.153E-04   10.92      11.4  T
   4  -3478.3253756 -0.260338E-07  0.810E-05   10.92      21.6  T
     SCC iter.                  ...        3 min, 58.147 sec
     gradient                   ...        3 min, 41.979 sec
 * total energy  : -3427.3612240 Eh     change    :  -0.1495356E-02 Eh
   gradient norm :     0.0374368 Eh/a0  converged?    E=F G=F D=F
   time step     :     0.4026275 fs     power     :   0.4752978E-07
   step length   :     0.0461672 a0     speed     :   0.2773609E-02

........................................................................
.............................. CYCLE   31 ..............................
........................................................................

 iter      E             dE          RMSdq      gap      omega  full diag
   1  -3478.3292229 -0.347833E+04  0.322E-03   10.92       0.0  T
   2  -3478.3292235 -0.539466E-06  0.191E-03   10.92       1.0  T
   3  -3478.3292235 -0.535697E-07  0.172E-04   10.92      10.2  T
   4  -3478.3292236 -0.316859E-07  0.767E-05   10.92      22.8  T
     SCC iter.                  ...        3 min, 59.149 sec
     gradient                   ...        3 min, 41.603 sec
 * total energy  : -3427.3630225 Eh     change    :  -0.1798485E-02 Eh
   gradient norm :     0.0343461 Eh/a0  converged?    E=F G=F D=F
   time step     :     0.4428903 fs     power     :   0.5160402E-07
   step length   :     0.0561019 a0     speed     :   0.3064054E-02

........................................................................
.............................. CYCLE   32 ..............................
........................................................................

 iter      E             dE          RMSdq      gap      omega  full diag
   1  -3478.3257436 -0.347833E+04  0.368E-03   10.92       0.0  T
   2  -3478.3257450 -0.141778E-05  0.220E-03   10.92       1.0  T
   3  -3478.3257451 -0.611594E-07  0.259E-04   10.92       6.8  T
   4  -3478.3257451 -0.359769E-07  0.786E-05   10.92      22.3  T
     SCC iter.                  ...        3 min, 55.135 sec
     gradient                   ...        3 min, 41.589 sec
 * total energy  : -3427.3650702 Eh     change    :  -0.2047759E-02 Eh
   gradient norm :     0.0297760 Eh/a0  converged?    E=F G=F D=F
   time step     :     0.4871793 fs     power     :   0.5221017E-07
   step length   :     0.0681944 a0     speed     :   0.3385909E-02

........................................................................
.............................. CYCLE   33 ..............................
........................................................................

 iter      E             dE          RMSdq      gap      omega  full diag
   1  -3478.3199772 -0.347832E+04  0.423E-03   10.92       0.0  T
   2  -3478.3199795 -0.228229E-05  0.255E-03   10.92       1.0  T
   3  -3478.3199796 -0.741852E-07  0.328E-04   10.92       5.3  T
   4  -3478.3199796 -0.393679E-07  0.823E-05   10.92      21.3  T
     SCC iter.                  ...        3 min, 58.262 sec
     gradient                   ...        3 min, 41.239 sec
 * total energy  : -3427.3672346 Eh     change    :  -0.2164376E-02 Eh
   gradient norm :     0.0268804 Eh/a0  converged?    E=F G=F D=F
   time step     :     0.5358972 fs     power     :   0.4876474E-07
   step length   :     0.0823400 a0     speed     :   0.3716587E-02

........................................................................
.............................. CYCLE   34 ..............................
........................................................................

 iter      E             dE          RMSdq      gap      omega  full diag
   1  -3478.3234533 -0.347832E+04  0.475E-03   10.92       0.0  T
   2  -3478.3234551 -0.178276E-05  0.285E-03   10.92       1.0  T
   3  -3478.3234552 -0.930518E-07  0.250E-04   10.92       7.0  T
   4  -3478.3234552 -0.385958E-07  0.862E-05   10.92      20.3  T
     SCC iter.                  ...        3 min, 52.652 sec
     gradient                   ...        3 min, 41.362 sec
 * total energy  : -3427.3694497 Eh     change    :  -0.2215099E-02 Eh
   gradient norm :     0.0274439 Eh/a0  converged?    E=F G=F D=F
   time step     :     0.5894869 fs     power     :   0.4509575E-07
   step length   :     0.0977580 a0     speed     :   0.4011373E-02

........................................................................
.............................. CYCLE   35 ..............................
........................................................................

 iter      E             dE          RMSdq      gap      omega  full diag
   1  -3478.3495338 -0.347835E+04  0.542E-03   10.92       0.0  T
   2  -3478.3495343 -0.484405E-06  0.321E-03   10.92       1.0  T
   3  -3478.3495344 -0.130472E-06  0.169E-04   10.92      10.4  T
   4  -3478.3495345 -0.262976E-07  0.944E-05   10.92      18.6  T
     SCC iter.                  ...        4 min,  3.071 sec
     gradient                   ...        3 min, 42.254 sec
 * total energy  : -3427.3718215 Eh     change    :  -0.2371758E-02 Eh
   gradient norm :     0.0269283 Eh/a0  converged?    E=F G=F D=F
   time step     :     0.6484356 fs     power     :   0.4448665E-07
   step length   :     0.1139546 a0     speed     :   0.4250893E-02

........................................................................
.............................. CYCLE   36 ..............................
........................................................................

 iter      E             dE          RMSdq      gap      omega  full diag
   1  -3478.4040370 -0.347840E+04  0.650E-03   10.93       0.0  T
   2  -3478.4040382 -0.122079E-05  0.376E-03   10.93       1.0  T
   3  -3478.4040384 -0.175577E-06  0.239E-04   10.93       7.3  T
   4  -3478.4040384 -0.216328E-07  0.105E-04   10.93      16.6  T
     SCC iter.                  ...        3 min, 55.441 sec
     gradient                   ...        3 min, 43.377 sec
 * total energy  : -3427.3743863 Eh     change    :  -0.2564803E-02 Eh
   gradient norm :     0.0228723 Eh/a0  converged?    E=F G=F D=F
   time step     :     0.7132792 fs     power     :   0.4282349E-07
   step length   :     0.1322506 a0     speed     :   0.4484903E-02

........................................................................
.............................. CYCLE   37 ..............................
........................................................................

 iter      E             dE          RMSdq      gap      omega  full diag
   1  -3478.4751269 -0.347848E+04  0.735E-03   10.93       0.0  T
   2  -3478.4751298 -0.292592E-05  0.422E-03   10.93       1.0  T
   3  -3478.4751300 -0.192460E-06  0.384E-04   10.93       4.6  T
   4  -3478.4751301 -0.307637E-07  0.110E-04   10.93      15.9  T
     SCC iter.                  ...        3 min, 56.436 sec
     gradient                   ...        3 min, 42.655 sec
 * total energy  : -3427.3769355 Eh     change    :  -0.2549244E-02 Eh
   gradient norm :     0.0225462 Eh/a0  converged?    E=F G=F D=F
   time step     :     0.7846071 fs     power     :   0.3706215E-07
   step length   :     0.1533556 a0     speed     :   0.4727836E-02

........................................................................
.............................. CYCLE   38 ..............................
........................................................................

 iter      E             dE          RMSdq      gap      omega  full diag
   1  -3478.5280245 -0.347853E+04  0.698E-03   10.94       0.0  T
   2  -3478.5280254 -0.852463E-06  0.406E-03   10.94       1.0  T
   3  -3478.5280255 -0.171601E-06  0.199E-04   10.94       8.8  T
   4  -3478.5280256 -0.183481E-07  0.934E-05   10.94      18.8  T
     SCC iter.                  ...        4 min,  3.132 sec
     gradient                   ...        3 min, 42.537 sec
 * total energy  : -3427.3795420 Eh     change    :  -0.2606521E-02 Eh
   gradient norm :     0.0245916 Eh/a0  converged?    E=F G=F D=F
   time step     :     0.8630678 fs     power     :   0.3570907E-07
   step length   :     0.1748157 a0     speed     :   0.4899486E-02

........................................................................
.............................. CYCLE   39 ..............................
........................................................................

 iter      E             dE          RMSdq      gap      omega  full diag
   1  -3478.5393125 -0.347854E+04  0.645E-03   10.94       0.0  T
   2  -3478.5393148 -0.228066E-05  0.387E-03   10.94       1.0  T
   3  -3478.5393150 -0.201655E-06  0.245E-04   10.94       7.2  T
   4  -3478.5393150 -0.272244E-07  0.114E-04   10.94      15.3  T
     SCC iter.                  ...        4 min,  0.480 sec
     gradient                   ...        3 min, 41.475 sec
 * total energy  : -3427.3824720 Eh     change    :  -0.2929999E-02 Eh
   gradient norm :     0.0214233 Eh/a0  converged?    E=F G=F D=F
   time step     :     0.9493746 fs     power     :   0.3638518E-07
   step length   :     0.1983145 a0     speed     :   0.5052798E-02

........................................................................
.............................. CYCLE   40 ..............................
........................................................................

 iter      E             dE          RMSdq      gap      omega  full diag
   1  -3478.5284891 -0.347853E+04  0.654E-03   10.95       0.0  T
   2  -3478.5284942 -0.508058E-05  0.394E-03   10.95       1.0  T
   3  -3478.5284945 -0.286631E-06  0.445E-04   10.95       3.9  T
   4  -3478.5284945 -0.532891E-07  0.157E-04   10.95      11.2  T
     SCC iter.                  ...        3 min, 56.725 sec
     gradient                   ...        3 min, 41.197 sec
 * total energy  : -3427.3855613 Eh     change    :  -0.3089263E-02 Eh
   gradient norm :     0.0236449 Eh/a0  converged?    E=F G=F D=F
   time step     :     1.0443120 fs     power     :   0.3414996E-07
   step length   :     0.2265416 a0     speed     :   0.5247263E-02

........................................................................
.............................. CYCLE   41 ..............................
........................................................................

 iter      E             dE          RMSdq      gap      omega  full diag
   1  -3478.5509261 -0.347855E+04  0.745E-03   10.96       0.0  T
   2  -3478.5509270 -0.878478E-06  0.437E-03   10.96       1.0  T
   3  -3478.5509273 -0.288971E-06  0.243E-04   10.96       7.2  T
   4  -3478.5509273 -0.311825E-07  0.144E-04   10.96      12.2  T
     SCC iter.                  ...        3 min, 56.975 sec
     gradient                   ...        3 min, 40.749 sec
 * total energy  : -3427.3891490 Eh     change    :  -0.3587735E-02 Eh
   gradient norm :     0.0215639 Eh/a0  converged?    E=F G=F D=F
   time step     :     1.1487432 fs     power     :   0.3783383E-07
   step length   :     0.2569634 a0     speed     :   0.5410824E-02

........................................................................
.............................. CYCLE   42 ..............................
........................................................................

 iter      E             dE          RMSdq      gap      omega  full diag
   1  -3478.6016025 -0.347860E+04  0.893E-03   10.98       0.0  T
   2  -3478.6016061 -0.358934E-05  0.518E-03   10.98       1.0  T
   3  -3478.6016064 -0.278114E-06  0.382E-04   10.98       4.6  T
   4  -3478.6016064 -0.401369E-07  0.128E-04   10.98      13.7  T
     SCC iter.                  ...        3 min, 56.472 sec
     gradient                   ...        3 min, 40.460 sec
 * total energy  : -3427.3930669 Eh     change    :  -0.3917888E-02 Eh
   gradient norm :     0.0219349 Eh/a0  converged?    E=F G=F D=F
   time step     :     1.2500000 fs     power     :   0.3589599E-07
   step length   :     0.2919903 a0     speed     :   0.5650326E-02
 * RMSD in coord.:     0.0335857 a0     energy gain  -0.3975785E-01 Eh

........................................................................
.............................. CYCLE   43 ..............................
........................................................................

 iter      E             dE          RMSdq      gap      omega  full diag
   1  -3478.6046898 -0.347860E+04  0.146E-03   10.98       0.0  T
   2  -3478.6046898 -0.396753E-07  0.855E-04   10.98       2.0  T
   3  -3478.6046898 -0.118262E-07  0.521E-05   10.98      33.6  T
     SCC iter.                  ...        2 min, 57.279 sec
     gradient                   ...        3 min, 40.800 sec
 * total energy  : -3427.3938190 Eh     change    :  -0.7520534E-03 Eh
   gradient norm :     0.0217829 Eh/a0  converged?    E=F G=F D=F
   time step     :     0.2500000 fs     power     :   0.3923176E-07
   step length   :     0.0566442 a0     speed     :   0.5480628E-02

........................................................................
.............................. CYCLE   44 ..............................
........................................................................

 iter      E             dE          RMSdq      gap      omega  full diag
   1  -3478.6015023 -0.347860E+04  0.140E-03   10.98       0.0  T
   2  -3478.6015024 -0.177718E-06  0.822E-04   10.98       2.1  T
   3  -3478.6015024 -0.124755E-07  0.864E-05   10.98      20.3  T
     SCC iter.                  ...        2 min, 57.216 sec
     gradient                   ...        3 min, 43.248 sec
 * total energy  : -3427.3946184 Eh     change    :  -0.7994071E-03 Eh
   gradient norm :     0.0201438 Eh/a0  converged?    E=F G=F D=F
   time step     :     0.2500000 fs     power     :   0.4153256E-07
   step length   :     0.0554170 a0     speed     :   0.5361890E-02

........................................................................
.............................. CYCLE   45 ..............................
........................................................................

 iter      E             dE          RMSdq      gap      omega  full diag
   1  -3478.5938842 -0.347859E+04  0.152E-03   10.98       0.0  T
   2  -3478.5938846 -0.410810E-06  0.893E-04   10.98       2.0  T
   3  -3478.5938847 -0.149271E-07  0.157E-04   10.98      11.2  T
     SCC iter.                  ...        2 min, 59.202 sec
     gradient                   ...        3 min, 42.500 sec
 * total energy  : -3427.3954313 Eh     change    :  -0.8129353E-03 Eh
   gradient norm :     0.0180762 Eh/a0  converged?    E=F G=F D=F
   time step     :     0.2500000 fs     power     :   0.4172243E-07
   step length   :     0.0547973 a0     speed     :   0.5301931E-02

........................................................................
.............................. CYCLE   46 ..............................
........................................................................

 iter      E             dE          RMSdq      gap      omega  full diag
   1  -3478.5847843 -0.347858E+04  0.165E-03   10.99       0.0  T
   2  -3478.5847848 -0.516955E-06  0.964E-04   10.99       1.8  T
   3  -3478.5847848 -0.165583E-07  0.180E-04   10.99       9.7  T
     SCC iter.                  ...        3 min,  3.215 sec
     gradient                   ...        3 min, 40.474 sec
 * total energy  : -3427.3962247 Eh     change    :  -0.7933681E-03 Eh
   gradient norm :     0.0170016 Eh/a0  converged?    E=F G=F D=F
   time step     :     0.2500000 fs     power     :   0.4038853E-07
   step length   :     0.0546517 a0     speed     :   0.5287850E-02

........................................................................
.............................. CYCLE   47 ..............................
........................................................................

 iter      E             dE          RMSdq      gap      omega  full diag
   1  -3478.5777611 -0.347858E+04  0.167E-03   10.99       0.0  T
   2  -3478.5777615 -0.379411E-06  0.977E-04   10.99       1.8  T
   3  -3478.5777615 -0.153527E-07  0.142E-04   10.99      12.4  T
     SCC iter.                  ...        2 min, 56.853 sec
     gradient                   ...        3 min, 47.372 sec
 * total energy  : -3427.3969911 Eh     change    :  -0.7664454E-03 Eh
   gradient norm :     0.0171828 Eh/a0  converged?    E=F G=F D=F
   time step     :     0.2500000 fs     power     :   0.3917621E-07
   step length   :     0.0546041 a0     speed     :   0.5283243E-02

........................................................................
.............................. CYCLE   48 ..............................
........................................................................

 iter      E             dE          RMSdq      gap      omega  full diag
   1  -3478.5753345 -0.347858E+04  0.180E-03   10.99       0.0  T
   2  -3478.5753347 -0.179976E-06  0.105E-03   10.99       1.7  T
   3  -3478.5753347 -0.152295E-07  0.817E-05   10.99      21.5  T
   4  -3478.5753347 -0.478440E-08  0.303E-05   10.99      57.7  T
     SCC iter.                  ...        3 min, 57.700 sec
     gradient                   ...        3 min, 42.752 sec
 * total energy  : -3427.3978212 Eh     change    :  -0.8300410E-03 Eh
   gradient norm :     0.0174423 Eh/a0  converged?    E=F G=F D=F
   time step     :     0.2750000 fs     power     :   0.3884840E-07
   step length   :     0.0599078 a0     speed     :   0.5269460E-02

........................................................................
.............................. CYCLE   49 ..............................
........................................................................

 iter      E             dE          RMSdq      gap      omega  full diag
   1  -3478.5798622 -0.347858E+04  0.199E-03   10.99       0.0  T
   2  -3478.5798622 -0.702348E-07  0.116E-03   10.99       1.5  T
   3  -3478.5798622 -0.159289E-07  0.628E-05   10.99      27.9  T
   4  -3478.5798622 -0.541331E-08  0.282E-05   10.99      62.0  T
     SCC iter.                  ...        3 min, 59.738 sec
     gradient                   ...        3 min, 41.936 sec
 * total energy  : -3427.3987327 Eh     change    :  -0.9115552E-03 Eh
   gradient norm :     0.0165546 Eh/a0  converged?    E=F G=F D=F
   time step     :     0.3025000 fs     power     :   0.3883149E-07
   step length   :     0.0657533 a0     speed     :   0.5257842E-02

........................................................................
.............................. CYCLE   50 ..............................
........................................................................

 iter      E             dE          RMSdq      gap      omega  full diag
   1  -3478.5918780 -0.347859E+04  0.227E-03   10.99       0.0  T
   2  -3478.5918782 -0.225071E-06  0.132E-03   10.99       1.3  T
   3  -3478.5918782 -0.214354E-07  0.955E-05   10.99      18.3  T
   4  -3478.5918782 -0.525415E-08  0.346E-05   10.99      50.7  T
     SCC iter.                  ...        3 min, 52.742 sec
     gradient                   ...        3 min, 41.689 sec
 * total energy  : -3427.3997172 Eh     change    :  -0.9844859E-03 Eh
   gradient norm :     0.0145900 Eh/a0  converged?    E=F G=F D=F
   time step     :     0.3327500 fs     power     :   0.3766674E-07
   step length   :     0.0725835 a0     speed     :   0.5276367E-02

........................................................................
.............................. CYCLE   51 ..............................
........................................................................

 iter      E             dE          RMSdq      gap      omega  full diag
   1  -3478.6087008 -0.347861E+04  0.253E-03   11.00       0.0  T
   2  -3478.6087013 -0.484882E-06  0.147E-03   11.00       1.2  T
   3  -3478.6087013 -0.281448E-07  0.150E-04   11.00      11.7  T
   4  -3478.6087013 -0.652153E-08  0.426E-05   11.00      41.1  T
     SCC iter.                  ...        3 min, 53.489 sec
     gradient                   ...        3 min, 41.921 sec
 * total energy  : -3427.4007382 Eh     change    :  -0.1021008E-02 Eh
   gradient norm :     0.0135548 Eh/a0  converged?    E=F G=F D=F
   time step     :     0.3660250 fs     power     :   0.3494372E-07
   step length   :     0.0807555 a0     speed     :   0.5336743E-02

........................................................................
.............................. CYCLE   52 ..............................
........................................................................

 iter      E             dE          RMSdq      gap      omega  full diag
   1  -3478.6230798 -0.347862E+04  0.255E-03   11.00       0.0  T
   2  -3478.6230801 -0.354630E-06  0.149E-03   11.00       1.2  T
   3  -3478.6230801 -0.308787E-07  0.121E-04   11.00      14.5  T
   4  -3478.6230801 -0.634554E-08  0.430E-05   11.00      40.8  T
     SCC iter.                  ...        3 min, 57.623 sec
     gradient                   ...        3 min, 42.175 sec
 * total energy  : -3427.4017847 Eh     change    :  -0.1046429E-02 Eh
   gradient norm :     0.0143258 Eh/a0  converged?    E=F G=F D=F
   time step     :     0.4026275 fs     power     :   0.3264338E-07
   step length   :     0.0897665 a0     speed     :   0.5392943E-02

........................................................................
.............................. CYCLE   53 ..............................
........................................................................

 iter      E             dE          RMSdq      gap      omega  full diag
   1  -3478.6275894 -0.347863E+04  0.246E-03   11.00       0.0  T
   2  -3478.6275895 -0.109424E-06  0.144E-03   11.00       1.2  T
   3  -3478.6275895 -0.316313E-07  0.785E-05   11.00      22.3  T
   4  -3478.6275896 -0.584532E-08  0.413E-05   11.00      42.5  T
     SCC iter.                  ...        3 min, 56.440 sec
     gradient                   ...        3 min, 42.496 sec
 * total energy  : -3427.4028953 Eh     change    :  -0.1110632E-02 Eh
   gradient norm :     0.0141751 Eh/a0  converged?    E=F G=F D=F
   time step     :     0.4428903 fs     power     :   0.3184748E-07
   step length   :     0.0989124 a0     speed     :   0.5402186E-02

........................................................................
.............................. CYCLE   54 ..............................
........................................................................

 iter      E             dE          RMSdq      gap      omega  full diag
   1  -3478.6199153 -0.347862E+04  0.255E-03   11.00       0.0  T
   2  -3478.6199158 -0.485413E-06  0.150E-03   11.00       1.2  T
   3  -3478.6199158 -0.399477E-07  0.133E-04   11.00      13.1  T
   4  -3478.6199158 -0.718046E-08  0.499E-05   11.00      35.1  T
     SCC iter.                  ...        4 min,  1.147 sec
     gradient                   ...        3 min, 41.282 sec
 * total energy  : -3427.4040814 Eh     change    :  -0.1186118E-02 Eh
   gradient norm :     0.0125950 Eh/a0  converged?    E=F G=F D=F
   time step     :     0.4871793 fs     power     :   0.3059168E-07
   step length   :     0.1090678 a0     speed     :   0.5415303E-02

........................................................................
.............................. CYCLE   55 ..............................
........................................................................

 iter      E             dE          RMSdq      gap      omega  full diag
   1  -3478.6067357 -0.347861E+04  0.263E-03   11.01       0.0  T
   2  -3478.6067366 -0.893644E-06  0.155E-03   11.01       1.1  T
   3  -3478.6067367 -0.517748E-07  0.210E-04   11.01       8.4  T
   4  -3478.6067367 -0.982118E-08  0.634E-05   11.01      27.6  T
     SCC iter.                  ...        3 min, 57.468 sec
     gradient                   ...        3 min, 41.356 sec
 * total energy  : -3427.4053080 Eh     change    :  -0.1226635E-02 Eh
   gradient norm :     0.0129779 Eh/a0  converged?    E=F G=F D=F
   time step     :     0.5358972 fs     power     :   0.2845147E-07
   step length   :     0.1209990 a0     speed     :   0.5461545E-02

........................................................................
.............................. CYCLE   56 ..............................
........................................................................

 iter      E             dE          RMSdq      gap      omega  full diag
   1  -3478.6031972 -0.347860E+04  0.256E-03   11.01       0.0  T
   2  -3478.6031975 -0.323123E-06  0.151E-03   11.01       1.2  T
   3  -3478.6031975 -0.513305E-07  0.123E-04   11.01      14.2  T
   4  -3478.6031976 -0.860564E-08  0.633E-05   11.01      27.7  T
     SCC iter.                  ...        3 min, 54.520 sec
     gradient                   ...        3 min, 46.293 sec
 * total energy  : -3427.4066111 Eh     change    :  -0.1303082E-02 Eh
   gradient norm :     0.0135435 Eh/a0  converged?    E=F G=F D=F
   time step     :     0.5894869 fs     power     :   0.2801264E-07
   step length   :     0.1333735 a0     speed     :   0.5472813E-02

........................................................................
.............................. CYCLE   57 ..............................
........................................................................

 iter      E             dE          RMSdq      gap      omega  full diag
   1  -3478.6174997 -0.347862E+04  0.296E-03   11.01       0.0  T
   2  -3478.6175001 -0.377080E-06  0.172E-03   11.01       1.0  T
   3  -3478.6175001 -0.435621E-07  0.150E-04   11.01      11.6  T
   4  -3478.6175001 -0.116825E-07  0.587E-05   11.01      29.8  T
     SCC iter.                  ...        3 min, 57.014 sec
     gradient                   ...        3 min, 41.699 sec
 * total energy  : -3427.4080348 Eh     change    :  -0.1423704E-02 Eh
   gradient norm :     0.0119842 Eh/a0  converged?    E=F G=F D=F
   time step     :     0.6484356 fs     power     :   0.2762016E-07
   step length   :     0.1468497 a0     speed     :   0.5477993E-02

........................................................................
.............................. CYCLE   58 ..............................
........................................................................

 iter      E             dE          RMSdq      gap      omega  full diag
   1  -3478.6416009 -0.347864E+04  0.338E-03   11.02       0.0  T
   2  -3478.6416015 -0.665337E-06  0.196E-03   11.02       1.0  T
   3  -3478.6416016 -0.441655E-07  0.194E-04   11.02       9.0  T
   4  -3478.6416016 -0.124382E-07  0.589E-05   11.02      29.8  T
     SCC iter.                  ...        4 min,  4.178 sec
     gradient                   ...        3 min, 41.497 sec
 * total energy  : -3427.4095368 Eh     change    :  -0.1501946E-02 Eh
   gradient norm :     0.0126724 Eh/a0  converged?    E=F G=F D=F
   time step     :     0.7132792 fs     power     :   0.2623191E-07
   step length   :     0.1630367 a0     speed     :   0.5528926E-02

........................................................................
.............................. CYCLE   59 ..............................
........................................................................

 iter      E             dE          RMSdq      gap      omega  full diag
   1  -3478.6545886 -0.347865E+04  0.324E-03   11.02       0.0  T
   2  -3478.6545888 -0.247720E-06  0.193E-03   11.02       1.0  T
   3  -3478.6545889 -0.546634E-07  0.119E-04   11.02      14.7  T
   4  -3478.6545889 -0.905084E-08  0.667E-05   11.02      26.2  T
     SCC iter.                  ...        4 min,  0.848 sec
     gradient                   ...        3 min, 42.240 sec
 * total energy  : -3427.4111701 Eh     change    :  -0.1633361E-02 Eh
   gradient norm :     0.0119048 Eh/a0  converged?    E=F G=F D=F
   time step     :     0.7846071 fs     power     :   0.2635638E-07
   step length   :     0.1800459 a0     speed     :   0.5550680E-02

........................................................................
.............................. CYCLE   60 ..............................
........................................................................

 iter      E             dE          RMSdq      gap      omega  full diag
   1  -3478.6556607 -0.347866E+04  0.347E-03   11.03       0.0  T
   2  -3478.6556621 -0.139197E-05  0.211E-03   11.03       1.0  T
   3  -3478.6556622 -0.673849E-07  0.234E-04   11.03       7.5  T
   4  -3478.6556622 -0.162909E-07  0.781E-05   11.03      22.4  T
     SCC iter.                  ...        3 min, 55.915 sec
     gradient                   ...        3 min, 41.415 sec
 * total energy  : -3427.4129129 Eh     change    :  -0.1742775E-02 Eh
   gradient norm :     0.0112855 Eh/a0  converged?    E=F G=F D=F
   time step     :     0.8630678 fs     power     :   0.2483372E-07
   step length   :     0.2000941 a0     speed     :   0.5607955E-02

........................................................................
.............................. CYCLE   61 ..............................
........................................................................

 iter      E             dE          RMSdq      gap      omega  full diag
   1  -3478.6770132 -0.347868E+04  0.410E-03   11.04       0.0  T
   2  -3478.6770135 -0.289911E-06  0.243E-03   11.04       1.0  T
   3  -3478.6770135 -0.606674E-07  0.124E-04   11.04      14.1  T
   4  -3478.6770136 -0.105733E-07  0.645E-05   11.04      27.2  T
     SCC iter.                  ...        4 min,  7.371 sec
     gradient                   ...        3 min, 42.569 sec
 * total energy  : -3427.4147484 Eh     change    :  -0.1835526E-02 Eh
   gradient norm :     0.0105501 Eh/a0  converged?    E=F G=F D=F
   time step     :     0.9493746 fs     power     :   0.2410892E-07
   step length   :     0.2223419 a0     speed     :   0.5664986E-02

........................................................................
.............................. CYCLE   62 ..............................
........................................................................

 iter      E             dE          RMSdq      gap      omega  full diag
   1  -3478.7226172 -0.347872E+04  0.557E-03   11.05       0.0  T
   2  -3478.7226185 -0.128248E-05  0.322E-03   11.05       1.0  T
   3  -3478.7226185 -0.849800E-07  0.252E-04   11.05       7.0  T
   4  -3478.7226186 -0.167515E-07  0.748E-05   11.05      23.4  T
     SCC iter.                  ...        4 min,  0.246 sec
     gradient                   ...        3 min, 41.425 sec
 * total energy  : -3427.4166282 Eh     change    :  -0.1879789E-02 Eh
   gradient norm :     0.0104881 Eh/a0  converged?    E=F G=F D=F
   time step     :     1.0443120 fs     power     :   0.2146173E-07
   step length   :     0.2478378 a0     speed     :   0.5740534E-02

........................................................................
.............................. CYCLE   63 ..............................
........................................................................

 iter      E             dE          RMSdq      gap      omega  full diag
   1  -3478.7334757 -0.347873E+04  0.509E-03   11.06       0.0  T
   2  -3478.7334769 -0.113212E-05  0.303E-03   11.06       1.0  T
   3  -3478.7334769 -0.665832E-07  0.192E-04   11.06       9.1  T
   4  -3478.7334770 -0.313521E-07  0.722E-05   11.06      24.3  T
     SCC iter.                  ...        3 min, 59.266 sec
     gradient                   ...        3 min, 41.968 sec
 * total energy  : -3427.4185236 Eh     change    :  -0.1895425E-02 Eh
   gradient norm :     0.0087078 Eh/a0  converged?    E=F G=F D=F
   time step     :     1.1487432 fs     power     :   0.1976345E-07
   step length   :     0.2742432 a0     speed     :   0.5774682E-02

........................................................................
.............................. CYCLE   64 ..............................
........................................................................

 iter      E             dE          RMSdq      gap      omega  full diag
   1  -3478.7366443 -0.347874E+04  0.527E-03   11.07       0.0  T
   2  -3478.7366455 -0.123043E-05  0.314E-03   11.07       1.0  T
   3  -3478.7366456 -0.713349E-07  0.194E-04   11.07       9.0  T
   4  -3478.7366456 -0.301070E-07  0.758E-05   11.07      23.1  T
     SCC iter.                  ...        4 min,  0.364 sec
     gradient                   ...        3 min, 40.065 sec
 * total energy  : -3427.4203597 Eh     change    :  -0.1836020E-02 Eh
   gradient norm :     0.0100480 Eh/a0  converged?    E=F G=F D=F
   time step     :     1.2500000 fs     power     :   0.1737203E-07
   step length   :     0.3015293 a0     speed     :   0.5834916E-02

........................................................................
.............................. CYCLE   65 ..............................
........................................................................

 iter      E             dE          RMSdq      gap      omega  full diag
   1  -3478.7777523 -0.347878E+04  0.609E-03   11.08       0.0  T
   2  -3478.7777541 -0.181464E-05  0.353E-03   11.08       1.0  T
   3  -3478.7777542 -0.704531E-07  0.300E-04   11.08       5.8  T
   4  -3478.7777542 -0.319296E-07  0.749E-05   11.08      23.4  T
     SCC iter.                  ...        3 min, 52.154 sec
     gradient                   ...        3 min, 41.598 sec
 * total energy  : -3427.4220339 Eh     change    :  -0.1674278E-02 Eh
   gradient norm :     0.0104104 Eh/a0  converged?    E=F G=F D=F
   time step     :     1.2500000 fs     power     :   0.1536011E-07
   step length   :     0.2997011 a0     speed     :   0.5799537E-02

........................................................................
.............................. CYCLE   66 ..............................
........................................................................

 iter      E             dE          RMSdq      gap      omega  full diag
   1  -3478.7744369 -0.347877E+04  0.456E-03   11.08       0.0  T
   2  -3478.7744386 -0.169104E-05  0.273E-03   11.08       1.0  T
   3  -3478.7744387 -0.796294E-07  0.244E-04   11.08       7.2  T
   4  -3478.7744387 -0.221726E-07  0.845E-05   11.08      20.7  T
     SCC iter.                  ...        3 min, 57.817 sec
     gradient                   ...        3 min, 41.782 sec
 * total energy  : -3427.4236077 Eh     change    :  -0.1573724E-02 Eh
   gradient norm :     0.0086612 Eh/a0  converged?    E=F G=F D=F
   time step     :     1.2500000 fs     power     :   0.1488255E-07
[...]
  3011   6 C     3012   6 C                                       1.5268859
  3012   6 C     3013   6 C                                       1.5269753
  3013   6 C     3014   6 C                                       1.5264567
  3014   6 C     3015   6 C                                       1.5266215
  3015   6 C     3016   6 C                                       1.5235068
  3015   6 C     3017   1 H                                       1.0928826
  3015   6 C     3018   1 H                                       1.0918431
  3014   6 C     3019   1 H                                       1.0928018
  3014   6 C     3020   1 H                                       1.0931846
  3013   6 C     3021   1 H                                       1.0928828
  3013   6 C     3022   1 H                                       1.0932388
  3012   6 C     3023   1 H                                       1.0934218
  3012   6 C     3024   1 H                                       1.0931081
  3011   6 C     3025   1 H                                       1.0930098
  3011   6 C     3026   1 H                                       1.0923007
  3010   6 C     3027   1 H                                       1.0933067
  3010   6 C     3028   1 H                                       1.0932076
  3009   6 C     3029   1 H                                       1.0924753
  3009   6 C     3030   1 H                                       1.0916850
  3008   6 C     3031   1 H                                       1.0931030
  3008   6 C     3032   1 H                                       1.0932528
  3007   6 C     3033   1 H                                       1.0923522
  3007   6 C     3034   1 H                                       1.0928345
  3006   6 C     3035   1 H                                       1.0917844
  3006   6 C     3036   1 H                                       1.0929981
  3005   6 C     3037   1 H                                       1.0933647
  3005   6 C     3038   1 H                                       1.0917736
  3004   6 C     3039   1 H                                       1.0936375
  3004   6 C     3040   1 H                                       1.0932984
  3003   6 C     3041   1 H                                       1.0902042
  3003   6 C     3042   1 H                                       1.0938893
  3002   6 C     3043   1 H                                       1.0933049
  3002   6 C     3044   1 H                                       1.0901828
  3001   6 C     3045   1 H                                       1.0932661
  3001   6 C     3046   1 H                                       1.0930408
  3000   6 C     3047   1 H                                       1.0935474
  3000   6 C     3048   1 H                                       1.0920458
  2999   6 C     3049   1 H                                       1.0930556
  2999   6 C     3050   1 H                                       1.0925845
  2998   6 C     3051   1 H                                       1.0927616
  2998   6 C     3052   1 H                                       1.0935875
  2997   6 C     3053   1 H                                       1.0928298
  2997   6 C     3054   1 H                                       1.0928317
  2996   6 C     3055   1 H                                       1.0933376
  2996   6 C     3056   1 H                                       1.0931791
  2995   6 C     3057   1 H                                       1.0929180
  2995   6 C     3058   1 H                                       1.0925660
  2994   6 C     3059   1 H                                       1.0919326
  2994   6 C     3060   1 H                                       1.0927652
  2993   6 C     3061   1 H                                       1.0927420
  2993   6 C     3062   1 H                                       1.0926323
  2992   6 C     3063   1 H                                       1.0910335
  2992   6 C     3064   1 H                                       1.0926300
  2991   6 C     3065   1 H                                       1.0927078
  2991   6 C     3066   1 H                                       1.0925955
  2990   6 C     3067   1 H                                       1.0928527
  2990   6 C     3068   1 H                                       1.0931353
  2989   6 C     3069   1 H                                       1.0928639
  2989   6 C     3070   1 H                                       1.0913034
  2988   6 C     3071   1 H                                       1.0933240
  2988   6 C     3072   1 H                                       1.0932039
  2987   6 C     3073   1 H                                       1.0929385
  2987   6 C     3074   1 H                                       1.0925796
  2986   6 C     3075   1 H                                       1.0931728
  2986   6 C     3076   1 H                                       1.0928920
  2985   6 C     3077   1 H                                       1.0928862
  2985   6 C     3078   1 H                                       1.0924956
  2984   6 C     3079   1 H                                       1.0928711
  2984   6 C     3080   1 H                                       1.0927037
  2983   6 C     3081   1 H                                       1.0926340
  2983   6 C     3082   1 H                                       1.0919262
  2982   6 C     3083   1 H                                       1.0927363
  2982   6 C     3084   1 H                                       1.0929949
  2981   6 C     3085   1 H                                       1.0921738
  2981   6 C     3086   1 H                                       1.0912109
  2980   6 C     3087   1 H                                       1.0928832
  2980   6 C     3088   1 H                                       1.0934876
  2979   6 C     3089   1 H                                       1.0935963
  2979   6 C     3090   1 H                                       1.0925439
  2978   6 C     3091   1 H                                       1.0907459
  2978   6 C     3092   1 H                                       1.0930099
  2977   6 C     3093   1 H                                       1.0936602
  2977   6 C     3094   1 H                                       1.0923950
  2976   6 C     3095   1 H                                       1.0912435
  2976   6 C     3096   1 H                                       1.0934528
  2975   6 C     3097   1 H                                       1.0935712
  2975   6 C     3098   1 H                                       1.0921525
  2974   6 C     3099   1 H                                       1.0910763
  2974   6 C     3100   1 H                                       1.0932651
  2973   6 C     3101   1 H                                       1.0933766
  2973   6 C     3102   1 H                                       1.0924092
  2972   6 C     3103   1 H                                       1.0929981
  2972   6 C     3104   1 H                                       1.0933720
  2971   6 C     3105   1 H                                       1.0929371
  2971   6 C     3106   1 H                                       1.0913250
  2970   6 C     3107   1 H                                       1.0928598
  2970   6 C     3108   1 H                                       1.0930417
  2969   6 C     3109   1 H                                       1.0929265
  2969   6 C     3110   1 H                                       1.0920227
  2968   6 C     3111   1 H                                       1.0927949
  2968   6 C     3112   1 H                                       1.0930179
  2967   6 C     3113   1 H                                       1.0924465
  2967   6 C     3114   1 H                                       1.0912779
  2966   6 C     3115   1 H                                       1.0926821
  2966   6 C     3116   1 H                                       1.0933384
  2965   6 C     3117   1 H                                       1.0935617
  2965   6 C     3118   1 H                                       1.0934739
  2964   6 C     3119   1 H                                       1.0897381
  2964   6 C     3120   1 H                                       1.0929035
  2963   6 C     3121   1 H                                       1.0942872
  2963   6 C     3122   1 H                                       1.0932637
  2962   6 C     3123   1 H                                       1.0934265
  2962   6 C     3124   1 H                                       1.0938698
  2961   6 C     3125   1 H                                       1.0921311
  2961   6 C     3126   1 H                                       1.0916993
  2960   6 C     3127   1 H                                       1.0918706
  2960   6 C     3128   1 H                                       1.0922187
  2959   6 C     3129   1 H                                       1.0920992
  2959   6 C     3130   1 H                                       1.0916583
  2958   6 C     3131   1 H                                       1.0921362
  2958   6 C     3132   1 H                                       1.0918277
  2957   6 C     3133   1 H                                       1.0927698
  2957   6 C     3134   1 H                                       1.0930353
  2956   6 C     3135   1 H                                       1.0915573
  2956   6 C     3136   1 H                                       1.0915351
  2955   6 C     3137   1 H                                       1.0934125
  2955   6 C     3138   1 H                                       1.0929876
  2954   6 C     3139   1 H                                       1.0938928
  2954   6 C     3140   1 H                                       1.0937302
  2953   6 C     3141   1 H                                       1.0901018
  2953   6 C     3142   1 H                                       1.0919869
  2952   6 C     3143   1 H                                       1.0941228
  2952   6 C     3144   1 H                                       1.0937511
  2951   6 C     3145   1 H                                       1.0931943
  2951   6 C     3146   1 H                                       1.0942173
  2950   6 C     3147   1 H                                       1.0938064
  2950   6 C     3148   1 H                                       1.0915539
  2949   6 C     3149   1 H                                       1.0934646
  2949   6 C     3150   1 H                                       1.0925815
  2948   6 C     3151   1 H                                       1.0921794
  2948   6 C     3152   1 H                                       1.0928386
  2947   6 C     3153   1 H                                       1.0935017
  2947   6 C     3154   1 H                                       1.0922364
  2946   6 C     3155   1 H                                       1.0904724
  2946   6 C     3156   1 H                                       1.0939590
  2945   6 C     3157   1 H                                       1.0930332
  2945   6 C     3158   1 H                                       1.0921179
  2944   6 C     3159   1 H                                       1.0918204
  2944   6 C     3160   1 H                                       1.0938935
  2943   6 C     3161   1 H                                       1.0928535
  2943   6 C     3162   1 H                                       1.0931939
  2942   6 C     3163   1 H                                       1.0941691
  2942   6 C     3164   1 H                                       1.0923973
  2941   6 C     3165   1 H                                       1.0899644
  2941   6 C     3166   1 H                                       1.0910576
  2940   6 C     3167   1 H                                       1.0930599
  2940   6 C     3168   1 H                                       1.0928965
  2939   6 C     3169   1 H                                       1.0934177
  2939   6 C     3170   1 H                                       1.0917746
  2938   6 C     3171   1 H                                       1.0929192
  2938   6 C     3172   1 H                                       1.0928253
  2937   6 C     3173   1 H                                       1.0923062
  2937   6 C     3174   1 H                                       1.0932445
  2936   6 C     3175   1 H                                       1.0894966
  2936   6 C     3176   1 H                                       1.0928362
  2935   6 C     3177   1 H                                       1.0940213
  2935   6 C     3178   1 H                                       1.0933321
  2934   6 C     3179   1 H                                       1.0925158
  2934   6 C     3180   1 H                                       1.0940153
  2933   6 C     3181   1 H                                       1.0934225
  2933   6 C     3182   1 H                                       1.0914246
  2932   6 C     3183   1 H                                       1.0926901
  2932   6 C     3184   1 H                                       1.0929835
  2931   6 C     3185   1 H                                       1.0915165
  2931   6 C     3186   1 H                                       1.0921398
  2930   6 C     3187   1 H                                       1.0935363
  2930   6 C     3188   1 H                                       1.0927123
  2929   6 C     3189   1 H                                       1.0927179
  2929   6 C     3190   1 H                                       1.0921268
  2928   6 C     3191   1 H                                       1.0938581
  2928   6 C     3192   1 H                                       1.0934211
  2927   6 C     3193   1 H                                       1.0918300
  2927   6 C     3194   1 H                                       1.0919753
  2926   6 C     3195   1 H                                       1.0929911
  2926   6 C     3196   1 H                                       1.0930381
  2925   6 C     3197   1 H                                       1.0914477
  2925   6 C     3198   1 H                                       1.0938616
  2924   6 C     3199   1 H                                       1.0933081
  2924   6 C     3200   1 H                                       1.0914203
  2923   6 C     3201   1 H                                       1.0929698
  2923   6 C     3202   1 H                                       1.0937870
  2922   6 C     3203   1 H                                       1.0929332
  2922   6 C     3204   1 H                                       1.0918920
  2921   6 C     3205   1 H                                       1.0930543
  2921   6 C     3206   1 H                                       1.0929691
  2920   6 C     3207   1 H                                       1.0921941
  2920   6 C     3208   1 H                                       1.0929950
  2919   6 C     3209   1 H                                       1.0943245
  2919   6 C     3210   1 H                                       1.0918011
  2918   6 C     3211   1 H                                       1.0938979
  2918   6 C     3212   1 H                                       1.0930055
  2917   6 C     3213   1 H                                       1.0903901
  2917   6 C     3214   1 H                                       1.0928512
  2916   6 C     3215   1 H                                       1.0936899
  2916   6 C     3216   1 H                                       1.0913190
  2915   6 C     3217   1 H                                       1.0935073
  2915   6 C     3218   1 H                                       1.0929419
  2914   6 C     3219   1 H                                       1.0912713
  2914   6 C     3220   1 H                                       1.0921713
  2913   6 C     3221   1 H                                       1.0931451
  2913   6 C     3222   1 H                                       1.0928083
  2912   6 C     3223   1 H                                       1.0927549
  2912   6 C     3224   1 H                                       1.0933924
  2911   6 C     3225   1 H                                       1.0915694
  2911   6 C     3226   1 H                                       1.0913638
  2910   6 C     3227   1 H                                       1.0932285
  2910   6 C     3228   1 H                                       1.0930063
  2909   6 C     3229   1 H                                       1.0933085
  2909   6 C     3230   1 H                                       1.0934194
  2908   6 C     3231   1 H                                       1.0925768
  2908   6 C     3232   1 H                                       1.0925341
  2907   6 C     3233   1 H                                       1.0932725
  2907   6 C     3234   1 H                                       1.0926969
  2906   6 C     3235   1 H                                       1.0928525
  2906   6 C     3236   1 H                                       1.0922713
  2905   6 C     3237   1 H                                       1.0933436
  2905   6 C     3238   1 H                                       1.0912357
  2904   6 C     3239   1 H                                       1.0938917
  2904   6 C     3240   1 H                                       1.0930381
  2903   6 C     3241   1 H                                       1.0927735
  2903   6 C     3242   1 H                                       1.0902975
  2902   6 C     3243   1 H                                       1.0937434
  2902   6 C     3244   1 H                                       1.0935538
  2901   6 C     3245   1 H                                       1.0939348
  2901   6 C     3246   1 H                                       1.0921319
  2900   6 C     3247   1 H                                       1.0912967
  2900   6 C     3248   1 H                                       1.0931139
  2899   6 C     3249   1 H                                       1.0932548
  2899   6 C     3250   1 H                                       1.0931221
  2898   6 C     3251   1 H                                       1.0922202
  2898   6 C     3252   1 H                                       1.0929938
  2897   6 C     3253   1 H                                       1.0877641
  2897   6 C     3254   1 H                                       1.0868924
  2897   6 C     3255   1 H                                       1.0883191
  3016   6 C     3256   1 H                                       1.0882056
  3016   6 C     3257   1 H                                       1.0880502
  3016   6 C     3258   1 H                                       1.0879061

 * 2 distinct bonds (by element types)

   Z      Z             #   av. dist./Å        max./Å        min./Å
   1 H    6 C        2178     1.0925503     1.0950007     1.0865006
   6 C    6 C        1071     1.5272518     1.5336692     1.5219681


optimized geometry written to: xtbopt.xyz


           -------------------------------------------------
          | TOTAL ENERGY            -3427.492512976044 Eh   |
          | GRADIENT NORM               0.000704018663 Eh/α |
          | HOMO-LUMO GAP              11.267415193764 eV   |
           -------------------------------------------------

------------------------------------------------------------------------
 * finished run on 2024/06/20 at 19:27:10.177     
------------------------------------------------------------------------
 total:
 * wall-time:     3 d,  4 h,  9 min, 34.116 sec
 *  cpu-time:    16 d, 19 h,  9 min, 14.200 sec
 * ratio c/w:     5.294 speedup
 SCF:
 * wall-time:     0 d,  0 h,  7 min, 10.189 sec
 *  cpu-time:     0 d,  0 h, 37 min, 42.436 sec
 * ratio c/w:     5.259 speedup
 ANC optimizer:
 * wall-time:     3 d,  4 h,  1 min, 41.943 sec
 *  cpu-time:    16 d, 18 h, 30 min, 34.836 sec
 * ratio c/w:     5.294 speedup

