3864
 energy: -5104.192308483417 gnorm: 0.000968198297 xtb: 6.6.1 (8d0f1dd)
C           70.77031539619843       55.79145146236511       52.20721134604717
C           69.87486649048223       55.97147529380177       51.16043994943787
C           69.85192532951919       55.02356756651267       50.14396702831652
C           70.68638461551033       53.92173151195804       50.17679185718429
C           71.56244693991484       53.74719559672712       51.23450251887405
C           71.60527855006973       54.68849654877879       52.24793379970841
C           68.90878862779243       57.12994098040820       51.16338180791761
C           68.81326764319910       57.80772702176138       49.79687117478485
C           67.52922464381136       56.62393159191857       51.62500808780499
C           67.48024701489553       56.48116092284665       53.15052066108247
C           67.39900310610552       57.84250070449141       53.79596008863293
C           66.33158455360983       58.69316680097560       53.52534560442249
C           66.25962347850965       59.94873186221978       54.09890666552644
C           67.25220442319049       60.37575262996701       54.96528010193673
C           68.31376680090231       59.53607016833647       55.25280573467926
C           68.38463896445649       58.28222777244557       54.66940989001343
C           66.31970485689007       55.59762713580634       53.62418110875972
C           66.56027520781618       55.10365263533211       55.06061834748647
C           67.66640800414099       54.08062541728788       55.05986717422032
C           67.48556936331920       52.82389010601501       54.49457453832579
C           68.51852696622960       51.90591945357164       54.46180820312278
C           69.75725024081922       52.23106977743404       54.98708932742937
C           69.94940540786523       53.47715268736401       55.55702799788899
C           68.91014334872804       54.38976724497878       55.59512220127749
C           65.25459005207692       54.56602289043154       55.65583968132680
C           65.44225445837213       53.81871074439503       56.98278634388056
C           66.28057452281595       54.59689792059311       57.96378633564508
C           65.89372582817985       55.85344472813428       58.41546815878149
C           66.66179520634510       56.54727229273054       59.33224289088819
C           67.83504903874913       55.99462946626948       59.81608134359401
C           68.23421396652388       54.74527322518749       59.37197473399393
C           67.46224857958536       54.05502591318476       58.45437070970254
C           64.06922591293720       53.49855033991430       57.58564527695195
C           64.15563708763931       52.52843203548384       58.77249569011880
C           64.73071719714608       51.20758293816908       58.32447329800996
C           65.92814044122034       50.74075789330707       58.85010245241626
C           66.47688195081136       49.54578227067804       58.41957416769492
C           65.84173047422922       48.80162025644214       57.44085190898180
C           64.64965881195458       49.25691940044390       56.90443152920749
C           64.09874575624809       50.44445045213799       57.34903178351156
C           62.76466942993698       52.36556166461922       59.41118565697471
C           62.74361629214009       52.33327195813118       60.95163410232783
C           63.53197894686650       51.13621495320792       61.42809698427333
C           62.94667222258389       49.87631891198767       61.34762232345855
C           63.63387258149184       48.73852039531472       61.72439419364156
C           64.93125549173705       48.83964367640276       62.19662434299237
C           65.52328848894814       50.08568762044064       62.29191457376439
C           64.83102150050253       51.22276015822102       61.91033747945613
C           63.20441097068536       53.65111108261858       61.58620287565210
C           62.22195842181446       54.82250626782817       61.40157032807075
C           62.97220573922650       56.12816514172214       61.51064635294875
C           63.69200330985178       56.44900630936031       62.65618185466334
C           64.37663607646888       57.64684663072164       62.74994302500142
C           64.35282164827667       58.54858848837318       61.69876079989934
C           63.64180319678263       58.24155591046691       60.55234989588406
C           62.96147309260152       57.03999985147190       60.46354271965123
C           61.07510406891856       54.77333171892289       62.42173983447812
C           60.07715856505541       55.93632344718229       62.25876662176760
C           59.30870960926691       56.11042603009581       63.54402320060619
C           59.56187160270979       57.20646014049858       64.36002583551591
C           58.88745563150466       57.37722877105673       65.55591710343205
C           57.94675924063597       56.44554254377504       65.95872923675076
C           57.69489177265304       55.34239454069172       65.16136847331833
C           58.36984773984293       55.17683279868599       63.96596350984564
C           59.15525647737676       55.72575516247454       61.04986713935506
C           58.05000133175507       56.78505212558794       60.91673314815059
C           57.10187951497354       56.43354702687211       59.79594386652049
C           55.73482432710768       56.36194927210938       60.02955430688220
C           54.84358752147701       56.11402313160136       58.99875117243372
C           55.31321617195177       55.91673553027770       57.71212296537491
C           56.67476995556383       55.96909231575433       57.46925888681076
C           57.55879914339823       56.23046386581822       58.49929344815195
C           58.61973469859689       58.19262166379374       60.68130266111093
C           57.51786711178874       59.24870688378312       60.50815135986800
C           56.55251615971005       59.26290188808254       61.66638053486612
C           55.18213034815302       59.24281290117693       61.43253696180032
C           54.28009585874312       59.24392320449050       62.48066570971105
C           54.73394642385117       59.26392366857079       63.78792464701287
C           56.09561049320615       59.30115644201106       64.03424330386088
C           56.99458753839965       59.30759214756386       62.98309017076536
C           58.15132592058267       60.63469613798541       60.31411518887954
C           57.12461176658509       61.75166584295820       60.07345703802801
C           57.78677097658168       63.10164948617155       60.20744112755286
C           57.37724203326210       63.99894757116904       61.18539565955914
C           57.95480497418739       65.25255728542069       61.28925702358656
C           58.95865621776425       65.62947041434710       60.41423807458561
C           59.38387069770904       64.74149887821486       59.44055996413374
C           58.80233865340045       63.49145368962690       59.34139208508131
C           56.44927844691387       61.64868071681158       58.69966962157131
C           55.30343430044064       62.66783853619206       58.57609718624117
C           54.04441445301637       62.13949446846936       59.21106791607613
C           53.37235953349339       61.05157949520572       58.66679398822261
C           52.21141686580424       60.57567023305538       59.24611690099636
C           51.70469316003489       61.17721655372655       60.38503548370647
C           52.36875339530330       62.25588561835236       60.94282859335314
C           53.52935748974928       62.73076277135646       60.35746073814825
C           55.08131245352684       63.04672949847575       57.10614932860684
C           53.91330269291516       64.02298298669800       56.88506015179932
C           53.85297809852938       65.08815181783640       57.95192248149171
C           54.97538031882250       65.84320882373640       58.27732404048238
C           54.91863811288540       66.81234801280878       59.26207676508186
C           53.73167176297538       67.05136808646748       59.93367664802425
C           52.60434560801045       66.31839037595221       59.60740406011675
C           52.66548747864190       65.34664748455080       58.62386397570312
C           54.02106720055244       64.72890253390391       55.52171456263291
C           54.05212219113037       63.77991140626618       54.31287545135464
C           54.85617093521814       64.38148327604945       53.18583542586982
C           55.83003147698271       63.63736639491044       52.53122941587548
C           56.56025350181451       64.17841946786351       51.48765678123042
C           56.32790318403163       65.47884743538445       51.07743748028859
C           55.37433562319497       66.23987889335123       51.73320752686944
C           54.64703402434771       65.69445529049564       52.77707799497860
C           52.63701886151257       63.40880404393351       53.82934342772474
C           52.66336592361046       62.07540946308158       53.06014218549330
C           52.71522770618747       60.93589707418869       54.05518284510687
C           53.88610128680693       60.21756449332513       54.26065144480182
C           53.94770610543178       59.20003678268623       55.19843485104767
C           52.82468768548723       58.86443492748862       55.93343719940281
C           51.64788181171971       59.56587579842923       55.73481944800553
C           51.60079549202327       60.59732947758218       54.81621250980308
C           51.48481777046603       61.84986136032803       52.10171865637855
C           51.18597314879357       62.95544827267012       51.07411657847035
C           50.15965198033616       62.40374905646984       50.11254019714916
C           50.50510722801818       61.44866201420728       49.16175437275691
C           49.55326446370799       60.91920645983481       48.30929338272040
C           48.23666124790292       61.34036614917535       48.38718164089168
C           47.87721331217831       62.28499683949881       49.33215516104740
C           48.83267557411968       62.80743748349231       50.18783697999785
C           52.42821168293371       63.47162869543669       50.33967491346583
C           52.05795297808852       64.51164775601497       49.27206196277721
C           51.21649396803526       65.61881303405004       49.86132698482636
C           49.90236759727870       65.79977821661308       49.44900863551594
C           49.11165329219644       66.79807174069303       49.99085283265070
C           49.62975428298477       67.64482321375338       50.95568420041782
C           50.94300121407799       67.48544485112438       51.36580161310378
C           51.72718325603398       66.48287733885134       50.82386738712614
C           53.30813658393496       65.11175896715756       48.61433718503793
C           54.07834816138683       64.17175046281459       47.67243516990304
C           55.36164669624182       64.86305531749312       47.27709490242260
C           55.34493344473580       66.05389396230268       46.55897857597805
C           56.51897207736294       66.69809923528216       46.21513962702861
C           57.73909082995049       66.16197800381227       46.58789030744855
C           57.76969462027395       64.98002781270955       47.30480414855005
C           56.59304454619961       64.33743050565685       47.64336743494552
C           53.25918841719339       63.80275410359079       46.43029157580776
C           54.02179129560682       62.86461837283909       45.48291258246381
H           69.26097410706787       57.87518058253103       51.88603833834819
H           66.75494418651733       57.31536418451845       51.29366858678829
H           67.33305755304048       55.65608572018505       51.15885297021988
H           68.40895070157842       55.99104160165754       53.46378294571294
H           65.38325309575121       56.15535736059438       53.58072782319091
H           66.22543806257566       54.73291407052087       52.96524360654949
H           66.88575648990076       55.95537061972748       55.66956772732186
H           64.58407294413414       55.41320075298666       55.80508588702412
H           64.77692245282969       53.88812904334046       54.94568586034336
H           65.95542513333447       52.87399244468322       56.77325605094273
H           63.43584150604886       53.06951768616381       56.80730717270038
H           64.84526961357086       52.96351035537454       59.50087022424668
H           62.12247103721808       53.18482746717884       59.08652440014765
H           62.32044511417207       51.43847542845007       59.04772177764835
H           61.69843985084395       52.17127541029582       61.24348542171340
H           63.35786945077049       53.48442234665836       62.65470241806867
H           64.16345348175324       53.95186451067214       61.15935295103797
H           61.79269856485519       54.76506981151973       60.39888438201228
H           60.54398708520337       53.82386360721685       62.33621900711806
H           61.49687888529828       54.82278894662463       63.42882283408773
H           60.66432384185475       56.84575651482923       62.09526549744613
H           57.48323759942659       56.80376978171483       61.85468055261210
H           59.25774590149936       58.46961070407207       61.52034898244244
H           59.24022752162101       58.19016365168246       59.78269031080594
H           56.95410396532167       58.99700965435532       59.60466160816384
H           58.73122119374607       60.88648776038868       61.20628293637035
H           58.84390817935014       60.58731488386636       59.47172083227702
H           56.34797842350194       61.67090119250539       60.84279018191050
H           57.18973170167509       61.83579510927513       57.91976487211408
H           56.05961580805198       60.64216044372141       58.54913746789678
H           55.60106904871827       63.57219152848415       59.11593173164500
H           56.00408180492369       63.49186274528809       56.72633806086075
H           54.89021817690332       62.13571268667685       56.53731211603466
H           52.97778054139616       63.45463001493044       56.92169062831100
H           53.18223565787401       65.42357960314520       55.42769410547058
H           54.93510219144813       65.32852895618387       55.52459427264998
H           54.55173964527653       62.85787450081719       54.61627247782008
H           51.97260138820491       63.31887477781451       54.69049216576791
H           52.25267243630368       64.21238008050125       53.19979402216187
H           53.58047496417517       62.05840154968138       52.46209812766858
H           51.68495441567172       60.91706516371783       51.56651597557683
H           50.56962371765596       61.69249742117658       52.67356318294444
H           50.73300793539264       63.80350142050690       51.60058863107992
H           53.11261311934427       63.92818058985172       51.05500046880263
H           52.95101930428351       62.63979723929490       49.86656559728662
H           51.45544420040169       64.01435329031140       48.50591463180996
H           53.00557029341083       65.99398567817460       48.04650892737054
H           53.99501935320921       65.44315172053440       49.39758767998522
H           70.82029267703338       56.52595880114050       52.99963314663323
H           72.29084009532609       54.56345971382442       53.07409297659583
H           72.21487345865533       52.88606955807126       51.27007606557962
H           70.64660607380365       53.20030612040292       49.37270455696785
H           69.18023068348650       55.14442113376343       49.30797820242967
H           65.54607361645670       58.37642541277005       52.85430883619753
H           65.42433828469447       60.59551713104220       53.87044305240668
H           67.20269788232709       61.35776749090130       55.41400215527560
H           69.09152734440748       59.85904676845327       55.93069221277342
H           69.22213450246301       57.63581976334270       54.89621255110114
H           66.52534192639712       52.55391721098718       54.08093435303544
H           68.35874295241928       50.93041700274539       54.02534633740060
H           70.56708340618994       51.51615804523249       54.95658089536944
H           70.91114465712724       53.73822145322207       55.97673145761676
H           69.06475641287774       55.35528903032207       56.05806709851823
H           64.98466995106266       56.30834113615014       58.05394314534380
H           66.33876732709368       57.51966288930869       59.67520824555935
H           68.43555885277556       56.53401458481540       60.53489516935722
H           69.15073451079536       54.30656851112045       59.74215173450369
H           67.78209750668674       53.08066625020209       58.11031727997205
H           63.61064961626844       54.42711675931183       57.93143503237275
H           66.44022548607128       51.31915649406697       59.60609374142683
H           67.40749159226672       49.19797245688476       58.84712743681926
H           66.27262257772377       47.87127838118209       57.09866023904205
H           64.14612500037512       48.68220625647525       56.14048239712867
H           63.16508812286681       50.77661712595867       56.92118556533915
H           61.93169547850860       49.78264352289278       60.98660375583145
H           63.15802836273136       47.77086233012575       61.65015606487037
H           65.47499203181857       47.95368619221015       62.49204331584384
H           66.53461249496085       50.17484009338749       62.66405809045815
H           65.32043486165801       52.18127782292891       61.99487874331805
H           63.71888959487549       55.75909716012836       63.48703745097116
H           64.93113981436403       57.87989030225226       63.64845318268686
H           64.88717108605238       59.48516762039565       61.77545824994225
H           63.61594268986294       58.93653044853846       59.72519333574241
H           62.40673175392438       56.81484054605097       59.56504335422193
H           60.30450210758116       57.93421963091927       64.05871818550170
H           59.09798040707121       58.23812798023351       66.17566888227222
H           57.41724247452471       56.57565667847335       66.89222348505976
H           56.97556762251786       54.59886051797416       65.47320551554894
H           58.16066810248880       54.30546165490894       63.36444943752826
H           59.76667351718752       55.72791666987032       60.14760154171159
H           58.67925648262155       54.74482050181783       61.12237744109677
H           55.36449545429458       56.52583438907007       61.03263558764451
H           53.78279520451434       56.07866999047593       59.20736248831954
H           54.63163773381859       55.72649144720385       56.89533262683586
H           57.04242181559923       55.81750797403005       56.46608049103440
H           58.61564571223260       56.28669193823572       58.28558716958327
H           54.81272000646270       59.22381595467198       60.41705242228409
H           53.21938122867878       59.22542808279228       62.27511727861508
H           54.03296226626988       59.25099875867300       64.61101487300631
H           56.46177602458051       59.31955852962483       65.05132856911641
H           58.05175649211407       59.33651946031788       63.20061688648894
H           56.59118436373289       63.71347212322319       61.87187951477758
H           57.61637226473614       65.93862894476378       62.05311472480870
H           59.40719401659412       66.60957984668507       60.49095191314218
H           60.16704208371623       65.02799400738246       58.75298007564083
H           59.14345365044004       62.81176498171674       58.57436341878662
H           53.74947251388961       60.57228094794863       57.77501772378358
H           51.69552196609865       59.73749994065622       58.80179640087773
H           50.79330101735660       60.80973331153148       60.83377219571764
H           51.97740928085723       62.73184132787708       61.83157929379779
H           54.03744363455418       63.58218715945644       60.79087301073411
H           55.91303397057455       65.66950417775070       57.76900728818993
H           55.80606155770128       67.37800565825670       59.50976692436653
H           53.68222449061956       67.80420589816075       60.70782153983816
H           51.67701646364505       66.50647968806477       60.12891351203098
H           51.77830647902941       64.77794675475204       58.38111544663319
H           56.02856280938073       62.62259588026960       52.84638057791682
H           57.32091584781055       63.58652138200461       50.99954118237319
H           56.88826956630255       65.90106942702847       50.25540870504385
H           55.19963404755651       67.26389138545568       51.42967729037580
H           53.91073237282807       66.30144949309100       53.28480697775942
H           54.76754734864235       60.45207135213236       53.67874064719811
H           54.87210910605699       58.66397990816882       55.35346285876991
H           52.87359891938191       58.06344290503173       56.65761188420507
H           50.75786842005405       59.31601919992024       56.29465236506993
H           50.67168995456501       61.13338915236390       54.69062816164359
H           51.52797694182049       61.10927623486321       49.08260764854382
H           49.83768118767969       60.16444012066007       47.58906435557003
H           47.49557522591152       60.93359742758752       47.71603491280887
H           46.84679911100388       62.60696865270646       49.39943785974701
H           48.54865044923381       63.54701673413727       50.92513898596570
H           49.48283635504692       65.14478177342797       48.70035231782357
H           48.09151712092381       66.91155236845015       49.65224457920502
H           49.01920907045542       68.42461648024349       51.38778765986134
H           51.35555398528864       68.14588784647999       52.11556691655927
H           52.74773035326536       66.37046023215099       51.15372508765316
H           56.63029100818990       63.41437641266401       48.20313313600991
H           58.71881364032745       64.55772908188075       47.59748077810333
H           58.65922635424666       66.66239104662252       46.32237498107538
H           56.48240194115284       67.62432156084620       45.65838719463452
H           54.40444397872778       66.49478628426866       46.26205247637836
H           69.80856556448656       58.00519899307272       49.40281555825630
H           68.27250170914554       57.18205325477911       49.09091007278557
H           68.28988803832738       58.75763689829968       49.89006115546005
H           54.33368783601220       63.25273646218512       48.20872609421457
H           52.32736705400872       63.32195621973296       46.72950451905339
H           53.00360235057877       64.72142170567308       45.90502152224553
C           53.53851838776108       63.00363510871590       44.03081313155072
C           53.89642223276321       61.42622497701969       45.92273756063541
C           55.00235400681695       60.73565924877020       46.39829769743762
C           54.91126093380750       59.40091954424717       46.75359527141447
C           53.70600635188192       58.73271481983346       46.63450504023884
C           52.58897913625623       59.41532188316847       46.18189265167815
C           52.68313435054542       60.75099792543266       45.83470877667592
H           55.94619028904438       61.25257074005545       46.48697337750806
H           55.78632651142252       58.88515471132843       47.12253802663855
H           53.63094015340977       57.68803501716965       46.89850797598831
H           51.64182749386467       58.89985915276007       46.09305323603495
H           51.80272153291035       61.26874378466277       45.48306041594411
C           54.00046886585655       64.30314022767391       43.36606988161079
H           53.93393091829724       62.16878016232292       43.44821669765891
H           52.44908779965279       62.95049946564841       43.99149238675635
C           53.55243452496095       64.35540836351477       41.93382088057906
C           52.22930334291615       64.64254576949325       41.61757315407505
C           51.81268993872549       64.70381628745184       40.30073054979422
C           52.71180174473815       64.46191957507513       39.27578657732870
C           54.02702094448871       64.15415041089663       39.57923134659847
C           54.44198327458091       64.10085930658981       40.89826247375267
H           51.51307132409637       64.83325325618766       42.40341100416532
H           50.78420441566184       64.94845781091395       40.07710410819015
H           52.38987411233088       64.51405731789578       38.24518702468309
H           54.73459967487394       63.96168603824081       38.78465589182927
H           55.47103597658867       63.85783624256046       41.12382910465605
H           55.08160601592096       63.14221782197573       45.50462783522155
H           53.59306399407843       65.16255237391208       43.90212105837239
H           55.08875560401633       64.36517975173865       43.42048495558036
C           66.25955036615231       62.50090378310295       45.09204120546789
C           67.52710010877911       62.01290644084934       44.79849111425924
C           68.00291707741377       60.93131122057551       45.53101406521140
C           67.22088490117845       60.34009079295335       46.50781462714571
C           65.95752287918059       60.83126099314979       46.78617147016745
C           65.48447049507560       61.92500730374800       46.08244880472361
C           68.36013916730995       62.69678272211807       43.74290786981474
C           69.37789047767460       63.61905405406260       44.42320515242157
C           69.07873341231991       61.72055883295164       42.80502942571882
C           68.13047971379018       60.71596948692867       42.13758456891225
C           67.08390614382367       61.41067975916709       41.30548154519503
C           67.42948884631456       62.12194766594120       40.16255515510279
C           66.45959829595037       62.74154185451154       39.39454506888359
C           65.12565264773463       62.65849915860749       39.75690532825373
C           64.76857804764211       61.95423620189268       40.89360085201556
C           65.74214997874937       61.33614953165242       41.65861438722685
C           68.93043499180644       59.70451541469697       41.29279928293504
C           69.24498042624757       58.41267101411725       42.06485675468335
C           70.36952818722544       57.65366552209615       41.40956609691505
C           71.52323764589565       57.35016818260091       42.12103344275916
C           72.55384395935529       56.63724643237447       41.53341453276086
C           72.44548737220350       56.21596385860792       40.21957247899670
C           71.30027635036599       56.51422582996998       39.49980780185295
C           70.27236702039238       57.22666999030162       40.08995725806066
C           67.98433820901718       57.54090989944235       42.15040158767689
C           68.23605351890988       56.13711297797250       42.70915927091659
C           68.98774830346601       56.12899874866613       44.01660651076280
C           69.93331441083814       55.13984835745508       44.25948904523368
C           70.61089157077181       55.07726262471695       45.46360419058946
C           70.36657933376040       56.02121464553739       46.44567840586074
C           69.42944294974794       57.01325722283704       46.21389516957889
C           68.73428099856397       57.05714630671392       45.01878814923719
C           66.91776687965867       55.37122423055956       42.92655149568109
C           65.95101788216827       55.37814096533566       41.73488531547869
C           64.67005560196306       54.66808758120186       42.10338800579024
C           63.45838043783208       55.34699198556089       42.08785873674244
C           62.27192806663786       54.69742520323938       42.38160807654822
C           62.27825087053933       53.35239262586784       42.70064748008753
C           63.48325524779395       52.67177540946913       42.74593671756251
C           64.66715208591799       53.32042277528799       42.44863655827796
C           66.55736963994188       54.74533658090775       40.47605885344685
C           65.73275457136604       55.08329884193995       39.21943107826151
C           66.08772182051509       56.47761908775195       38.76757889900501
C           67.23727759627586       56.72465876009522       38.02530203876878
C           67.59313792007849       58.01619628866344       37.67589820422835
C           66.81750121016573       59.08839231410824       38.08456890239506
C           65.66997279101864       58.85746382599659       38.82289039753289
C           65.30483067829461       57.56265946409092       39.14703628402576
C           65.95952619481206       54.02652060439704       38.12960433819732
C           65.10649849684724       52.76753866274611       38.37210308056629
C           65.78070128079145       51.55625454655056       37.77756016569669
C           65.87281622152224       51.37516699727222       36.40195083230335
C           66.48067535992699       50.25007497085276       35.87417455344135
C           67.01215961198254       49.28509104263743       36.71369768789809
C           66.94541689268307       49.46416936511081       38.08417333456102
C           66.33870228193811       50.59174094538874       38.60921941421813
C           63.68805842300861       52.95875349242827       37.81977696581174
C           62.80288549040048       51.71724027142620       38.01269660490728
C           61.66011979935389       51.75252906419662       37.02953241399464
C           61.55330292364844       50.78274800954516       36.04136773422341
C           60.53462305137564       50.83014759234813       35.10574891762280