3536
 energy: -3716.274162596166 gnorm: 0.000822354796 xtb: 6.6.1 (8d0f1dd)
C           52.27403983042237       71.30030488218179       50.02630131780227
C           53.50345387899120       72.03418995862842       50.55837141494408
C           54.67252004154000       71.85720548691926       49.58928037855956
C           53.91702205774651       71.52416582567717       51.94424349954814
C           52.87808282564563       71.69513542172575       53.05736444602118
C           52.62680013367362       73.17455618928837       53.34898745869074
C           53.32902841862128       71.00110448560029       54.35154605853818
C           53.44445105355594       69.47183926358217       54.29131102290376
C           52.08083878570010       68.82406828121107       54.06816912980180
C           54.08241019941903       68.96368944300168       55.59033691213563
C           54.50638117844758       67.48874056194474       55.59030934866579
C           55.00447532896370       67.12294651742907       56.98830045234668
C           55.59380810638658       67.19007971536445       54.54444387750861
C           55.08275515141248       66.58297717107801       53.22742843307010
C           54.69455017214865       65.12170634475306       53.43940215638487
C           56.17931219970787       66.72436245254225       52.16438193380075
C           55.84208753514431       66.23035742515890       50.75042934902163
C           57.12480276615159       66.20786925950222       49.92189503929648
C           54.76258066732063       67.10683920523940       50.10368681400109
C           54.45689050476286       66.83865978899317       48.62115642705225
C           53.39277176933816       67.83588069364302       48.15903552990171
C           53.99711434495807       65.39530198325113       48.38900978581034
C           53.92694794631289       64.96366722095672       46.91805106723947
C           53.06836676434892       63.70587186735855       46.80010156298059
C           55.32521104773998       64.69206679657003       46.34944236431674
C           55.42957434883825       64.85858689046965       44.82609719255613
C           56.56904955988214       63.99492949860297       44.29241608034890
C           55.64310714721135       66.33933957225908       44.48864882508011
C           55.56191759075055       66.72874670084808       43.00619001980545
C           56.09028260050102       68.15551075338517       42.84972080018797
C           54.12688168608926       66.62569229726968       42.47531464382044
C           53.99643305475249       66.74109996730772       40.94491665864295
C           52.84974051380213       67.68785594475915       40.58383556483740
C           53.74715773076532       65.38383386368230       40.27260925823907
C           54.87979048370849       64.35816324684197       40.39140199433380
C           56.13204774578548       64.83122490067778       39.65201719193904
C           54.45837868934274       62.99833318818967       39.81261644499862
C           53.30227060118943       62.28644134982751       40.52549246353491
C           53.64364360470500       61.98824107844195       41.98314485698614
C           52.94498898096290       60.98461003044319       39.78782755203110
C           51.46246670826287       60.60668666364273       39.91323814577804
C           51.26719822657147       59.12215410876328       39.61142258142733
C           50.60218457370972       61.46244310141679       38.97227215679387
C           49.14902736292035       61.64132432496429       39.43686069604913
C           48.30279242562782       62.12597862177322       38.25916489842570
C           49.06531264205903       62.61941185889228       40.62429074722048
C           48.16880188466116       62.15291666153973       41.77645088301617
C           46.70106890286659       62.08358834366013       41.35604822811072
C           48.29392140259559       63.07950660411500       42.99512668111662
C           49.67698154753668       63.16037991795678       43.65415382971277
C           50.21803922843280       61.77325046434067       43.99660148825475
C           49.61470476148671       63.98196092491498       44.94868035816882
C           49.33556305848668       65.48233345693190       44.81114649531725
C           50.50378865383890       66.19346082328452       44.12972124902920
C           49.10245512740961       66.09151341982160       46.20308304428372
C           47.71869225600712       65.79073239512502       46.79431026651145
C           46.68506629563905       66.77159736868299       46.23856708571174
C           47.71795541512920       65.87003546546617       48.32735075915124
C           48.48801683707027       64.76616165952247       49.06404090876132
C           47.89334078607246       63.38568082939986       48.78725791357184
C           48.46808917061450       65.01628599607054       50.57995987751558
C           49.32220983518376       66.18179814437809       51.08998941485022
C           50.81121694423025       65.89500287464963       50.90368345827304
C           49.05963625911899       66.43354262468412       52.58180297696003
C           47.64561397786456       66.88742716224598       52.95935818887082
C           47.24987989667121       68.15329767943166       52.19887500471547
C           47.54673382899922       67.17954235715905       54.46339187941118
C           47.95348764160351       66.04917965367208       55.41409321758169
C           47.12447851262143       64.78942998538356       55.16765490256550
C           47.78318361882908       66.48682315910516       56.87584819391585
C           48.70215317896233       67.62249145093725       57.34941784752095
C           50.16021770136446       67.17231440638855       57.37222645195391
C           48.23837697338586       68.07676180557131       58.73781184514139
C           48.93331123217975       69.30413506516949       59.33966727694188
C           48.28787998497411       69.59119479615541       60.69785574267511
C           48.83672433516757       70.56184145396458       58.45929980781874
C           50.00888275163160       70.83906388527738       57.50890843549828
C           51.31668001455649       71.00643429040787       58.28203201268583
C           49.76139730489555       72.12719494643460       56.70725839451355
C           48.64571656250729       72.09208085962555       55.65148992695688
C           49.04992680688200       71.24239312370396       54.45149377799544
C           48.33938832465203       73.53865333712048       55.23727932683513
C           47.28413328998370       73.75318561811746       54.14151961723108
C           47.11167535635597       75.25968893474533       53.94026845447357
C           45.96089680493544       73.07326471714671       54.51250813123307
C           44.75511831248022       73.37011406402463       53.60957939174698
C           43.53705702346643       72.62879405567446       54.16151471983827
C           45.02505613483188       72.97917092784645       52.15284453368313
C           43.91238425480147       73.39695585339115       51.19133466580445
C           44.36666930422443       73.31751525388970       49.73794359206528
H           51.39007157266359       71.53412440736537       50.61370084399200
H           52.07645728126173       71.59102160017841       48.99635400561223
H           52.43457277439144       70.22479509796433       50.05351145607513
H           43.55186453578629       73.57849611083908       49.06584046887424
H           45.19092476086409       74.00485613975809       49.55783017527978
H           44.70239016901205       72.31180340364182       49.49687921497904
H           45.94850624888519       73.45817956120169       51.82356579033987
H           45.17236278631459       71.89867236688954       52.08916349007518
H           46.11462145223966       71.99343684198266       54.51554027959141
H           45.69930868200498       73.37330664471835       55.53072632616090
H           47.66071053561598       73.32527201776924       53.20764100566423
H           48.07994336187517       75.73377338889212       53.79015171418526
H           46.49469080636677       75.47803683496508       53.07281099245861
H           46.64632007606122       75.70897019458955       54.81574385186840
H           48.01072585617109       74.08464445457862       56.12461257441805
H           49.27203016244186       74.00104902979389       54.89869620817874
H           49.53944375030346       72.92544018667084       57.42172531542191
H           50.69108619811483       72.40479382580047       56.20187991943104
H           44.54015610346380       74.44373035698901       53.64461768814437
H           43.68855920591397       71.55340148477261       54.09860624619347
H           43.37282600028052       72.89126013895287       55.20503133984448
H           42.63807667259091       72.88507173196001       53.60704810808387
H           47.74761567445638       71.66043496813569       56.09913603792011
H           49.89938359376835       71.68897728980603       53.93985798138237
H           49.32761825626429       70.24031167804557       54.76626284812887
H           48.22900786790026       71.15360000196272       53.74462876027187
H           50.12713581683214       70.00615514743095       56.81294249191151
H           52.13743538087218       71.21637597120770       57.60046592677929
H           51.23260163867657       71.83373971877270       58.98463234374877
H           51.57546316231890       70.11245322397954       58.84253707252641
H           47.91272177891116       70.50670772253207       57.88271715638216
H           48.75253805908304       71.43046322002877       59.11683921997681
H           49.98148716873438       69.05903708844728       59.52182712661499
H           47.24615757704866       69.87892259476091       60.57123917884452
H           48.32186952397657       68.70910255972045       61.33396960014175
H           48.80549074922553       70.40130681601829       61.20883011095200
H           47.16663222608493       68.28979770601725       58.69451470077953
H           48.37272385103016       67.24081434406541       59.42984542978753
H           48.59733026754913       68.46574186042987       56.66247610391448
H           50.28129578918093       66.32988952049038       58.04849069570283
H           50.49126146058421       66.86903006690974       56.38252404142842
H           50.81236717287932       67.97324560384803       57.70823097703863
H           46.74268996009796       66.79241931330112       57.01795762302512
H           47.95408615330838       65.62171757235053       57.52202626363195
H           49.00496255543477       65.80371946839398       55.24748032338621
H           46.06191602221374       65.01153768978828       55.24455984959013
H           47.31712017917823       64.37803215223406       54.18075004791056
H           47.36631109106956       64.02586296341148       55.90490054531669
H           48.16896668423694       68.05260998044974       54.66832275772223
H           46.51310920815597       67.45554974803073       54.68983859333535
H           46.92778830315295       66.10078781785056       52.71049035566999
H           46.30044148288554       68.53684755674649       52.56749569021265
H           48.00403446312798       68.92714556106131       52.33072044800016
H           47.13839998864952       67.95783488744024       51.13583512726164
H           49.29073824524122       65.50928245448773       53.11457138961561
H           49.75920308942837       67.19891144731720       52.92826114357457
H           49.08181701845854       67.08848202260346       50.52815775016082
H           51.09174625664049       64.97985340836976       51.42132027644205
H           51.05885526787448       65.78413970495674       49.85134757569197
H           51.40732623086924       66.71234657544986       51.30513456286361
H           47.43002415506919       65.18491540093231       50.87170535555615
H           48.80803933256166       64.10923239510156       51.08754947153423
H           49.52549275898271       64.75759985715123       48.71882162617936
H           47.99099644698049       63.11573609028482       47.73936075171759
H           48.41482409008722       62.63182807479915       49.37331478200269
H           46.83829566931438       63.35874684858132       49.05291466758713
H           48.12720738796042       66.84225862717282       48.61211889604725
H           46.67881136513871       65.84114575865253       48.66857608396113
H           47.40898856216977       64.78669505306635       46.49404639661120
H           46.69934210180608       66.77495858733243       45.15115798279439
H           45.68138600444350       66.49905053426339       46.55957661919089
H           46.89240743786034       67.78279516897770       46.58517361758502
H           49.88207326311246       65.71783666008403       46.86868555021965
H           49.22225376003180       67.17635704722281       46.14664050127925
H           48.43629752891663       65.63557236803993       44.20635488283456
H           50.66960252469293       65.80668607155029       43.12736043967612
H           50.30753423725110       67.26084930909781       44.04739647303311
H           51.41672897831602       66.05565596034486       44.70568027504597
H           48.85138920860067       63.53377090264510       45.58785303557410
H           50.57060447638570       63.87494881071648       45.46356294685580
H           50.37908320037610       63.64143509778613       42.96664866627939
H           50.41619274594628       61.19686797370179       43.09701913958884
H           51.14920476841996       61.85943607333083       44.55286317190382
H           49.50336711197313       61.22562901045046       44.60639911595326
H           47.98800539927478       64.08273335629549       42.68840740696314
H           47.58082062490507       62.73967237485132       43.75170104704090
H           48.47671657888255       61.14321454222058       42.06745144188652
H           46.55702609070911       61.36026146444834       40.55747691026396
H           46.07831502254798       61.78273166053651       42.19698549968104
H           46.35472318127498       63.05601568635158       41.01043481986972
H           50.06932271196604       62.76888249723106       41.02123910865794
H           48.71214638662828       63.59136707761785       40.27130633373780
H           48.76774555204105       60.66478567895143       39.75455036988816
H           48.71283425228049       63.05132790234913       37.85801715551368
H           48.29431270469287       61.38466087117933       37.46200015800260
H           47.27586650177341       62.31159671117558       38.56185098535373
H           51.04680685550171       62.45362473418928       38.85781480124013
H           50.60750494719522       60.99546598743118       37.98401168944091
H           51.14583021262862       60.78599189180368       40.94551322825415
H           51.64248886089495       58.88451934628971       38.61740964030304
H           51.80064037020621       58.51094770523505       40.33540040853412
H           50.21382505495745       58.85431674549040       39.65237460612570
H           53.18608594537758       61.07727888814325       38.72597634619303
H           53.55820005155252       60.17423060186887       40.18859351691086
H           52.42387832098071       62.93863657822366       40.50110400481141
H           53.70021589081521       62.90161702707826       42.56940996907502
H           52.88352146000547       61.35140551794053       42.42946305879970
H           54.60315418128669       61.47892472982283       42.04634075967834
H           54.18253642020620       63.14645488145832       38.76423575609125
H           55.32742615072301       62.33449461975722       39.82946280800445
H           55.12977809116349       64.22545632532652       41.44628060029421
H           55.90593326247470       65.01978701865515       38.60397298934204
H           56.52752505712478       65.74680455466358       40.08403591755468
H           56.91174790755980       64.07403501806255       39.69950097855985
H           52.83665582324341       64.96551310853695       40.70676506444010
H           53.55109964590974       65.55310902947808       39.20948061635976
H           54.91441417503335       67.16838482154958       40.53280298715935
H           51.90659219391727       67.30982523657127       40.97427466849436
H           53.02260389496157       68.67678227779462       41.00304761899336
H           52.75592682042264       67.78880907919124       39.50406259392502
H           53.68939345242568       65.67843379884100       42.79258558581670
H           53.53993313814487       67.41754708631626       42.94720716522159
H           56.20659660471512       66.06371938123803       42.42550672354190
H           56.02569393165729       68.49501278840408       41.81871543346022
H           55.51421323330852       68.84222654432222       43.46755692987090
H           57.13248064178240       68.21490654760107       43.15701720665101
H           54.90722159893297       66.93596919133351       45.03423435262704
H           56.63055022338187       66.62381544396338       44.86054857168397
H           54.49476852778777       64.51294512874165       44.37241450732858
H           57.51144807813574       64.28676737515042       44.74988922075067
H           56.38605509826630       62.94560049281207       44.51364663261893
H           56.66737101209317       64.09469789102127       43.21549923017192
H           56.05156208856936       65.36142757729652       46.81165524796136
H           55.61126488271855       63.67450609723454       46.62090274446580
H           53.45024605122502       65.75595706047042       46.33191147919290
H           53.01855285401614       63.36632336498273       45.76753661492352
H           53.49038530124331       62.90286236217967       47.40047934455057
H           52.05586970154172       63.89412473345416       47.15182481790466
H           54.67392162323572       64.70867354224232       48.89631430443681
H           53.01126563197333       65.27601902797232       48.84355664160818
H           55.36172105129015       67.02760834745629       48.03577334798232
H           53.16582470332244       67.71428257138315       47.10288355428112
H           52.47082509218082       67.70067369265708       48.72139898092712
H           53.73665981466299       68.85775911133628       48.30681657585201
H           53.83368599991284       66.98730055450508       50.66604225270641
H           55.07043025739242       68.15327682982840       50.19807713658737
H           55.46802599957804       65.20654689931021       50.82366413386759
H           57.48347437932028       67.21906782471399       49.74169081783209
H           57.90325732257320       65.65967868051743       50.44794214336109
H           56.96476165389267       65.72019236601801       48.96482608425910
H           56.46597864894528       67.77877199581519       52.09542056029397
H           57.05405353997735       66.17287373960531       52.51945811936305
H           54.19680217379238       67.13180668830105       52.89916052605645
H           55.57906998028299       64.51770993485250       53.62945714887888
H           54.02731268172487       65.02000112435400       54.29207104161267
H           54.18211380403299       64.72206143608410       52.56839920582576
H           56.13715454421887       68.11327170108665       54.33230178453144
H           56.31810482903858       66.48950650803768       54.96791231291153
H           53.62683372506267       66.87240294824889       55.38315269057976
H           54.22726236993349       67.30411088371370       57.72818431466273
H           55.28330581079982       66.07208668220380       57.03371710964387
H           55.87484329529089       67.72005603418130       57.25427948414778
H           54.96815985137527       69.56864904326366       55.80615534696380
H           53.37268549932243       69.12312099234251       56.40703805343496
H           54.10362722586272       69.20726570116346       53.46159310558313
H           51.63648088689587       69.15874394175493       53.13387129839202
H           52.16743629765353       67.74117358250501       54.02598604755135
H           51.40795472743624       69.08058405049458       54.88301296604624
H           54.29928463783488       71.41593300310248       54.63925105324902
H           52.61750434762797       71.25512210765235       55.14185487773211
H           51.93494062105854       71.24758390460228       52.73452461442835
H           52.21165633309102       73.68396523435217       52.48281706614325
H           51.92319069748619       73.28915667309842       54.17126945578144
H           53.55471832495917       73.67171532539481       53.62621429280885
H           54.15797165448564       70.46449365864511       51.84120009197067
H           54.83149511106462       72.04161661439277       52.24695214655148
H           53.27521373564164       73.10401429017010       50.61644124964907
H           54.94306964943450       70.80612639333670       49.50732795698779
H           54.41143964530475       72.22221141111999       48.59785399400587
H           55.54566175202793       72.40750958990368       49.93419222185433
H           43.03939408604667       72.75625464323660       51.32773289496780
H           43.60772566393387       74.42308846575185       51.41448419446100
C           58.97669838213773       69.31696978297371       57.71595908793004
C           59.79543215126638       68.05205142953380       57.96947959051163
C           60.25594985192809       67.46130959257678       56.64109389226732
C           58.96818035888111       67.03458470011589       58.76436689572053
C           59.78945163832893       65.88671801772760       59.38005479781012
C           59.10898356140548       64.54419143514356       59.11628872929492
C           59.98004222253950       66.06505427571992       60.89181687464104
C           60.79222630982669       67.30013543521208       61.29608632201759
C           62.28110115299189       67.07471115855610       61.03196095767896
C           60.59505882115253       67.64690269624191       62.77773960983249
C           59.20755658683623       68.17482897344725       63.16190929017743
C           58.93422485091450       69.53928210725334       62.53057226056907
C           59.09162809617866       68.28676277931733       64.68856922770904
C           58.89820421618198       66.94979682690779       65.42063668789670
C           57.45424728494238       66.47563775566466       65.29253142642189
C           59.30823294813128       67.13302188949503       66.88772109004431
C           59.14809444670825       65.92044571963258       67.81772073873908
C           59.66200931670272       66.31576490794609       69.20270856189600
C           59.89102043072987       64.70065602387031       67.26002746467839
C           59.93358564902777       63.45587008999141       68.15870129869019
C           60.83134965551075       62.41299887246862       67.49062651349962
C           58.53140708528171       62.87872744236749       68.43130537446075
C           58.25920974617561       62.57124391789592       69.90851392571948
C           59.17302530657789       61.45868416887006       70.42384943602231
C           56.80032091578587       62.15394694126687       70.14279409712532
C           55.72620946117376       63.21118852054131       69.85816695313858
C           55.96104151466576       64.48052450424554       70.67739060615389
C           54.33121744295295       62.65687697422969       70.18741977691312
C           53.79791612364670       61.56086070594874       69.25313452611567
C           53.46809338380809       62.13548747351494       67.87737323372673
C           52.55861381526202       60.92095375767449       69.89636680697609
C           52.00381700795484       59.68420314264547       69.17874306734473
C           50.57468187024551       59.41313075504947       69.64637075692755
C           52.88039529885359       58.45013982910172       69.41926831078058
C           52.59786478752081       57.30524962067012       68.42776859113219
C           52.12544820377686       56.05277178129450       69.16678699724740
C           53.82770678299570       56.95942293832972       67.57911141557688
C           54.35133961437693       58.07657005334075       66.66743261544362
C           53.37681045106874       58.36879775867808       65.52850527764420
C           55.71388692572250       57.67725836111153       66.08029204514987
C           56.88553598129525       57.79979390858060       67.06350938038389
C           57.38939206867452       59.24317858839002       67.09830198104370
C           58.05343245231656       56.87204707282750       66.69716003397032
C           57.77297780154878       55.36754446890588       66.77661794636808
C           57.40266075680923       54.94394501864650       68.19891691507627
C           58.99171570721408       54.54321533601100       66.33554630999321
C           59.53933993880726       54.78494487409865       64.92143514595490
C           58.42652183681554       54.85784821315489       63.87730794183405
C           60.48370245409664       53.64174122837446       64.51617499586196
C           61.67377988649432       53.37117314778999       65.44172916999278
C           62.65318558647005       54.54412282774997       65.42510088443225
C           62.39985017124697       52.07956078982889       65.03190502116964
C           61.62102356975456       50.77635729632889       65.25547989139818
C           61.26824746086398       50.57951842237109       66.73081423399815
C           62.43172628303901       49.56089880286502       64.77999852124267
C           62.64970554569199       49.42062551267455       63.26583148836750
C           61.32773368942755       49.21967932034020       62.53184020917144
C           63.59750323720118       48.23352618846430       63.03516357654372
C           63.97441269113887       47.91319910124430       61.58058307718549
C           64.85203418195371       46.66105227434600       61.57266490559483
C           64.68887404427294       49.10518101702567       60.93707144362649
C           65.21301278534591       48.90798657689824       59.50691428400238
C           65.99438985872673       50.15623429261353       59.09858598690863
C           64.05148377850631       48.62817319655211       58.54736313298934
C           64.38726810411698       48.57449455516628       57.05127938924638
C           63.08267845786509       48.44972001212700       56.26565333000459
C           65.34129487909168       47.42000638702770       56.73757288353147
C           65.89760908927124       47.39381667679920       55.30774867875703
C           66.67867598502863       46.09297132455230       55.11879702953917
C           66.79226286156654       48.61183679189639       55.00323549910330
C           66.16312402660704       49.66928718176982       54.08722390084643
C           66.06954191039623       49.14191419463838       52.65458957585715
C           66.97680807856189       50.97433509755954       54.07613668397460
C           66.99552952275714       51.78628048595975       55.37564638613792
C           65.59663308205833       52.27685131952359       55.74369433132773
C           67.90764267039967       53.01741038992721       55.26223048020861
C           69.40608109921160       52.78019190649555       55.02169019001627
C           69.97021839271980       51.72784598554423       55.97285256123095
C           70.13712610280869       54.11714735959872       55.22239775228576
C           71.55302226843109       54.18525735791722       54.62828707867529
C           72.41581871736307       55.13976136465076       55.45432656511998
C           71.49678283060932       54.62771936750286       53.16043103705147
C           72.80338209953820       54.40738977122313       52.38698851218605
C           72.84346343175348       55.30421962651187       51.15015691721342
C           72.97625677121543       52.93543616226679       51.98868375159556
C           74.44456611708605       52.50762475291649       51.85781002592965
C           74.55129969768630       51.26437546115140       50.97714619543104
C           75.05191506208226       52.25821004351363       53.24411445126261
C           76.57879604035243       52.27638231306247       53.25940672719987
C           77.12781160840414       52.17836669132885       54.67851637713598
H           59.54692172651323       70.03442668507658       57.12835897663409
H           58.06424930422017       69.07586922955014       57.17327688024177
H           58.69792864845485       69.79475531089426       58.65378106244712
H           76.78723562439043       51.26409732623897       55.15985696907337
H           78.21536358362640       52.17537653130216       54.67025833967046
H           76.79097209688875       53.02241588071274       55.27702950607103
H           74.69714252366330       53.02838336852369       53.93253103905327
H           74.69599900184807       51.29636799242964       53.62224734072934
H           72.49740234089487       52.28976077001793       52.72787272664183
H           72.46594593687438       52.77142930556504       51.03756979104062
H           73.64110892930093       54.69729470873811       53.02788574965096
H           72.83565555828426       56.35389054183459       51.43702576190388
H           73.74414484660666       55.11906737016866       50.56862093185953
H           71.98153676996905       55.11663971319247       50.51480183607348
H           70.69740585834244       54.08639941851963       52.64946152623382
H           71.24188720297626       55.69019646757040       53.13363098789809
H           69.54173894757649       54.92301969832839       54.78526017331659
H           70.18914260356735       54.30175183487037       56.29818414785677
H           75.00429283619266       53.31792504559381       51.37634837919609
H           75.57982857897755       50.91943945229421       50.90948394379079
H           73.94590952722605       50.45914708788169       51.38731134002833