      -----------------------------------------------------------      
     |                   =====================                   |     
     |                           x T B                           |     
     |                   =====================                   |     
     |                         S. Grimme                         |     
     |          Mulliken Center for Theoretical Chemistry        |     
     |                    University of Bonn                     |     
      -----------------------------------------------------------      

   * xtb version 6.6.1 (8d0f1dd) compiled by 'stahn@M-Bot' on 2023-08-01

   xtb is free software: you can redistribute it and/or modify it under
   the terms of the GNU Lesser General Public License as published by
   the Free Software Foundation, either version 3 of the License, or
   (at your option) any later version.
   
   xtb is distributed in the hope that it will be useful,
   but WITHOUT ANY WARRANTY; without even the implied warranty of
   MERCHANTABILITY or FITNESS FOR A PARTICULAR PURPOSE.  See the
   GNU Lesser General Public License for more details.
   
   Cite this work as:
   * C. Bannwarth, E. Caldeweyher, S. Ehlert, A. Hansen, P. Pracht,
     J. Seibert, S. Spicher, S. Grimme, WIREs Comput. Mol. Sci., 2020, 11,
     e01493. DOI: 10.1002/wcms.1493
   
   for GFN2-xTB:
   * C. Bannwarth, S. Ehlert and S. Grimme., J. Chem. Theory Comput., 2019,
     15, 1652-1671. DOI: 10.1021/acs.jctc.8b01176
   for GFN1-xTB:
   * S. Grimme, C. Bannwarth, P. Shushkov, J. Chem. Theory Comput., 2017,
     13, 1989-2009. DOI: 10.1021/acs.jctc.7b00118
   for GFN0-xTB:
   * P. Pracht, E. Caldeweyher, S. Ehlert, S. Grimme, ChemRxiv, 2019, preprint.
     DOI: 10.26434/chemrxiv.8326202.v1
   for GFN-FF:
   * S. Spicher and S. Grimme, Angew. Chem. Int. Ed., 2020, 59, 15665-15673.
     DOI: 10.1002/anie.202004239
   
   for ALPB and GBSA implicit solvation:
   * S. Ehlert, M. Stahn, S. Spicher, S. Grimme, J. Chem. Theory Comput.,
     2021, 17, 4250-4261. DOI: 10.1021/acs.jctc.1c00471
   
   for DFT-D4:
   * E. Caldeweyher, C. Bannwarth and S. Grimme, J. Chem. Phys., 2017,
     147, 034112. DOI: 10.1063/1.4993215
   * E. Caldeweyher, S. Ehlert, A. Hansen, H. Neugebauer, S. Spicher,
     C. Bannwarth and S. Grimme, J. Chem. Phys., 2019, 150, 154122.
     DOI: 10.1063/1.5090222
   * E. Caldeweyher, J.-M. Mewes, S. Ehlert and S. Grimme, Phys. Chem. Chem. Phys.
     2020, 22, 8499-8512. DOI: 10.1039/D0CP00502A
   
   for sTDA-xTB:
   * S. Grimme and C. Bannwarth, J. Chem. Phys., 2016, 145, 054103.
     DOI: 10.1063/1.4959605
   
   in the mass-spec context:
   * V. Asgeirsson, C. Bauer and S. Grimme, Chem. Sci., 2017, 8, 4879.
     DOI: 10.1039/c7sc00601b
   * J. Koopman and S. Grimme, ACS Omega 2019, 4, 12, 15120-15133.
     DOI: 10.1021/acsomega.9b02011
   
   for metadynamics refer to:
   * S. Grimme, J. Chem. Theory Comput., 2019, 155, 2847-2862
     DOI: 10.1021/acs.jctc.9b00143
   
   for SPH calculations refer to:
   * S. Spicher and S. Grimme, J. Chem. Theory Comput., 2021, 17, 1701-1714
     DOI: 10.1021/acs.jctc.0c01306
   
   with help from (in alphabetical order)
   P. Atkinson, C. Bannwarth, F. Bohle, G. Brandenburg, E. Caldeweyher
   M. Checinski, S. Dohm, S. Ehlert, S. Ehrlich, I. Gerasimov, C. Hölzer
   A. Katbashev, J. Koopman, C. Lavigne, S. Lehtola, F. März, M. Müller,
   F. Musil, H. Neugebauer, J. Pisarek, C. Plett, P. Pracht, F. Pultar,
   J. Seibert, P. Shushkov, S. Spicher, M. Stahn, M. Steiner, T. Strunk,
   J. Stückrath, T. Rose, and J. Unsleber
   
 * started run on 2024/10/04 at 14:12:37.744     

           -------------------------------------------------
          |                Calculation Setup                |
           -------------------------------------------------

          program call               : /home/abt-grimme/AK-bin/xtb input.xyz --input input.inp --opt
          hostname                   : boar035.thch.uni-bonn.de
          coordinate file            : input.xyz
          omp threads                :                     8

   ID    Z sym.   atoms
    1    6 C      1-90, 273-362, 545-634, 817-906, 1089-1178, 1361-1450,
                  1633-1722, 1905-1994, 2177-2266, 2449-2538, 2721-2810,
                  2993-3082, 3265-3354
    2    1 H      91-272, 363-544, 635-816, 907-1088, 1179-1360, 1451-1632,
                  1723-1904, 1995-2176, 2267-2448, 2539-2720, 2811-2992,
                  3083-3264, 3355-3536

molecular fragmentation (1/2 indicates fragments):
111111111111111111111111111111111111111111111111111111111111111111111111
111111111111111111111111111111111111111111111111111111111111111111111111
111111111111111111111111111111111111111111111111111111111111111111111111
111111111111111111111111111111111111111111111111111111112222222222222222
222222222222222222222222222222222222222222222222222222222222222222222222
222222222222222222222222222222222222222222222222222222222222222222222222
222222222222222222222222222222222222222222222222222222222222222222222222
222222222222222222222222222222222222222222222222222222222222222222222222
222222222222222222222222222222222222222222222222222222222222222222222222
222222222222222222222222222222222222222222222222222222222222222222222222
222222222222222222222222222222222222222222222222222222222222222222222222
222222222222222222222222222222222222222222222222222222222222222222222222
222222222222222222222222222222222222222222222222222222222222222222222222
222222222222222222222222222222222222222222222222222222222222222222222222
222222222222222222222222222222222222222222222222222222222222222222222222
222222222222222222222222222222222222222222222222222222222222222222222222
222222222222222222222222222222222222222222222222222222222222222222222222
222222222222222222222222222222222222222222222222222222222222222222222222
222222222222222222222222222222222222222222222222222222222222222222222222
222222222222222222222222222222222222222222222222222222222222222222222222
222222222222222222222222222222222222222222222222222222222222222222222222
222222222222222222222222222222222222222222222222222222222222222222222222
222222222222222222222222222222222222222222222222222222222222222222222222
222222222222222222222222222222222222222222222222222222222222222222222222
222222222222222222222222222222222222222222222222222222222222222222222222
222222222222222222222222222222222222222222222222222222222222222222222222
222222222222222222222222222222222222222222222222222222222222222222222222
222222222222222222222222222222222222222222222222222222222222222222222222
222222222222222222222222222222222222222222222222222222222222222222222222
222222222222222222222222222222222222222222222222222222222222222222222222
222222222222222222222222222222222222222222222222222222222222222222222222
222222222222222222222222222222222222222222222222222222222222222222222222
222222222222222222222222222222222222222222222222222222222222222222222222
222222222222222222222222222222222222222222222222222222222222222222222222
222222222222222222222222222222222222222222222222222222222222222222222222
222222222222222222222222222222222222222222222222222222222222222222222222
222222222222222222222222222222222222222222222222222222222222222222222222
222222222222222222222222222222222222222222222222222222222222222222222222
222222222222222222222222222222222222222222222222222222222222222222222222
222222222222222222222222222222222222222222222222222222222222222222222222
222222222222222222222222222222222222222222222222222222222222222222222222
222222222222222222222222222222222222222222222222222222222222222222222222
222222222222222222222222222222222222222222222222222222222222222222222222
222222222222222222222222222222222222222222222222222222222222222222222222
222222222222222222222222222222222222222222222222222222222222222222222222
222222222222222222222222222222222222222222222222222222222222222222222222
222222222222222222222222222222222222222222222222222222222222222222222222
222222222222222222222222222222222222222222222222222222222222222222222222
222222222222222222222222222222222222222222222222222222222222222222222222
22222222
# atoms in fragment 1/2:   272  3264
 fragment masses (1/2) :     1264.41    15172.94
CMA distance (Bohr)    :  27.057
constraining FC (au)   :  0.0500

           -------------------------------------------------
          |                 G F N 2 - x T B                 |
           -------------------------------------------------

        Reference                      10.1021/acs.jctc.8b01176
      * Hamiltonian:
        H0-scaling (s, p, d)           1.850000    2.230000    2.230000
        zeta-weighting                 0.500000
      * Dispersion:
        s8                             2.700000
        a1                             0.520000
        a2                             5.000000
        s9                             5.000000
      * Repulsion:
        kExp                           1.500000    1.000000
        rExp                           1.000000
      * Coulomb:
        alpha                          2.000000
        third order                    shell-resolved
        anisotropic                    true
        a3                             3.000000
        a5                             4.000000
        cn-shift                       1.200000
        cn-exp                         4.000000
        max-rad                        5.000000


          ...................................................
          :                      SETUP                      :
          :.................................................:
          :  # basis functions                7046          :
          :  # atomic orbitals                7046          :
          :  # shells                         4706          :
          :  # electrons                      7046          :
          :  max. iterations                   250          :
          :  Hamiltonian                  GFN2-xTB          :
          :  restarted?                      false          :
          :  GBSA solvation                  false          :
          :  PC potential                    false          :
          :  electronic temp.          300.0000000     K    :
          :  accuracy                    1.0000000          :
          :  -> integral cutoff          0.2500000E+02      :
          :  -> integral neglect         0.1000000E-07      :
          :  -> SCF convergence          0.1000000E-05 Eh   :
          :  -> wf. convergence          0.1000000E-03 e    :
          :  Broyden damping             0.4000000          :
          ...................................................

 iter      E             dE          RMSdq      gap      omega  full diag
   1  -3766.6800257 -0.376668E+04  0.226E+00   11.57       0.0  T
   2  -3771.7673890 -0.508736E+01  0.126E+00   11.53       1.0  T
   3  -3771.9792210 -0.211832E+00  0.560E-01   11.48       1.0  T
   4  -3772.0007825 -0.215615E-01  0.143E-01   11.48       1.0  T
   5  -3772.0205703 -0.197878E-01  0.511E-02   11.48       1.0  T
   6  -3772.0205903 -0.200526E-04  0.706E-03   11.49       1.0  T
   7  -3772.0206226 -0.322272E-04  0.150E-03   11.48       1.1  T
   8  -3772.0206243 -0.177871E-05  0.546E-04   11.48       3.1  T
   9  -3772.0206244 -0.949572E-07  0.182E-04   11.48       9.2  T
  10  -3772.0206245 -0.158138E-07  0.688E-05   11.48      24.4  T

   *** convergence criteria satisfied after 10 iterations ***

         #    Occupation            Energy/Eh            Energy/eV
      -------------------------------------------------------------
         1        2.0000           -0.6273906             -17.0722
       ...           ...                  ...                  ...
      3517        2.0000           -0.3953951             -10.7592
      3518        2.0000           -0.3951965             -10.7538
      3519        2.0000           -0.3948131             -10.7434
      3520        2.0000           -0.3947543             -10.7418
      3521        2.0000           -0.3945243             -10.7356
      3522        2.0000           -0.3944675             -10.7340
      3523        2.0000           -0.3933969             -10.7049 (HOMO)
      3524                          0.0286540               0.7797 (LUMO)
      3525                          0.0293837               0.7996
      3526                          0.0298925               0.8134
      3527                          0.0300529               0.8178
      3528                          0.0303178               0.8250
       ...                                ...                  ...
      7046                          0.3876561              10.5487
      -------------------------------------------------------------
                  HL-Gap            0.4220509 Eh           11.4846 eV
             Fermi-level           -0.1823714 Eh           -4.9626 eV

 SCC (total)                   0 d,  0 h, 16 min, 39.545 sec
 SCC setup                      ...        0 min,  0.486 sec (  0.049%)
 Dispersion                     ...        0 min,  4.147 sec (  0.415%)
 classical contributions        ...        0 min,  0.150 sec (  0.015%)
 integral evaluation            ...        0 min,  6.998 sec (  0.700%)
 iterations                     ...       12 min, 23.897 sec ( 74.423%)
 molecular gradient             ...        3 min, 53.017 sec ( 23.312%)
 printout                       ...        0 min, 10.851 sec (  1.086%)

         :::::::::::::::::::::::::::::::::::::::::::::::::::::
         ::                     SUMMARY                     ::
         :::::::::::::::::::::::::::::::::::::::::::::::::::::
         :: total energy           -3716.251010371342 Eh    ::
         :: gradient norm              0.018978588141 Eh/a0 ::
         :: HOMO-LUMO gap             11.484590333885 eV    ::
         ::.................................................::
         :: SCC energy             -3772.020624458374 Eh    ::
         :: -> isotropic ES            0.587584933519 Eh    ::
         :: -> anisotropic ES          1.291544835234 Eh    ::
         :: -> anisotropic XC          2.079091708577 Eh    ::
         :: -> dispersion             -4.528057758535 Eh    ::
         :: repulsion energy          55.112915019567 Eh    ::
         :: add. restraining           0.000000000000 Eh    ::
         :: total charge              -0.000000000010 e     ::
         :::::::::::::::::::::::::::::::::::::::::::::::::::::

      ----------------------------------------------------------- 
     |              Fast Inertial Relaxation Engine              |
      ----------------------------------------------------------- 

          ...................................................
          :                      SETUP                      :
          :.................................................:
          :   energy convergence        0.5000000E-05 Eh    :
          :   grad. convergence         0.1000000E-02 Eh/a0 :
          :   optimization log               true           :
          :   writing optlog all                1     steps :
          :   Hessian reset                    20     steps :
          :   time step scaling                 5     steps :
          :   maximium step len.        1.0000000     a0    :
          :   initial time step         0.2500000     fs    :
          :   maximum time step         1.2500000     fs    :
          :   power reset thr           0.0000000     au    :
          :   alpha parameter           0.1000000           :
          :   BFGS update                   false           :
          :   preconditioning               false           :
          ...................................................

........................................................................
.............................. CYCLE    1 ..............................
........................................................................

 iter      E             dE          RMSdq      gap      omega  full diag
   1  -3772.0240410 -0.377202E+04  0.254E-04   11.48       0.0  T
   2  -3772.0240411 -0.272466E-07  0.150E-04   11.48      11.2  T
   3  -3772.0240411 -0.472937E-09  0.483E-05   11.48      34.8  T
     SCC iter.                  ...        3 min, 42.858 sec
     gradient                   ...        3 min, 52.930 sec
 * total energy  : -3716.2510510 Eh     change    :  -0.4065412E-04 Eh
   gradient norm :     0.0175886 Eh/a0  converged?    E=F G=F D=F
   time step     :     0.2500000 fs     power     :   0.2075665E-08
   step length   :     0.0022243 a0     speed     :   0.2152081E-03

........................................................................
.............................. CYCLE    2 ..............................
........................................................................

 iter      E             dE          RMSdq      gap      omega  full diag
   1  -3772.0290111 -0.377203E+04  0.372E-04   11.49       0.0  T
   2  -3772.0290112 -0.553805E-07  0.221E-04   11.49       7.6  T
   3  -3772.0290112 -0.749424E-09  0.677E-05   11.49      24.8  T
     SCC iter.                  ...        3 min, 46.765 sec
     gradient                   ...        3 min, 53.566 sec
 * total energy  : -3716.2511050 Eh     change    :  -0.5393911E-04 Eh
   gradient norm :     0.0155961 Eh/a0  converged?    E=F G=F D=F
   time step     :     0.2500000 fs     power     :   0.2688346E-08
   step length   :     0.0032546 a0     speed     :   0.3149017E-03

........................................................................
.............................. CYCLE    3 ..............................
........................................................................

 iter      E             dE          RMSdq      gap      omega  full diag
   1  -3772.0353123 -0.377204E+04  0.476E-04   11.49       0.0  T
   2  -3772.0353124 -0.886985E-07  0.283E-04   11.49       5.9  T
   3  -3772.0353124 -0.135469E-08  0.854E-05   11.49      19.7  T
     SCC iter.                  ...        3 min, 40.934 sec
     gradient                   ...        3 min, 53.986 sec
 * total energy  : -3716.2511646 Eh     change    :  -0.5960478E-04 Eh
   gradient norm :     0.0131318 Eh/a0  converged?    E=F G=F D=F
   time step     :     0.2500000 fs     power     :   0.2880687E-08
   step length   :     0.0041666 a0     speed     :   0.4031445E-03

........................................................................
.............................. CYCLE    4 ..............................
........................................................................

 iter      E             dE          RMSdq      gap      omega  full diag
   1  -3772.0426518 -0.377204E+04  0.563E-04   11.49       0.0  T
   2  -3772.0426519 -0.120613E-06  0.335E-04   11.49       5.0  T
   3  -3772.0426519 -0.184809E-08  0.989E-05   11.49      17.0  T
     SCC iter.                  ...        3 min, 41.455 sec
     gradient                   ...        3 min, 55.466 sec
 * total energy  : -3716.2512217 Eh     change    :  -0.5712628E-04 Eh
   gradient norm :     0.0104026 Eh/a0  converged?    E=F G=F D=F
   time step     :     0.2500000 fs     power     :   0.2646996E-08
   step length   :     0.0049288 a0     speed     :   0.4768926E-03

........................................................................
.............................. CYCLE    5 ..............................
........................................................................

 iter      E             dE          RMSdq      gap      omega  full diag
   1  -3772.0506582 -0.377205E+04  0.630E-04   11.49       0.0  T
   2  -3772.0506584 -0.144660E-06  0.375E-04   11.49       4.5  T
   3  -3772.0506584 -0.215186E-08  0.107E-04   11.49      15.7  T
     SCC iter.                  ...        3 min, 43.718 sec
     gradient                   ...        3 min, 52.386 sec
 * total energy  : -3716.2512693 Eh     change    :  -0.4758256E-04 Eh
   gradient norm :     0.0077609 Eh/a0  converged?    E=F G=F D=F
   time step     :     0.2500000 fs     power     :   0.2059572E-08
   step length   :     0.0055142 a0     speed     :   0.5335299E-03

........................................................................
.............................. CYCLE    6 ..............................
........................................................................

 iter      E             dE          RMSdq      gap      omega  full diag
   1  -3772.0597064 -0.377206E+04  0.745E-04   11.49       0.0  T
   2  -3772.0597066 -0.189253E-06  0.443E-04   11.49       3.8  T
   3  -3772.0597066 -0.283535E-08  0.121E-04   11.49      13.9  T
     SCC iter.                  ...        3 min, 40.984 sec
     gradient                   ...        3 min, 52.559 sec
 * total energy  : -3716.2513051 Eh     change    :  -0.3586653E-04 Eh
   gradient norm :     0.0057495 Eh/a0  converged?    E=F G=F D=F
   time step     :     0.2750000 fs     power     :   0.1176067E-08
   step length   :     0.0065263 a0     speed     :   0.5740460E-03

........................................................................
.............................. CYCLE    7 ..............................
........................................................................

 iter      E             dE          RMSdq      gap      omega  full diag
   1  -3772.0689161 -0.377207E+04  0.835E-04   11.49       0.0  T
   2  -3772.0689163 -0.203633E-06  0.498E-04   11.49       3.4  T
   3  -3772.0689163 -0.282898E-08  0.121E-04   11.49      13.9  T
     SCC iter.                  ...        3 min, 41.101 sec
     gradient                   ...        3 min, 53.005 sec
 * total energy  : -3716.2513235 Eh     change    :  -0.1835239E-04 Eh
   gradient norm :     0.0057833 Eh/a0  converged?    E=F G=F D=F
   time step     :     0.3025000 fs     power     :   0.2461194E-09
   step length   :     0.0073078 a0     speed     :   0.5843538E-03

........................................................................
.............................. CYCLE    8 ..............................
........................................................................

 iter      E             dE          RMSdq      gap      omega  full diag
   1  -3772.0767998 -0.377208E+04  0.869E-04   11.49       0.0  T
   2  -3772.0767999 -0.162397E-06  0.519E-04   11.49       3.2  T
   3  -3772.0767999 -0.216596E-08  0.996E-05   11.49      16.9  T
     SCC iter.                  ...        3 min, 45.148 sec
     gradient                   ...        3 min, 52.663 sec
 * total energy  : -3716.2513261 Eh     change    :  -0.2560303E-05 Eh
   gradient norm :     0.0073744 Eh/a0  converged?    E=T G=F D=F
   time step     :     0.3327500 fs     power     :  -0.3382474E-09
   step length   :     0.0075613 a0     speed     :   0.5496558E-03

........................................................................
.............................. CYCLE    9 ..............................
........................................................................
 * reset velocities

 iter      E             dE          RMSdq      gap      omega  full diag
   1  -3772.0765283 -0.377208E+04  0.298E-05   11.49       0.0  T
   2  -3772.0765283 -0.111959E-08  0.144E-05   11.49     117.1  T
   3  -3772.0765283  0.850378E-10  0.787E-06   11.49     213.8  T
     SCC iter.                  ...        3 min, 43.523 sec
     gradient                   ...        3 min, 54.149 sec
 * total energy  : -3716.2513275 Eh     change    :  -0.1406627E-05 Eh
   gradient norm :     0.0072559 Eh/a0  converged?    E=T G=F D=T
   time step     :     0.1663750 fs     power     :   0.1107541E-09
   step length   :     0.0001914 a0     speed     :   0.2782523E-04

........................................................................
.............................. CYCLE   10 ..............................
........................................................................

 iter      E             dE          RMSdq      gap      omega  full diag
   1  -3772.0759895 -0.377208E+04  0.451E-05   11.49       0.0  T
   2  -3772.0759895 -0.674845E-09  0.268E-05   11.49      62.8  T
   3  -3772.0759895 -0.545697E-11  0.731E-06   11.49     230.0  T
     SCC iter.                  ...        3 min, 40.379 sec
     gradient                   ...        3 min, 54.403 sec
 * total energy  : -3716.2513302 Eh     change    :  -0.2709036E-05 Eh
   gradient norm :     0.0070165 Eh/a0  converged?    E=T G=F D=T
   time step     :     0.1663750 fs     power     :   0.2124489E-09
   step length   :     0.0003797 a0     speed     :   0.5520309E-04

........................................................................
.............................. CYCLE   11 ..............................
........................................................................

 iter      E             dE          RMSdq      gap      omega  full diag
   1  -3772.0751950 -0.377208E+04  0.654E-05   11.49       0.0  T
   2  -3772.0751950 -0.129239E-08  0.388E-05   11.49      43.4  T
   3  -3772.0751950 -0.150067E-10  0.107E-05   11.49     157.8  T
     SCC iter.                  ...        3 min, 42.828 sec
     gradient                   ...        3 min, 53.664 sec
 * total energy  : -3716.2513340 Eh     change    :  -0.3844573E-05 Eh
   gradient norm :     0.0066714 Eh/a0  converged?    E=T G=F D=T
   time step     :     0.1663750 fs     power     :   0.2986363E-09
   step length   :     0.0005618 a0     speed     :   0.8167481E-04

........................................................................
.............................. CYCLE   12 ..............................
........................................................................

 iter      E             dE          RMSdq      gap      omega  full diag
   1  -3772.0741615 -0.377207E+04  0.854E-05   11.49       0.0  T
   2  -3772.0741615 -0.219052E-08  0.507E-05   11.49      33.2  T
   3  -3772.0741615  0.300133E-10  0.137E-05   11.49     122.4  T
     SCC iter.                  ...        3 min, 47.160 sec
     gradient                   ...        3 min, 52.508 sec
 * total energy  : -3716.2513387 Eh     change    :  -0.4725769E-05 Eh
   gradient norm :     0.0062181 Eh/a0  converged?    E=T G=F D=T
   time step     :     0.1663750 fs     power     :   0.3637748E-09
   step length   :     0.0007348 a0     speed     :   0.1068263E-03

........................................................................
.............................. CYCLE   13 ..............................
........................................................................

 iter      E             dE          RMSdq      gap      omega  full diag
   1  -3772.0729117 -0.377207E+04  0.104E-04   11.49       0.0  T
   2  -3772.0729117 -0.317414E-08  0.617E-05   11.49      27.3  T
   3  -3772.0729117 -0.231921E-10  0.165E-05   11.49     101.9  T
     SCC iter.                  ...        3 min, 43.924 sec
     gradient                   ...        3 min, 52.824 sec
 * total energy  : -3716.2513441 Eh     change    :  -0.5324207E-05 Eh
   gradient norm :     0.0056860 Eh/a0  converged?    E=F G=F D=T
   time step     :     0.1663750 fs     power     :   0.4045752E-09
   step length   :     0.0008959 a0     speed     :   0.1302455E-03

........................................................................
.............................. CYCLE   14 ..............................
........................................................................

 iter      E             dE          RMSdq      gap      omega  full diag
   1  -3772.0714740 -0.377207E+04  0.121E-04   11.49       0.0  T
   2  -3772.0714740 -0.423279E-08  0.716E-05   11.49      23.5  T
   3  -3772.0714740 -0.277396E-10  0.189E-05   11.49      89.1  T
     SCC iter.                  ...        3 min, 42.919 sec
     gradient                   ...        3 min, 51.839 sec
 * total energy  : -3716.2513496 Eh     change    :  -0.5577504E-05 Eh
   gradient norm :     0.0050922 Eh/a0  converged?    E=F G=F D=F
   time step     :     0.1663750 fs     power     :   0.4194601E-09
   step length   :     0.0010427 a0     speed     :   0.1515892E-03

........................................................................
.............................. CYCLE   15 ..............................
........................................................................

 iter      E             dE          RMSdq      gap      omega  full diag
   1  -3772.0697060 -0.377207E+04  0.150E-04   11.49       0.0  T
   2  -3772.0697060 -0.632508E-08  0.891E-05   11.49      18.9  T
   3  -3772.0697060 -0.259206E-10  0.232E-05   11.49      72.5  T
     SCC iter.                  ...        3 min, 44.651 sec
     gradient                   ...        3 min, 54.336 sec
 * total energy  : -3716.2513558 Eh     change    :  -0.6109241E-05 Eh
   gradient norm :     0.0043990 Eh/a0  converged?    E=F G=F D=F
   time step     :     0.1830125 fs     power     :   0.4066279E-09
   step length   :     0.0013048 a0     speed     :   0.1724535E-03

........................................................................
.............................. CYCLE   16 ..............................
........................................................................

 iter      E             dE          RMSdq      gap      omega  full diag
   1  -3772.0676004 -0.377207E+04  0.182E-04   11.49       0.0  T
   2  -3772.0676004 -0.908540E-08  0.108E-04   11.49      15.5  T
   3  -3772.0676004 -0.372893E-10  0.274E-05   11.49      61.5  T
     SCC iter.                  ...        3 min, 45.081 sec
     gradient                   ...        3 min, 52.152 sec
 * total energy  : -3716.2513620 Eh     change    :  -0.6212592E-05 Eh
   gradient norm :     0.0036561 Eh/a0  converged?    E=F G=F D=F
   time step     :     0.2013138 fs     power     :   0.3618283E-09
   step length   :     0.0015967 a0     speed     :   0.1918492E-03

........................................................................
.............................. CYCLE   17 ..............................
........................................................................

 iter      E             dE          RMSdq      gap      omega  full diag
   1  -3772.0651953 -0.377207E+04  0.215E-04   11.49       0.0  T
   2  -3772.0651953 -0.118498E-07  0.128E-04   11.49      13.1  T
   3  -3772.0651953 -0.105956E-09  0.308E-05   11.49      54.6  T
     SCC iter.                  ...        3 min, 43.658 sec
     gradient                   ...        3 min, 52.921 sec
 * total energy  : -3716.2513677 Eh     change    :  -0.5744249E-05 Eh
   gradient norm :     0.0029948 Eh/a0  converged?    E=F G=F D=F
   time step     :     0.2214451 fs     power     :   0.2868771E-09
   step length   :     0.0019077 a0     speed     :   0.2083774E-03

........................................................................
.............................. CYCLE   18 ..............................
........................................................................

 iter      E             dE          RMSdq      gap      omega  full diag
   1  -3772.0626173 -0.377206E+04  0.245E-04   11.49       0.0  T
   2  -3772.0626173 -0.136897E-07  0.146E-04   11.49      11.5  T
   3  -3772.0626173 -0.110958E-09  0.323E-05   11.49      52.0  T
     SCC iter.                  ...        3 min, 40.428 sec
     gradient                   ...        3 min, 53.492 sec
 * total energy  : -3716.2513724 Eh     change    :  -0.4737996E-05 Eh
   gradient norm :     0.0026638 Eh/a0  converged?    E=T G=F D=F
   time step     :     0.2435896 fs     power     :   0.1954245E-09
   step length   :     0.0022143 a0     speed     :   0.2198828E-03

........................................................................
.............................. CYCLE   19 ..............................
........................................................................

 iter      E             dE          RMSdq      gap      omega  full diag
   1  -3772.0601285 -0.377206E+04  0.266E-04   11.49       0.0  T
   2  -3772.0601285 -0.131877E-07  0.158E-04   11.49      10.6  T
   3  -3772.0601285 -0.518412E-10  0.302E-05   11.49      55.7  T
     SCC iter.                  ...        3 min, 42.888 sec
     gradient                   ...        3 min, 52.762 sec
 * total energy  : -3716.2513759 Eh     change    :  -0.3497095E-05 Eh
   gradient norm :     0.0028299 Eh/a0  converged?    E=T G=F D=F
   time step     :     0.2679486 fs     power     :   0.1163373E-09
   step length   :     0.0024749 a0     speed     :   0.2234239E-03

........................................................................
.............................. CYCLE   20 ..............................
........................................................................

 iter      E             dE          RMSdq      gap      omega  full diag
   1  -3772.0580724 -0.377206E+04  0.274E-04   11.49       0.0  T
   2  -3772.0580724 -0.100931E-07  0.163E-04   11.49      10.3  T
   3  -3772.0580724 -0.176897E-09  0.243E-05   11.49      69.1  T
     SCC iter.                  ...        3 min, 38.952 sec
     gradient                   ...        3 min, 53.821 sec
 * total energy  : -3716.2513787 Eh     change    :  -0.2756863E-05 Eh
   gradient norm :     0.0032698 Eh/a0  converged?    E=T G=F D=F
   time step     :     0.2947435 fs     power     :   0.7976215E-10
   step length   :     0.0026678 a0     speed     :   0.2189422E-03
 * RMSD in coord.:     0.0006734 a0     energy gain  -0.3683318E-03 Eh

........................................................................
.............................. CYCLE   21 ..............................
........................................................................

 iter      E             dE          RMSdq      gap      omega  full diag
   1  -3772.0570240 -0.377206E+04  0.212E-04   11.49       0.0  T
   2  -3772.0570240 -0.373075E-08  0.126E-04   11.49      13.4  T
   3  -3772.0570240 -0.238288E-09  0.136E-05   11.49     123.7  T
     SCC iter.                  ...        3 min, 37.162 sec
     gradient                   ...        3 min, 55.646 sec
 * total energy  : -3716.2513810 Eh     change    :  -0.2289425E-05 Eh
   gradient norm :     0.0035524 Eh/a0  converged?    E=T G=F D=F
   time step     :     0.2500000 fs     power     :   0.9915278E-10
   step length   :     0.0021605 a0     speed     :   0.2090431E-03

........................................................................
.............................. CYCLE   22 ..............................
........................................................................

 iter      E             dE          RMSdq      gap      omega  full diag
   1  -3772.0566714 -0.377206E+04  0.196E-04   11.49       0.0  T
   2  -3772.0566714 -0.225100E-08  0.116E-04   11.49      14.6  T
   3  -3772.0566714 -0.184173E-09  0.112E-05   11.49     150.4  T
     SCC iter.                  ...        3 min, 42.809 sec
     gradient                   ...        3 min, 53.449 sec
 * total energy  : -3716.2513839 Eh     change    :  -0.2916737E-05 Eh
   gradient norm :     0.0036227 Eh/a0  converged?    E=T G=F D=F
   time step     :     0.2500000 fs     power     :   0.1403409E-09
   step length   :     0.0020887 a0     speed     :   0.2020892E-03

........................................................................
.............................. CYCLE   23 ..............................
........................................................................

 iter      E             dE          RMSdq      gap      omega  full diag
   1  -3772.0569707 -0.377206E+04  0.189E-04   11.49       0.0  T
   2  -3772.0569707 -0.243836E-08  0.110E-04   11.49      15.2  T
   3  -3772.0569707 -0.115051E-09  0.135E-05   11.49     124.2  T
     SCC iter.                  ...        3 min, 47.897 sec
     gradient                   ...        3 min, 53.243 sec
 * total energy  : -3716.2513876 Eh     change    :  -0.3676599E-05 Eh
   gradient norm :     0.0034628 Eh/a0  converged?    E=T G=F D=F
   time step     :     0.2500000 fs     power     :   0.1818470E-09
   step length   :     0.0020650 a0     speed     :   0.1998012E-03

........................................................................
.............................. CYCLE   24 ..............................
........................................................................

 iter      E             dE          RMSdq      gap      omega  full diag
   1  -3772.0578529 -0.377206E+04  0.189E-04   11.49       0.0  T
   2  -3772.0578529 -0.395812E-08  0.110E-04   11.49      15.3  T
   3  -3772.0578529 -0.190994E-10  0.184E-05   11.49      91.1  T
     SCC iter.                  ...        3 min, 41.647 sec
     gradient                   ...        3 min, 52.709 sec
 * total energy  : -3716.2513918 Eh     change    :  -0.4200835E-05 Eh
   gradient norm :     0.0030976 Eh/a0  converged?    E=T G=F D=F
   time step     :     0.2500000 fs     power     :   0.2071898E-09
   step length   :     0.0020859 a0     speed     :   0.2018183E-03

........................................................................
.............................. CYCLE   25 ..............................
........................................................................

 iter      E             dE          RMSdq      gap      omega  full diag
   1  -3772.0592307 -0.377206E+04  0.194E-04   11.49       0.0  T
   2  -3772.0592307 -0.596765E-08  0.112E-04   11.49      15.0  T
   3  -3772.0592307 -0.632099E-10  0.233E-05   11.49      72.3  T
     SCC iter.                  ...        3 min, 44.238 sec
     gradient                   ...        3 min, 54.200 sec
 * total energy  : -3716.2513961 Eh     change    :  -0.4309873E-05 Eh
   gradient norm :     0.0025834 Eh/a0  converged?    E=T G=F D=F
   time step     :     0.2500000 fs     power     :   0.2072058E-09
   step length   :     0.0021357 a0     speed     :   0.2066405E-03

........................................................................
.............................. CYCLE   26 ..............................
........................................................................

 iter      E             dE          RMSdq      gap      omega  full diag
   1  -3772.0611987 -0.377206E+04  0.221E-04   11.49       0.0  T
   2  -3772.0611987 -0.986756E-08  0.127E-04   11.49      13.2  T
   3  -3772.0611987  0.818545E-11  0.300E-05   11.49      56.1  T
     SCC iter.                  ...        3 min, 45.620 sec
     gradient                   ...        3 min, 53.013 sec
 * total energy  : -3716.2514004 Eh     change    :  -0.4295362E-05 Eh
   gradient norm :     0.0019681 Eh/a0  converged?    E=T G=F D=F
   time step     :     0.2750000 fs     power     :   0.1763332E-09
   step length   :     0.0024282 a0     speed     :   0.2135840E-03

........................................................................
.............................. CYCLE   27 ..............................
........................................................................

 iter      E             dE          RMSdq      gap      omega  full diag
   1  -3772.0636831 -0.377206E+04  0.245E-04   11.49       0.0  T
   2  -3772.0636831 -0.135174E-07  0.141E-04   11.49      11.9  T
   3  -3772.0636831 -0.591172E-10  0.350E-05   11.49      48.1  T
     SCC iter.                  ...        3 min, 41.881 sec
     gradient                   ...        3 min, 53.158 sec
 * total energy  : -3716.2514040 Eh     change    :  -0.3582506E-05 Eh
   gradient norm :     0.0015450 Eh/a0  converged?    E=T G=F D=F
   time step     :     0.3025000 fs     power     :   0.1183529E-09
   step length   :     0.0027521 a0     speed     :   0.2200681E-03

........................................................................
.............................. CYCLE   28 ..............................
........................................................................

 iter      E             dE          RMSdq      gap      omega  full diag
   1  -3772.0663824 -0.377207E+04  0.254E-04   11.49       0.0  T
   2  -3772.0663824 -0.139548E-07  0.146E-04   11.49      11.5  T
   3  -3772.0663824 -0.900400E-10  0.348E-05   11.49      48.3  T
     SCC iter.                  ...        3 min, 43.462 sec
     gradient                   ...        3 min, 53.466 sec
 * total energy  : -3716.2514064 Eh     change    :  -0.2440233E-05 Eh
   gradient norm :     0.0017325 Eh/a0  converged?    E=T G=F D=F
   time step     :     0.3327500 fs     power     :   0.5973040E-10
   step length   :     0.0030413 a0     speed     :   0.2210802E-03

........................................................................
.............................. CYCLE   29 ..............................
........................................................................

 iter      E             dE          RMSdq      gap      omega  full diag
   1  -3772.0687788 -0.377207E+04  0.237E-04   11.49       0.0  T
   2  -3772.0687788 -0.935916E-08  0.137E-04   11.49      12.3  T
   3  -3772.0687788 -0.973159E-10  0.273E-05   11.49      61.6  T
     SCC iter.                  ...        3 min, 45.514 sec
     gradient                   ...        3 min, 52.759 sec
 * total energy  : -3716.2514081 Eh     change    :  -0.1722979E-05 Eh
   gradient norm :     0.0022451 Eh/a0  converged?    E=T G=F D=F
   time step     :     0.3660250 fs     power     :   0.3777405E-10
   step length   :     0.0032172 a0     speed     :   0.2126092E-03

........................................................................
.............................. CYCLE   30 ..............................
........................................................................

 iter      E             dE          RMSdq      gap      omega  full diag
   1  -3772.0704678 -0.377207E+04  0.210E-04   11.49       0.0  T
   2  -3772.0704678 -0.364071E-08  0.121E-04   11.49      13.8  T
   3  -3772.0704678 -0.718501E-10  0.158E-05   11.49     106.3  T
     SCC iter.                  ...        3 min, 47.449 sec
     gradient                   ...        3 min, 53.610 sec
 * total energy  : -3716.2514103 Eh     change    :  -0.2130711E-05 Eh
   gradient norm :     0.0025442 Eh/a0  converged?    E=T G=F D=F
   time step     :     0.4026275 fs     power     :   0.5738219E-10
   step length   :     0.0033654 a0     speed     :   0.2021864E-03

........................................................................
.............................. CYCLE   31 ..............................
........................................................................

 iter      E             dE          RMSdq      gap      omega  full diag
   1  -3772.0711693 -0.377207E+04  0.190E-04   11.49       0.0  T
   2  -3772.0711693 -0.119371E-08  0.112E-04   11.49      15.0  T
   3  -3772.0711693 -0.718501E-10  0.889E-06   11.49     189.1  T
     SCC iter.                  ...        3 min, 45.651 sec
     gradient                   ...        3 min, 53.502 sec
 * total energy  : -3716.2514138 Eh     change    :  -0.3530879E-05 Eh
   gradient norm :     0.0024634 Eh/a0  converged?    E=T G=F D=F
   time step     :     0.4428903 fs     power     :   0.9693858E-10
   step length   :     0.0036071 a0     speed     :   0.1970064E-03

........................................................................
.............................. CYCLE   32 ..............................
........................................................................

 iter      E             dE          RMSdq      gap      omega  full diag
   1  -3772.0707563 -0.377207E+04  0.198E-04   11.49       0.0  T
   2  -3772.0707563 -0.496038E-08  0.119E-04   11.49      14.1  T
   3  -3772.0707563  0.181899E-10  0.185E-05   11.49      90.7  T
     SCC iter.                  ...        3 min, 42.857 sec
     gradient                   ...        3 min, 53.681 sec
 * total energy  : -3716.2514187 Eh     change    :  -0.4921928E-05 Eh
   gradient norm :     0.0019885 Eh/a0  converged?    E=T G=F D=F
   time step     :     0.4871793 fs     power     :   0.1188163E-09
   step length   :     0.0040226 a0     speed     :   0.1997238E-03

........................................................................
.............................. CYCLE   33 ..............................
........................................................................

 iter      E             dE          RMSdq      gap      omega  full diag
   1  -3772.0693953 -0.377207E+04  0.224E-04   11.49       0.0  T
   2  -3772.0693954 -0.137793E-07  0.137E-04   11.49      12.3  T
   3  -3772.0693954 -0.954969E-11  0.337E-05   11.49      49.9  T
     SCC iter.                  ...        3 min, 44.104 sec
     gradient                   ...        3 min, 55.666 sec
 * total energy  : -3716.2514239 Eh     change    :  -0.5132703E-05 Eh
   gradient norm :     0.0015119 Eh/a0  converged?    E=F G=F D=F
   time step     :     0.5358972 fs     power     :   0.9941379E-10
   step length   :     0.0045985 a0     speed     :   0.2075616E-03

........................................................................
.............................. CYCLE   34 ..............................
........................................................................

 iter      E             dE          RMSdq      gap      omega  full diag
   1  -3772.0678746 -0.377207E+04  0.229E-04   11.49       0.0  T
   2  -3772.0678747 -0.169862E-07  0.141E-04   11.49      11.9  T
   3  -3772.0678747 -0.105956E-09  0.371E-05   11.49      45.3  T
     SCC iter.                  ...        3 min, 39.653 sec
     gradient                   ...        3 min, 54.972 sec
 * total energy  : -3716.2514280 Eh     change    :  -0.4189604E-05 Eh
   gradient norm :     0.0017321 Eh/a0  converged?    E=T G=F D=F
   time step     :     0.5894869 fs     power     :   0.6516955E-10
   step length   :     0.0052048 a0     speed     :   0.2135733E-03

........................................................................
.............................. CYCLE   35 ..............................
........................................................................

 iter      E             dE          RMSdq      gap      omega  full diag
   1  -3772.0674659 -0.377207E+04  0.215E-04   11.49       0.0  T
   2  -3772.0674659 -0.775935E-08  0.131E-04   11.49      12.8  T
   3  -3772.0674659 -0.177351E-09  0.208E-05   11.49      81.0  T
     SCC iter.                  ...        3 min, 42.973 sec
     gradient                   ...        3 min, 54.394 sec
 * total energy  : -3716.2514322 Eh     change    :  -0.4189019E-05 Eh
   gradient norm :     0.0020662 Eh/a0  converged?    E=T G=F D=F
   time step     :     0.6484356 fs     power     :   0.6999044E-10
   step length   :     0.0057050 a0     speed     :   0.2128156E-03

........................................................................
.............................. CYCLE   36 ..............................
........................................................................

 iter      E             dE          RMSdq      gap      omega  full diag
   1  -3772.0689890 -0.377207E+04  0.258E-04   11.49       0.0  T
   2  -3772.0689891 -0.317095E-08  0.152E-04   11.49      11.0  T
   3  -3772.0689891 -0.130967E-09  0.153E-05   11.49     110.0  T
     SCC iter.                  ...        3 min, 44.952 sec
     gradient                   ...        3 min, 52.755 sec
 * total energy  : -3716.2514382 Eh     change    :  -0.5943931E-05 Eh
   gradient norm :     0.0018168 Eh/a0  converged?    E=F G=F D=F
   time step     :     0.7132792 fs     power     :   0.9751489E-10
   step length   :     0.0063354 a0     speed     :   0.2148477E-03

........................................................................
.............................. CYCLE   37 ..............................
........................................................................

 iter      E             dE          RMSdq      gap      omega  full diag
   1  -3772.0723977 -0.377207E+04  0.343E-04   11.49       0.0  T
   2  -3772.0723977 -0.145633E-07  0.199E-04   11.49       8.4  T
   3  -3772.0723977  0.450200E-10  0.353E-05   11.49      47.7  T
     SCC iter.                  ...        3 min, 39.426 sec
     gradient                   ...        3 min, 53.117 sec
 * total energy  : -3716.2514449 Eh     change    :  -0.6758644E-05 Eh
   gradient norm :     0.0013632 Eh/a0  converged?    E=F G=F D=F
   time step     :     0.7846071 fs     power     :   0.8763407E-10
   step length   :     0.0072610 a0     speed     :   0.2238519E-03

........................................................................
.............................. CYCLE   38 ..............................
........................................................................

 iter      E             dE          RMSdq      gap      omega  full diag
   1  -3772.0758990 -0.377208E+04  0.340E-04   11.49       0.0  T
   2  -3772.0758990 -0.181626E-07  0.198E-04   11.49       8.5  T
   3  -3772.0758990 -0.367436E-09  0.377E-05   11.49      44.6  T
     SCC iter.                  ...        3 min, 42.922 sec
     gradient                   ...        3 min, 53.669 sec
 * total energy  : -3716.2514507 Eh     change    :  -0.5808994E-05 Eh
   gradient norm :     0.0017070 Eh/a0  converged?    E=F G=F D=F
   time step     :     0.8630678 fs     power     :   0.6280329E-10
   step length   :     0.0082700 a0     speed     :   0.2317803E-03

........................................................................
.............................. CYCLE   39 ..............................
........................................................................

 iter      E             dE          RMSdq      gap      omega  full diag
   1  -3772.0768574 -0.377208E+04  0.270E-04   11.49       0.0  T
   2  -3772.0768575 -0.799582E-08  0.159E-04   11.49      10.6  T
   3  -3772.0768575 -0.396540E-09  0.269E-05   11.49      62.6  T
     SCC iter.                  ...        3 min, 46.331 sec
     gradient                   ...        3 min, 54.668 sec
 * total energy  : -3716.2514577 Eh     change    :  -0.6948602E-05 Eh
   gradient norm :     0.0016755 Eh/a0  converged?    E=F G=F D=F
   time step     :     0.9493746 fs     power     :   0.8233438E-10
   step length   :     0.0092006 a0     speed     :   0.2344204E-03

........................................................................
.............................. CYCLE   40 ..............................
........................................................................

 iter      E             dE          RMSdq      gap      omega  full diag
   1  -3772.0747016 -0.377207E+04  0.333E-04   11.49       0.0  T
   2  -3772.0747016 -0.231462E-07  0.198E-04   11.49       8.5  T
   3  -3772.0747016  0.100044E-09  0.482E-05   11.49      34.9  T
     SCC iter.                  ...        3 min, 44.912 sec
     gradient                   ...        3 min, 53.987 sec
 * total energy  : -3716.2514659 Eh     change    :  -0.8160275E-05 Eh
   gradient norm :     0.0013528 Eh/a0  converged?    E=F G=F D=F
   time step     :     1.0443120 fs     power     :   0.7673384E-10
   step length   :     0.0105088 a0     speed     :   0.2434102E-03

........................................................................
.............................. CYCLE   41 ..............................
........................................................................

 iter      E             dE          RMSdq      gap      omega  full diag
   1  -3772.0728612 -0.377207E+04  0.354E-04   11.49       0.0  T
   2  -3772.0728612 -0.139280E-07  0.210E-04   11.49       8.0  T
   3  -3772.0728612  0.227374E-10  0.309E-05   11.49      54.5  T
     SCC iter.                  ...        3 min, 44.028 sec
     gradient                   ...        3 min, 54.711 sec
 * total energy  : -3716.2514737 Eh     change    :  -0.7826451E-05 Eh
   gradient norm :     0.0016343 Eh/a0  converged?    E=F G=F D=F
   time step     :     1.1487432 fs     power     :   0.6913169E-10
   step length   :     0.0119455 a0     speed     :   0.2515347E-03

........................................................................
.............................. CYCLE   42 ..............................
........................................................................

 iter      E             dE          RMSdq      gap      omega  full diag
   1  -3772.0749682 -0.377207E+04  0.394E-04   11.49       0.0  T
   2  -3772.0749683 -0.202012E-07  0.228E-04   11.49       7.4  T
   3  -3772.0749683 -0.636646E-10  0.455E-05   11.49      37.0  T
     SCC iter.                  ...        3 min, 42.901 sec
     gradient                   ...        3 min, 54.255 sec
 * total energy  : -3716.2514831 Eh     change    :  -0.9467376E-05 Eh
   gradient norm :     0.0012723 Eh/a0  converged?    E=F G=F D=F
   time step     :     1.2500000 fs     power     :   0.7653615E-10
   step length   :     0.0133864 a0     speed     :   0.2590409E-03
 * RMSD in coord.:     0.0016898 a0     energy gain  -0.1044437E-03 Eh

........................................................................
.............................. CYCLE   43 ..............................
........................................................................

 iter      E             dE          RMSdq      gap      omega  full diag
   1  -3772.0754476 -0.377208E+04  0.674E-05   11.49       0.0  T
   2  -3772.0754476 -0.508408E-09  0.396E-05   11.49      42.4  T
   3  -3772.0754476 -0.545697E-11  0.667E-06   11.49     252.0  T
     SCC iter.                  ...        3 min, 44.147 sec
     gradient                   ...        3 min, 54.052 sec
 * total energy  : -3716.2514848 Eh     change    :  -0.1664383E-05 Eh
   gradient norm :     0.0012598 Eh/a0  converged?    E=T G=F D=F
   time step     :     0.2500000 fs     power     :   0.8523957E-10
   step length   :     0.0025732 a0     speed     :   0.2489707E-03

........................................................................
.............................. CYCLE   44 ..............................
........................................................................

 iter      E             dE          RMSdq      gap      omega  full diag
   1  -3772.0758950 -0.377208E+04  0.644E-05   11.49       0.0  T
   2  -3772.0758950 -0.686214E-09  0.377E-05   11.49      44.6  T
   3  -3772.0758950  0.486580E-10  0.823E-06   11.49     204.4  T
     SCC iter.                  ...        3 min, 40.677 sec
     gradient                   ...        3 min, 54.655 sec
 * total energy  : -3716.2514866 Eh     change    :  -0.1794124E-05 Eh
   gradient norm :     0.0011746 Eh/a0  converged?    E=T G=F D=F
   time step     :     0.2500000 fs     power     :   0.9165180E-10
   step length   :     0.0024966 a0     speed     :   0.2415552E-03

........................................................................
.............................. CYCLE   45 ..............................
........................................................................

 iter      E             dE          RMSdq      gap      omega  full diag
   1  -3772.0762419 -0.377208E+04  0.713E-05   11.49       0.0  T
   2  -3772.0762419 -0.771252E-09  0.419E-05   11.49      40.1  T
   3  -3772.0762419  0.368345E-10  0.804E-06   11.49     209.2  T
     SCC iter.                  ...        3 min, 43.537 sec
     gradient                   ...        3 min, 53.861 sec
 * total energy  : -3716.2514884 Eh     change    :  -0.1837834E-05 Eh
   gradient norm :     0.0010548 Eh/a0  converged?    E=T G=F D=F
   time step     :     0.2500000 fs     power     :   0.9297717E-10
   step length   :     0.0024480 a0     speed     :   0.2368579E-03

........................................................................
.............................. CYCLE   46 ..............................
........................................................................

 iter      E             dE          RMSdq      gap      omega  full diag
   1  -3772.0764446 -0.377208E+04  0.798E-05   11.49       0.0  T
   2  -3772.0764446 -0.633463E-09  0.469E-05   11.49      35.9  T
   3  -3772.0764446 -0.773070E-11  0.771E-06   11.49     218.0  T
     SCC iter.                  ...        3 min, 42.059 sec
     gradient                   ...        3 min, 58.819 sec
 * total energy  : -3716.2514903 Eh     change    :  -0.1811973E-05 Eh
   gradient norm :     0.0009616 Eh/a0  converged?    E=T G=T D=F
   time step     :     0.2500000 fs     power     :   0.8969617E-10
   step length   :     0.0024217 a0     speed     :   0.2343136E-03

   *** GEOMETRY OPTIMIZATION CONVERGED AFTER 46 CYCLES ***

------------------------------------------------------------------------
 total energy gain   :        -0.0004799 Eh       -0.3011 kcal/mol
 total RMSD          :         0.0021479 a0        0.0011 Å
 total power (kW/mol):        -0.0273899 (step)   -0.0001 (real)
------------------------------------------------------------------------

 FIRE (total)                  0 d,  6 h,  7 min, 53.567 sec
 setup                          ...        0 min,  0.135 sec (  0.001%)
 velocities                     ...        0 min,  0.003 sec (  0.000%)
 propagation                    ...        0 min,  0.005 sec (  0.000%)
 singlepoint calculation        ...      367 min, 52.585 sec ( 99.996%)
 log and printout               ...        0 min,  0.759 sec (  0.003%)
 preconditioner                 ...        0 min,  0.000 sec (  0.000%)
 model hessian                  ...        0 min,  0.000 sec (  0.000%)
 hessian update                 ...        0 min,  0.000 sec (  0.000%)

================
 final structure:
================
3536
 xtb: 6.6.1 (8d0f1dd)
C           52.27491055246622       71.29995363933388       50.02745455939079
C           53.50425691457362       72.03423721478443       50.55891889295029
C           54.67375103638845       71.85777866883701       49.59032465496668
C           53.91821100292085       71.52440792888694       51.94482794328893
C           52.87797532392073       71.69531996013717       53.05707246584262
C           52.62735748537952       73.17463620963024       53.34934194926601
C           53.32910886108066       71.00148955319352       54.35154632704212
C           53.44512063333205       69.47210894788816       54.29056897114422
C           52.08123865991905       68.82407751148720       54.06756247868817
C           54.08295452763878       68.96409112235980       55.58997665050516
C           54.50620303127803       67.48873148087064       55.58999918798919
C           55.00474421190979       67.12286716818501       56.98815039360123
C           55.59439526255294       67.19025793279894       54.54446999005520
C           55.08264270402773       66.58349952342431       53.22733716281123
C           54.69463885374396       65.12188363042527       53.43966867845051
C           56.17944044534621       66.72474870177231       52.16422055599153
C           55.84159781192154       66.23021990481428       50.75025169924849
C           57.12482354162265       66.20844438500238       49.92182215530023
C           54.76256184105382       67.10769359575612       50.10346502416223
C           54.45714075937307       66.83977359954125       48.62061243440220
C           53.39222849354668       67.83618535995832       48.15898905168845
C           53.99758558831498       65.39576749931322       48.38939884155268
C           53.92702763589161       64.96444391188074       46.91817385094707
C           53.06839020869209       63.70654513231128       46.80014031799875
C           55.32535951668238       64.69247923369977       46.34943645506317
C           55.42928898095664       64.85953294813774       44.82587363957149
C           56.56868461237065       63.99484020734764       44.29286705193847
C           55.64330020593440       66.34031283425274       44.48849424177862
C           55.56226340819145       66.72856844798200       43.00549002851474
C           56.09054954385234       68.15528107849100       42.84945263643301
C           54.12679982977082       66.62550669867836       42.47534748159283
C           53.99696396945845       66.74072828636579       40.94473206135865
C           52.85037935767691       67.68733237047127       40.58433925575968
C           53.74699856357971       65.38342835372674       40.27288954138916
C           54.87993365959538       64.35798800430338       40.39232364794103
C           56.13179436947603       64.83114162671572       39.65215414043662
C           54.45865249441947       62.99837765630359       39.81253244237907
C           53.30202620798430       62.28681339914646       40.52482455055533
C           53.64305492118978       61.98862485539988       41.98306750271185
C           52.94468244626779       60.98466089340035       39.78776769797101
C           51.46193155831946       60.60718017105959       39.91409227762157
C           51.26694665097484       59.12261443650736       39.61183901167436
C           50.60187125834032       61.46280770492541       38.97282643082937
C           49.14880536386448       61.64102716346657       39.43772523088754
C           48.30311253153727       62.12633623367069       38.26032835354955
C           49.06532144978446       62.61963687368587       40.62485669106073
C           48.16902395587939       62.15210300344133       41.77693801899841
C           46.70142415811449       62.08339252165712       41.35643064199723
C           48.29325236198257       63.07960179863873       42.99520142251313
C           49.67630243290386       63.16094086713740       43.65409268775018
C           50.21751145935186       61.77361257872649       43.99704803518330
C           49.61401703905620       63.98209916309171       44.94909231091808
C           49.33503723895673       65.48265751785129       44.81102468668294
C           50.50346819516494       66.19329196582983       44.12954689241044
C           49.10226549257117       66.09170491257993       46.20312059527482
C           47.71809682037387       65.79031472661956       46.79366544915313
C           46.68496208004051       66.77185296688549       46.23897196034325
C           47.71742141704443       65.87042780239173       48.32679158234456
C           48.48745561685672       64.76639098361979       49.06337709011434
C           47.89218248101236       63.38569759920524       48.78715560507459
C           48.46724568225984       65.01638029060862       50.57962991484687
C           49.32128856544274       66.18236257780360       51.08917564264571
C           50.81048360983029       65.89564180105357       50.90290696373386
C           49.05920224665461       66.43349207132302       52.58137350975744
C           47.64478196758875       66.88769722041540       52.95845439443319
C           47.25013134270522       68.15414967789249       52.19837371372913
C           47.54666603144639       67.17999946539521       54.46276008362282
C           47.95399715536219       66.04925343057117       55.41319315649503
C           47.12447716043518       64.78931113015669       55.16712195632166
C           47.78283432384872       66.48698769587193       56.87519736098533
C           48.70188078312322       67.62292671967371       57.34881954622953
C           50.16009465962560       67.17235098630141       57.37208508967322
C           48.23808590770594       68.07652657449360       58.73768967753490
C           48.93358124033455       69.30400661230952       59.33948388487725
C           48.28731483743478       69.59069056392488       60.69757038231251
C           48.83652960051629       70.56163707373729       58.45883123147999
C           50.00895809050144       70.83879453655291       57.50824376045449
C           51.31635625467959       71.00668915301659       58.28250552210464
C           49.76105057965306       72.12747090867123       56.70722551162685
C           48.64519329955758       72.09242556947660       55.65137287207935
C           49.04992979641499       71.24303119680629       54.45089425436773
C           48.33953358456844       73.53926171325338       55.23717279427228
C           47.28428171596359       73.75287667730719       54.14112180784235
C           47.11143897932192       75.25908064384069       53.94074967464008
C           45.96092835980242       73.07284119830899       54.51269555586839
C           44.75514109668940       73.37029760412818       53.60958505211685
C           43.53687084936656       72.62921829024503       54.16190227615184
C           45.02563308897798       72.97902593635165       52.15304978072987
C           43.91249973831099       73.39673366811367       51.19207091276537
C           44.36708921579855       73.31692749763175       49.73905800451013
H           51.39083938534403       71.53451306763652       50.61444889392866
H           52.07802370983907       71.59021259915457       48.99758449968794
H           52.43421008760264       70.22406094980420       50.05532242543865
H           43.55251002959012       73.57814895468256       49.06703675896991
H           45.19134190785829       74.00422418658015       49.55921870971282
H           44.70296068975281       72.31132271396267       49.49734951351003
H           45.94853982342610       73.45882654956472       51.82409208635200
H           45.17433978205148       71.89856383056031       52.08983391304147
H           46.11441362760025       71.99273472039373       54.51569366065498
H           45.69982228451411       73.37296938764170       55.53085373789897
H           47.66096711036702       73.32420894519801       53.20814889708377
H           48.07974880801451       75.73249770688639       53.79051270377643
H           46.49444582828818       75.47636048769773       53.07345426804344
H           46.64640866072290       75.70727677870246       54.81663430067038
H           48.01091968217917       74.08425116173125       56.12470223865306
H           49.27230276763836       74.00003512494446       54.89860181564495
H           49.53879013507521       72.92400538316051       57.42253535653740
H           50.69074843078480       72.40387699420241       56.20236108172313
H           44.54121156036709       74.44324303253492       53.64508775296705
H           43.68877819269333       71.55370184417785       54.09991583770967
H           43.37225727414830       72.89274466711231       55.20508407755773
H           42.63824726036696       72.88474687561421       53.60696444078260
H           47.74764820366200       71.65992102888144       56.09883119617369
H           49.89910449655357       71.69018819853908       53.93980208532279
H           49.32774829836070       70.24059533859517       54.76530853828109
H           48.22864482653671       71.15456431797071       53.74469911975624
H           50.12716867717940       70.00562083579240       56.81286571672423
H           52.13694315230060       71.21725836527702       57.60112352664445
H           51.23033574863408       71.83336545783449       58.98502494664810
H           51.57541251368318       70.11234550380526       58.84257974048657
H           47.91271966048426       70.50557838002022       57.88249570039923
H           48.75273813694165       71.42940076954099       59.11681815584988
H           49.98133246400207       69.05838645387512       59.52122805361778
H           47.24575559747090       69.87779525469344       60.56972975290710
H           48.32137138681509       68.70808094721589       61.33297145472950
H           48.80531618524609       70.40054036101311       61.20769695250451
H           47.16673760302469       68.28973260782524       58.69424365970659
H           48.37296985086738       67.24032844868704       59.42903643255341
H           48.59723048046712       68.46579910553126       56.66243490869968
H           50.28032471299947       66.32986884465470       58.04844417642027
H           50.49091565462526       66.86920276827317       56.38236857214605
H           50.81177959347155       67.97315548036988       57.70876516064141
H           46.74285198312345       66.79304164733919       57.01645733573911
H           47.95384690446709       65.62205530934196       57.52127488587202
H           49.00521912444001       65.80381510995497       55.24717467948036
H           46.06236711249851       65.01228055098471       55.24400874947006
H           47.31788643351232       64.37801002890959       54.18038799542318
H           47.36662991076195       64.02580899965488       55.90448686745644
H           48.16958331603156       68.05216747083608       54.66778418892640
H           46.51350439241885       67.45488078885532       54.69016528473792
H           46.92776603201552       66.10069365841200       52.71081980234818
H           46.30116326939856       68.53703830702256       52.56775094585847
H           48.00531359268892       68.92648583864460       52.33140620591256
H           47.13928457319955       67.95766895513188       51.13588085157725
H           49.29039985570920       65.50890143591724       53.11376203272675
H           49.75861599776950       67.19867475698078       52.92779862753345
H           49.08076301861698       67.08845190972387       50.52832465951154
H           51.09105257084798       64.98063120703485       51.42120341818242
H           51.05709249134244       65.78393865471077       49.85068525765393
H           51.40598434090802       66.71334573195639       51.30414149110232
H           47.42956543940264       65.18537456842220       50.87154930196172
H           48.80753698445833       64.10966622056556       51.08783802827415
H           49.52495583038633       64.75614146361977       48.71943685683057
H           47.99089946491124       63.11650076248199       47.73942464449423
H           48.41445585341776       62.63200020316341       49.37323297409139
H           46.83730818022016       63.35882981463835       49.05283214750859
H           48.12787413341796       66.84169363190739       48.61151456537625
H           46.67900626180261       65.84070375627033       48.66861479843141
H           47.40876417397932       64.78636189393899       46.49421486833881
H           46.70047650680998       66.77511948636511       45.15200283973889
H           45.68173785884473       66.49856568032320       46.55986379126402
H           46.89305501215760       67.78216243698057       46.58687892702769
H           49.88233802422680       65.71880319756887       46.86882296620610
H           49.22117268546888       67.17612875934107       46.14616905197277
H           48.43608582431949       65.63477685801541       44.20729197207070
H           50.66856898341668       65.80583745871746       43.12761291392654
H           50.30672759197736       67.26022233215021       44.04763808729819
H           51.41636078974263       66.05537632341917       44.70574025680930
H           48.85106593055013       63.53332261599732       45.58819075960015
H           50.56994441599925       63.87416923204358       45.46412984263907
H           50.37930527649565       63.64129840806653       42.96803648695168
H           50.41552672785603       61.19732097029573       43.09757949522285
H           51.14897225111029       61.85944404090173       44.55353497844123
H           49.50322792345791       61.22610727890981       44.60758256963901
H           47.98892720238138       64.08237720940578       42.68779122846232
H           47.58085034212264       62.74035301303748       43.75235318088028
H           48.47748576479297       61.14289172169426       42.06831893192889
H           46.55819214615637       61.35999418627369       40.55810976437679
H           46.07851089780329       61.78310737426583       42.19732454375443
H           46.35670725106414       63.05600974039561       41.01079034077802
H           50.06925505611095       62.77033093505526       41.02160990806360
H           48.71046153242259       63.59053543329212       40.27210337651063
H           48.76813333641795       60.66481323224502       39.75579805085827
H           48.71372966901021       63.05150280600123       37.85985006955468
H           48.29485876140126       61.38507842141886       37.46341069694767
H           47.27642675038070       62.31191295243302       38.56331179484533
H           51.04662300159247       62.45364123402068       38.85858811483045
H           50.60709971201023       60.99475914370086       37.98566185245548
H           51.14626749206255       60.78644360736708       40.94663328674968
H           51.64237884105341       58.88616837580145       38.61794569016628
H           51.80045463631971       58.51095219528720       40.33551341145735
H           50.21362577773920       58.85533929432838       39.65305669804268
H           53.18503037175745       61.07793143600355       38.72640440419100
H           53.55827503844851       60.17469755049181       40.18873829686494
H           52.42423629352077       62.93876237596287       40.50136690490824
H           53.69969536873801       62.90166717868625       42.57000197147380
H           52.88319161054348       61.35160346388001       42.42982426222702
H           54.60272030452084       61.47926432452416       42.04712007764361
H           54.18225608577869       63.14750584068593       38.76521043048384
H           55.32743298533635       62.33426633794025       39.82945974959645
H           55.12994260871097       64.22455231314416       41.44721925061710
H           55.90395007475331       65.01919203832128       38.60484905525187
H           56.52738591682336       65.74658131716558       40.08403006461565
H           56.91157410628314       64.07381190534775       39.69903357845565
H           52.83667033376363       64.96521190621088       40.70704554523822
H           53.55262999354072       65.55238449613439       39.21016746160762
H           54.91517108582291       67.16684067021619       40.53356397053157
H           51.90754107973897       67.30946706215954       40.97535846741955
H           53.02426980166003       68.67590197035258       41.00359013320054
H           52.75682249891635       67.78775338838948       39.50488670553437
H           53.68919740917453       65.67848160584467       42.79329551519339
H           53.54105948771249       67.41782888372187       42.94714431383657
H           56.20677897362400       66.06265911078607       42.42629164061447
H           56.02512187917009       68.49363742880780       41.81861629402852
H           55.51423268640477       68.84096558738307       43.46778112281457
H           57.13274859362982       68.21421888868352       43.15644500050914
H           54.90708339664054       66.93585117805776       45.03405228751982
H           56.63058809907489       66.62372072216654       44.86125070236351
H           54.49507653403874       64.51309327608277       44.37320506992172
H           57.51129098464911       64.28586335973331       44.75069383267432
H           56.38484270899917       62.94543644873748       44.51444365552559
H           56.66683023194257       64.09467869579073       43.21623795928843
H           56.05188590624359       65.36121430412692       46.81204062118388
H           55.61114201657859       63.67461321840244       46.62074151436589
H           53.45110171254719       65.75645797280542       46.33305399379957
H           53.01950222131517       63.36729273754317       45.76766277658270
H           53.49030007439895       62.90326071416885       47.40064631483514
H           52.05621287427162       63.89476152250186       47.15220913041178
H           54.67453471360574       64.70872945127950       48.89636014501490
H           53.01200688844295       65.27589758478639       48.84390876172949
H           55.36204026679918       67.02754688804488       48.03608577025658
H           53.16583941478712       67.71332242134980       47.10328256166139
H           52.47106064363611       67.69969215423504       48.72200657639666
H           53.73680820679091       68.85730558459562       48.30702309659459
H           53.83412478432825       66.98778515079113       50.66597578204734
H           55.07246915980559       68.15271706037809       50.19782968465111
H           55.46800649782274       65.20645052498463       50.82395241211387
H           57.48230661983791       67.21984442623138       49.74256384625735
H           57.90327046724797       65.65972795284630       50.44761871716867
H           56.96439836625313       65.72073887656948       48.96485670942780
H           56.46524882613477       67.77864606231944       52.09474690137466
H           57.05367647234629       66.17278745942335       52.51943872723175
H           54.19690492772366       67.13168721818995       52.89968364812648
H           55.57936738427399       64.51805582995897       53.63000690846103
H           54.02769218356082       65.02026091710907       54.29244386511742
H           54.18230507770194       64.72252861948701       52.56858537620472
H           56.13726937080158       68.11322867139678       54.33242275179874
H           56.31789920185098       66.48904647539980       54.96792594019002
H           53.62715725324462       66.87246125370226       55.38244313373620
H           54.22702614401244       67.30347604251052       57.72758400178574
H           55.28453756002963       66.07211926093817       57.03315376576958
H           55.87451503773126       67.72076937167166       57.25339979021167
H           54.96905091045758       69.56767719162710       55.80563170907202
H           53.37320242248374       69.12255799589741       56.40648534931793
H           54.10411625783598       69.20713221895598       53.46147325591281
H           51.63775245137342       69.15940835551740       53.13340469368820
H           52.16722833589345       67.74095508120234       54.02554840048653
H           51.40893405496163       69.08094517615764       54.88274339458975
H           54.29942965213578       71.41494767346238       54.63918474360324
H           52.61759517015917       71.25356429656203       55.14213634895268
H           51.93561322054497       71.24686368282426       52.73438980405520
H           52.21254369992744       73.68257707803956       52.48277859695198
H           51.92369772482802       73.28866986159366       54.17145446157521
H           53.55566559263044       73.67029861825469       53.62649401672255
H           54.15996485135560       70.46474378504411       51.84225107592296
H           54.83136788277582       72.04270893012630       52.24854198454977
H           53.27563666514060       73.10292359947476       50.61775456099029
H           54.94607026492945       70.80693581822685       49.50864708161159
H           54.41150301873157       72.22189985173792       48.59926506264420
H           55.54554852740964       72.40957628675376       49.93545413923913
H           43.03958375027118       72.75641780678534       51.32896192949433
H           43.60957200053830       74.42285267594731       51.41519328322104
C           58.97701462333564       69.31795396365584       57.71659985212192
C           59.79594249337026       68.05321037118159       57.97021615608676
C           60.25628824786074       67.46198966310702       56.64165892303204
C           58.96848903844246       67.03529613974823       58.76476706522458
C           59.79032189842229       65.88744190292437       59.38026143812394
C           59.10899258227077       64.54502349261077       59.11591675518830
C           59.98068763086396       66.06552695403367       60.89220936582309
C           60.79289711088665       67.30111297902542       61.29610166465081
C           62.28175236865373       67.07501129548012       61.03230183973108
C           60.59509031394855       67.64661610464314       62.77794070926039
C           59.20706169292662       68.17402433902159       63.16159541091376
[...]
  3286   6 C     3287   6 C                                       1.5342892
  3287   6 C     3288   6 C                                       1.5286172
  3287   6 C     3289   6 C                                       1.5332602
  3290   6 C     3291   6 C                                       1.5290345
  3290   6 C     3292   6 C                                       1.5348654
  3292   6 C     3293   6 C                                       1.5340947
  3293   6 C     3294   6 C                                       1.5272348
  3293   6 C     3295   6 C                                       1.5362153
  3295   6 C     3296   6 C                                       1.5366312
  3296   6 C     3297   6 C                                       1.5280245
  3296   6 C     3298   6 C                                       1.5332750
  3298   6 C     3299   6 C                                       1.5340019
  3299   6 C     3300   6 C                                       1.5291060
  3299   6 C     3301   6 C                                       1.5400948 (max)
  3301   6 C     3302   6 C                                       1.5328266
  3302   6 C     3303   6 C                                       1.5283590
  3302   6 C     3304   6 C                                       1.5356367
  3304   6 C     3305   6 C                                       1.5372232
  3305   6 C     3306   6 C                                       1.5262216
  3305   6 C     3307   6 C                                       1.5359891
  3307   6 C     3308   6 C                                       1.5365128
  3308   6 C     3309   6 C                                       1.5289239
  3308   6 C     3310   6 C                                       1.5335939
  3310   6 C     3311   6 C                                       1.5371120
  3311   6 C     3312   6 C                                       1.5285101
  3311   6 C     3313   6 C                                       1.5326983
  3313   6 C     3314   6 C                                       1.5377264
  3314   6 C     3315   6 C                                       1.5295748
  3314   6 C     3316   6 C                                       1.5335930
  3316   6 C     3317   6 C                                       1.5361374
  3317   6 C     3318   6 C                                       1.5282187
  3317   6 C     3319   6 C                                       1.5332179
  3319   6 C     3320   6 C                                       1.5362428
  3320   6 C     3321   6 C                                       1.5289716
  3320   6 C     3322   6 C                                       1.5338020
  3322   6 C     3323   6 C                                       1.5348640
  3323   6 C     3324   6 C                                       1.5287982
  3323   6 C     3325   6 C                                       1.5340426
  3326   6 C     3327   6 C                                       1.5297752
  3326   6 C     3328   6 C                                       1.5345684
  3328   6 C     3329   6 C                                       1.5334728
  3329   6 C     3330   6 C                                       1.5275574
  3329   6 C     3331   6 C                                       1.5378567
  3331   6 C     3332   6 C                                       1.5381268
  3332   6 C     3333   6 C                                       1.5276773
  3332   6 C     3334   6 C                                       1.5343548
  3334   6 C     3335   6 C                                       1.5349550
  3335   6 C     3336   6 C                                       1.5289189
  3335   6 C     3337   6 C                                       1.5319475
  3337   6 C     3338   6 C                                       1.5364827
  3338   6 C     3339   6 C                                       1.5288928
  3338   6 C     3340   6 C                                       1.5325803
  3340   6 C     3341   6 C                                       1.5353155
  3341   6 C     3342   6 C                                       1.5304564
  3341   6 C     3343   6 C                                       1.5391794
  3343   6 C     3344   6 C                                       1.5350920
  3344   6 C     3345   6 C                                       1.5275092
  3344   6 C     3346   6 C                                       1.5357004
  3346   6 C     3347   6 C                                       1.5361530
  3347   6 C     3348   6 C                                       1.5269452
  3347   6 C     3349   6 C                                       1.5345159
  3350   6 C     3351   6 C                                       1.5291125
  3350   6 C     3352   6 C                                       1.5325368
  3352   6 C     3353   6 C                                       1.5260660
  3353   6 C     3354   6 C                                       1.5240116
  3265   6 C     3355   1 H                                       1.0873653
  3265   6 C     3356   1 H                                       1.0879477
  3265   6 C     3357   1 H                                       1.0866483
  3354   6 C     3358   1 H                                       1.0880823
  3354   6 C     3359   1 H                                       1.0883238
  3354   6 C     3360   1 H                                       1.0876975
  3352   6 C     3361   1 H                                       1.0931303
  3352   6 C     3362   1 H                                       1.0928957
  3349   6 C     3363   1 H                                       1.0911614
  3349   6 C     3364   1 H                                       1.0916037
  3347   6 C     3365   1 H                                       1.0941277
  3348   6 C     3366   1 H                                       1.0867459
  3348   6 C     3367   1 H                                       1.0886256
  3348   6 C     3368   1 H                                       1.0880613
  3346   6 C     3369   1 H                                       1.0925934
  3346   6 C     3370   1 H                                       1.0925007
  3343   6 C     3371   1 H                                       1.0928102
  3343   6 C     3372   1 H                                       1.0926889
  3350   6 C     3373   1 H                                       1.0948069
  3351   6 C     3374   1 H                                       1.0881931
  3351   6 C     3375   1 H                                       1.0883590
  3351   6 C     3376   1 H                                       1.0881656
  3344   6 C     3377   1 H                                       1.0927875
  3345   6 C     3378   1 H                                       1.0873953
  3345   6 C     3379   1 H                                       1.0882906
  3345   6 C     3380   1 H                                       1.0869255
  3341   6 C     3381   1 H                                       1.0920976
  3342   6 C     3382   1 H                                       1.0879948
  3342   6 C     3383   1 H                                       1.0877967
  3342   6 C     3384   1 H                                       1.0884293
  3340   6 C     3385   1 H                                       1.0919186
  3340   6 C     3386   1 H                                       1.0936813
  3338   6 C     3387   1 H                                       1.0918308
  3339   6 C     3388   1 H                                       1.0883057
  3339   6 C     3389   1 H                                       1.0882417
  3339   6 C     3390   1 H                                       1.0864894
  3337   6 C     3391   1 H                                       1.0916835
  3337   6 C     3392   1 H                                       1.0934639
  3335   6 C     3393   1 H                                       1.0930187
  3336   6 C     3394   1 H                                       1.0866136
  3336   6 C     3395   1 H                                       1.0878267
  3336   6 C     3396   1 H                                       1.0877002
  3334   6 C     3397   1 H                                       1.0926643
  3334   6 C     3398   1 H                                       1.0931537
  3332   6 C     3399   1 H                                       1.0941560
  3333   6 C     3400   1 H                                       1.0868391
  3333   6 C     3401   1 H                                       1.0874270
  3333   6 C     3402   1 H                                       1.0881113
  3331   6 C     3403   1 H                                       1.0921921
  3331   6 C     3404   1 H                                       1.0919501
  3329   6 C     3405   1 H                                       1.0933343
  3330   6 C     3406   1 H                                       1.0884574
  3330   6 C     3407   1 H                                       1.0868727
  3330   6 C     3408   1 H                                       1.0880074
  3328   6 C     3409   1 H                                       1.0937218
  3328   6 C     3410   1 H                                       1.0932127
  3326   6 C     3411   1 H                                       1.0933655
  3327   6 C     3412   1 H                                       1.0881424
  3327   6 C     3413   1 H                                       1.0883649
  3327   6 C     3414   1 H                                       1.0878197
  3325   6 C     3415   1 H                                       1.0905149
  3325   6 C     3416   1 H                                       1.0925747
  3323   6 C     3417   1 H                                       1.0924942
  3324   6 C     3418   1 H                                       1.0880506
  3324   6 C     3419   1 H                                       1.0872221
  3324   6 C     3420   1 H                                       1.0886918
  3322   6 C     3421   1 H                                       1.0920430
  3322   6 C     3422   1 H                                       1.0931213
  3320   6 C     3423   1 H                                       1.0938707
  3321   6 C     3424   1 H                                       1.0863700
  3321   6 C     3425   1 H                                       1.0883115
  3321   6 C     3426   1 H                                       1.0881382
  3319   6 C     3427   1 H                                       1.0916210
  3319   6 C     3428   1 H                                       1.0936317
  3317   6 C     3429   1 H                                       1.0922621
  3318   6 C     3430   1 H                                       1.0871001
  3318   6 C     3431   1 H                                       1.0886501
  3318   6 C     3432   1 H                                       1.0875726
  3316   6 C     3433   1 H                                       1.0908853
  3316   6 C     3434   1 H                                       1.0927479
  3314   6 C     3435   1 H                                       1.0930078
  3315   6 C     3436   1 H                                       1.0865176
  3315   6 C     3437   1 H                                       1.0885022
  3315   6 C     3438   1 H                                       1.0880700
  3313   6 C     3439   1 H                                       1.0918512
  3313   6 C     3440   1 H                                       1.0936548
  3311   6 C     3441   1 H                                       1.0924404
  3312   6 C     3442   1 H                                       1.0880743
  3312   6 C     3443   1 H                                       1.0866549
  3312   6 C     3444   1 H                                       1.0880630
  3310   6 C     3445   1 H                                       1.0912876
  3310   6 C     3446   1 H                                       1.0934451
  3308   6 C     3447   1 H                                       1.0934510
  3309   6 C     3448   1 H                                       1.0876697
  3309   6 C     3449   1 H                                       1.0866596
  3309   6 C     3450   1 H                                       1.0883277
  3307   6 C     3451   1 H                                       1.0933333
  3307   6 C     3452   1 H                                       1.0937223
  3305   6 C     3453   1 H                                       1.0933305
  3306   6 C     3454   1 H                                       1.0872021
  3306   6 C     3455   1 H                                       1.0872899
  3306   6 C     3456   1 H                                       1.0874686
  3304   6 C     3457   1 H                                       1.0934031
  3304   6 C     3458   1 H                                       1.0930518
  3302   6 C     3459   1 H                                       1.0931624
  3303   6 C     3460   1 H                                       1.0875069
  3303   6 C     3461   1 H                                       1.0873233
  3303   6 C     3462   1 H                                       1.0874234
  3301   6 C     3463   1 H                                       1.0889318
  3301   6 C     3464   1 H                                       1.0924971
  3299   6 C     3465   1 H                                       1.0932848
  3300   6 C     3466   1 H                                       1.0875311
  3300   6 C     3467   1 H                                       1.0884776
  3300   6 C     3468   1 H                                       1.0881957
  3298   6 C     3469   1 H                                       1.0926338
  3298   6 C     3470   1 H                                       1.0933724
  3296   6 C     3471   1 H                                       1.0927610
  3297   6 C     3472   1 H                                       1.0881742
  3297   6 C     3473   1 H                                       1.0883107
  3297   6 C     3474   1 H                                       1.0869960
  3295   6 C     3475   1 H                                       1.0926665
  3295   6 C     3476   1 H                                       1.0924002
  3293   6 C     3477   1 H                                       1.0937861
  3294   6 C     3478   1 H                                       1.0884210
  3294   6 C     3479   1 H                                       1.0871706
  3294   6 C     3480   1 H                                       1.0873976
  3292   6 C     3481   1 H                                       1.0934792
  3292   6 C     3482   1 H                                       1.0932404
  3290   6 C     3483   1 H                                       1.0932567
  3291   6 C     3484   1 H                                       1.0883320
  3291   6 C     3485   1 H                                       1.0883065
  3291   6 C     3486   1 H                                       1.0875687
  3289   6 C     3487   1 H                                       1.0898919
  3289   6 C     3488   1 H                                       1.0922434
  3287   6 C     3489   1 H                                       1.0930733
  3288   6 C     3490   1 H                                       1.0877978
  3288   6 C     3491   1 H                                       1.0867190
  3288   6 C     3492   1 H                                       1.0883288
  3286   6 C     3493   1 H                                       1.0933533
  3286   6 C     3494   1 H                                       1.0933808
  3284   6 C     3495   1 H                                       1.0931262
  3285   6 C     3496   1 H                                       1.0869617
  3285   6 C     3497   1 H                                       1.0867387
  3285   6 C     3498   1 H                                       1.0880859
  3283   6 C     3499   1 H                                       1.0897241
  3283   6 C     3500   1 H                                       1.0921375
  3281   6 C     3501   1 H                                       1.0969085
  3282   6 C     3502   1 H                                       1.0878544
  3282   6 C     3503   1 H                                       1.0880836
  3282   6 C     3504   1 H                                       1.0871603
  3280   6 C     3505   1 H                                       1.0927389
  3280   6 C     3506   1 H                                       1.0910895
  3278   6 C     3507   1 H                                       1.0918629
  3279   6 C     3508   1 H                                       1.0885363
  3279   6 C     3509   1 H                                       1.0872496
  3279   6 C     3510   1 H                                       1.0880180
  3277   6 C     3511   1 H                                       1.0927016
  3277   6 C     3512   1 H                                       1.0934005
  3275   6 C     3513   1 H                                       1.0927620
  3276   6 C     3514   1 H                                       1.0873357
  3276   6 C     3515   1 H                                       1.0878437
  3276   6 C     3516   1 H                                       1.0883267
  3274   6 C     3517   1 H                                       1.0906767
  3274   6 C     3518   1 H                                       1.0924362
  3272   6 C     3519   1 H                                       1.0935597
  3273   6 C     3520   1 H                                       1.0884589
  3273   6 C     3521   1 H                                       1.0880670
  3273   6 C     3522   1 H                                       1.0870084
  3271   6 C     3523   1 H                                       1.0932762
  3271   6 C     3524   1 H                                       1.0929575
  3269   6 C     3525   1 H                                       1.0935946
  3270   6 C     3526   1 H                                       1.0869562
  3270   6 C     3527   1 H                                       1.0872402
  3270   6 C     3528   1 H                                       1.0881857
  3268   6 C     3529   1 H                                       1.0935886
  3268   6 C     3530   1 H                                       1.0933798
  3266   6 C     3531   1 H                                       1.0946240
  3267   6 C     3532   1 H                                       1.0880082
  3267   6 C     3533   1 H                                       1.0876742
  3267   6 C     3534   1 H                                       1.0882435
  3353   6 C     3535   1 H                                       1.0925775
  3353   6 C     3536   1 H                                       1.0909625

 * 2 distinct bonds (by element types)

   Z      Z             #   av. dist./Å        max./Å        min./Å
   1 H    6 C        2366     1.0900809     1.0970847     1.0847062
   6 C    6 C        1105     1.5324631     1.5400948     1.5220457


optimized geometry written to: xtbopt.xyz


           -------------------------------------------------
          | TOTAL ENERGY            -3716.251490255197 Eh   |
          | GRADIENT NORM               0.000961622339 Eh/α |
          | HOMO-LUMO GAP              11.489410102699 eV   |
           -------------------------------------------------

------------------------------------------------------------------------
 * finished run on 2024/10/04 at 20:46:45.175     
------------------------------------------------------------------------
 total:
 * wall-time:     0 d,  6 h, 34 min,  7.418 sec
 *  cpu-time:     1 d, 12 h, 48 min, 53.608 sec
 * ratio c/w:     5.605 speedup
 SCF:
 * wall-time:     0 d,  0 h, 16 min, 39.720 sec
 *  cpu-time:     0 d,  1 h, 49 min, 53.220 sec
 * ratio c/w:     6.595 speedup
 ANC optimizer:
 * wall-time:     0 d,  6 h, 15 min, 58.490 sec
 *  cpu-time:     1 d, 10 h, 57 min, 13.520 sec
 * ratio c/w:     5.578 speedup

