3536
 energy: -3716.251490255197 gnorm: 0.000961622339 xtb: 6.6.1 (8d0f1dd)
C           52.27491055246622       71.29995363933388       50.02745455939079
C           53.50425691457362       72.03423721478443       50.55891889295029
C           54.67375103638845       71.85777866883701       49.59032465496668
C           53.91821100292085       71.52440792888694       51.94482794328893
C           52.87797532392073       71.69531996013717       53.05707246584262
C           52.62735748537952       73.17463620963024       53.34934194926601
C           53.32910886108066       71.00148955319352       54.35154632704212
C           53.44512063333205       69.47210894788816       54.29056897114422
C           52.08123865991905       68.82407751148720       54.06756247868817
C           54.08295452763878       68.96409112235980       55.58997665050516
C           54.50620303127803       67.48873148087064       55.58999918798919
C           55.00474421190979       67.12286716818501       56.98815039360123
C           55.59439526255294       67.19025793279894       54.54446999005520
C           55.08264270402773       66.58349952342431       53.22733716281123
C           54.69463885374396       65.12188363042527       53.43966867845051
C           56.17944044534621       66.72474870177231       52.16422055599153
C           55.84159781192154       66.23021990481428       50.75025169924849
C           57.12482354162265       66.20844438500238       49.92182215530023
C           54.76256184105382       67.10769359575612       50.10346502416223
C           54.45714075937307       66.83977359954125       48.62061243440220
C           53.39222849354668       67.83618535995832       48.15898905168845
C           53.99758558831498       65.39576749931322       48.38939884155268
C           53.92702763589161       64.96444391188074       46.91817385094707
C           53.06839020869209       63.70654513231128       46.80014031799875
C           55.32535951668238       64.69247923369977       46.34943645506317
C           55.42928898095664       64.85953294813774       44.82587363957149
C           56.56868461237065       63.99484020734764       44.29286705193847
C           55.64330020593440       66.34031283425274       44.48849424177862
C           55.56226340819145       66.72856844798200       43.00549002851474
C           56.09054954385234       68.15528107849100       42.84945263643301
C           54.12679982977082       66.62550669867836       42.47534748159283
C           53.99696396945845       66.74072828636579       40.94473206135865
C           52.85037935767691       67.68733237047127       40.58433925575968
C           53.74699856357971       65.38342835372674       40.27288954138916
C           54.87993365959538       64.35798800430338       40.39232364794103
C           56.13179436947603       64.83114162671572       39.65215414043662
C           54.45865249441947       62.99837765630359       39.81253244237907
C           53.30202620798430       62.28681339914646       40.52482455055533
C           53.64305492118978       61.98862485539988       41.98306750271185
C           52.94468244626779       60.98466089340035       39.78776769797101
C           51.46193155831946       60.60718017105959       39.91409227762157
C           51.26694665097484       59.12261443650736       39.61183901167436
C           50.60187125834032       61.46280770492541       38.97282643082937
C           49.14880536386448       61.64102716346657       39.43772523088754
C           48.30311253153727       62.12633623367069       38.26032835354955
C           49.06532144978446       62.61963687368587       40.62485669106073
C           48.16902395587939       62.15210300344133       41.77693801899841
C           46.70142415811449       62.08339252165712       41.35643064199723
C           48.29325236198257       63.07960179863873       42.99520142251313
C           49.67630243290386       63.16094086713740       43.65409268775018
C           50.21751145935186       61.77361257872649       43.99704803518330
C           49.61401703905620       63.98209916309171       44.94909231091808
C           49.33503723895673       65.48265751785129       44.81102468668294
C           50.50346819516494       66.19329196582983       44.12954689241044
C           49.10226549257117       66.09170491257993       46.20312059527482
C           47.71809682037387       65.79031472661956       46.79366544915313
C           46.68496208004051       66.77185296688549       46.23897196034325
C           47.71742141704443       65.87042780239173       48.32679158234456
C           48.48745561685672       64.76639098361979       49.06337709011434
C           47.89218248101236       63.38569759920524       48.78715560507459
C           48.46724568225984       65.01638029060862       50.57962991484687
C           49.32128856544274       66.18236257780360       51.08917564264571
C           50.81048360983029       65.89564180105357       50.90290696373386
C           49.05920224665461       66.43349207132302       52.58137350975744
C           47.64478196758875       66.88769722041540       52.95845439443319
C           47.25013134270522       68.15414967789249       52.19837371372913
C           47.54666603144639       67.17999946539521       54.46276008362282
C           47.95399715536219       66.04925343057117       55.41319315649503
C           47.12447716043518       64.78931113015669       55.16712195632166
C           47.78283432384872       66.48698769587193       56.87519736098533
C           48.70188078312322       67.62292671967371       57.34881954622953
C           50.16009465962560       67.17235098630141       57.37208508967322
C           48.23808590770594       68.07652657449360       58.73768967753490
C           48.93358124033455       69.30400661230952       59.33948388487725
C           48.28731483743478       69.59069056392488       60.69757038231251
C           48.83652960051629       70.56163707373729       58.45883123147999
C           50.00895809050144       70.83879453655291       57.50824376045449
C           51.31635625467959       71.00668915301659       58.28250552210464
C           49.76105057965306       72.12747090867123       56.70722551162685
C           48.64519329955758       72.09242556947660       55.65137287207935
C           49.04992979641499       71.24303119680629       54.45089425436773
C           48.33953358456844       73.53926171325338       55.23717279427228
C           47.28428171596359       73.75287667730719       54.14112180784235
C           47.11143897932192       75.25908064384069       53.94074967464008
C           45.96092835980242       73.07284119830899       54.51269555586839
C           44.75514109668940       73.37029760412818       53.60958505211685
C           43.53687084936656       72.62921829024503       54.16190227615184
C           45.02563308897798       72.97902593635165       52.15304978072987
C           43.91249973831099       73.39673366811367       51.19207091276537
C           44.36708921579855       73.31692749763175       49.73905800451013
H           51.39083938534403       71.53451306763652       50.61444889392866
H           52.07802370983907       71.59021259915457       48.99758449968794
H           52.43421008760264       70.22406094980420       50.05532242543865
H           43.55251002959012       73.57814895468256       49.06703675896991
H           45.19134190785829       74.00422418658015       49.55921870971282
H           44.70296068975281       72.31132271396267       49.49734951351003
H           45.94853982342610       73.45882654956472       51.82409208635200
H           45.17433978205148       71.89856383056031       52.08983391304147
H           46.11441362760025       71.99273472039373       54.51569366065498
H           45.69982228451411       73.37296938764170       55.53085373789897
H           47.66096711036702       73.32420894519801       53.20814889708377
H           48.07974880801451       75.73249770688639       53.79051270377643
H           46.49444582828818       75.47636048769773       53.07345426804344
H           46.64640866072290       75.70727677870246       54.81663430067038
H           48.01091968217917       74.08425116173125       56.12470223865306
H           49.27230276763836       74.00003512494446       54.89860181564495
H           49.53879013507521       72.92400538316051       57.42253535653740
H           50.69074843078480       72.40387699420241       56.20236108172313
H           44.54121156036709       74.44324303253492       53.64508775296705
H           43.68877819269333       71.55370184417785       54.09991583770967
H           43.37225727414830       72.89274466711231       55.20508407755773
H           42.63824726036696       72.88474687561421       53.60696444078260
H           47.74764820366200       71.65992102888144       56.09883119617369
H           49.89910449655357       71.69018819853908       53.93980208532279
H           49.32774829836070       70.24059533859517       54.76530853828109
H           48.22864482653671       71.15456431797071       53.74469911975624
H           50.12716867717940       70.00562083579240       56.81286571672423
H           52.13694315230060       71.21725836527702       57.60112352664445
H           51.23033574863408       71.83336545783449       58.98502494664810
H           51.57541251368318       70.11234550380526       58.84257974048657
H           47.91271966048426       70.50557838002022       57.88249570039923
H           48.75273813694165       71.42940076954099       59.11681815584988
H           49.98133246400207       69.05838645387512       59.52122805361778
H           47.24575559747090       69.87779525469344       60.56972975290710
H           48.32137138681509       68.70808094721589       61.33297145472950
H           48.80531618524609       70.40054036101311       61.20769695250451
H           47.16673760302469       68.28973260782524       58.69424365970659
H           48.37296985086738       67.24032844868704       59.42903643255341
H           48.59723048046712       68.46579910553126       56.66243490869968
H           50.28032471299947       66.32986884465470       58.04844417642027
H           50.49091565462526       66.86920276827317       56.38236857214605
H           50.81177959347155       67.97315548036988       57.70876516064141
H           46.74285198312345       66.79304164733919       57.01645733573911
H           47.95384690446709       65.62205530934196       57.52127488587202
H           49.00521912444001       65.80381510995497       55.24717467948036
H           46.06236711249851       65.01228055098471       55.24400874947006
H           47.31788643351232       64.37801002890959       54.18038799542318
H           47.36662991076195       64.02580899965488       55.90448686745644
H           48.16958331603156       68.05216747083608       54.66778418892640
H           46.51350439241885       67.45488078885532       54.69016528473792
H           46.92776603201552       66.10069365841200       52.71081980234818
H           46.30116326939856       68.53703830702256       52.56775094585847
H           48.00531359268892       68.92648583864460       52.33140620591256
H           47.13928457319955       67.95766895513188       51.13588085157725
H           49.29039985570920       65.50890143591724       53.11376203272675
H           49.75861599776950       67.19867475698078       52.92779862753345
H           49.08076301861698       67.08845190972387       50.52832465951154
H           51.09105257084798       64.98063120703485       51.42120341818242
H           51.05709249134244       65.78393865471077       49.85068525765393
H           51.40598434090802       66.71334573195639       51.30414149110232
H           47.42956543940264       65.18537456842220       50.87154930196172
H           48.80753698445833       64.10966622056556       51.08783802827415
H           49.52495583038633       64.75614146361977       48.71943685683057
H           47.99089946491124       63.11650076248199       47.73942464449423
H           48.41445585341776       62.63200020316341       49.37323297409139
H           46.83730818022016       63.35882981463835       49.05283214750859
H           48.12787413341796       66.84169363190739       48.61151456537625
H           46.67900626180261       65.84070375627033       48.66861479843141
H           47.40876417397932       64.78636189393899       46.49421486833881
H           46.70047650680998       66.77511948636511       45.15200283973889
H           45.68173785884473       66.49856568032320       46.55986379126402
H           46.89305501215760       67.78216243698057       46.58687892702769
H           49.88233802422680       65.71880319756887       46.86882296620610
H           49.22117268546888       67.17612875934107       46.14616905197277
H           48.43608582431949       65.63477685801541       44.20729197207070
H           50.66856898341668       65.80583745871746       43.12761291392654
H           50.30672759197736       67.26022233215021       44.04763808729819
H           51.41636078974263       66.05537632341917       44.70574025680930
H           48.85106593055013       63.53332261599732       45.58819075960015
H           50.56994441599925       63.87416923204358       45.46412984263907
H           50.37930527649565       63.64129840806653       42.96803648695168
H           50.41552672785603       61.19732097029573       43.09757949522285
H           51.14897225111029       61.85944404090173       44.55353497844123
H           49.50322792345791       61.22610727890981       44.60758256963901
H           47.98892720238138       64.08237720940578       42.68779122846232
H           47.58085034212264       62.74035301303748       43.75235318088028
H           48.47748576479297       61.14289172169426       42.06831893192889
H           46.55819214615637       61.35999418627369       40.55810976437679
H           46.07851089780329       61.78310737426583       42.19732454375443
H           46.35670725106414       63.05600974039561       41.01079034077802
H           50.06925505611095       62.77033093505526       41.02160990806360
H           48.71046153242259       63.59053543329212       40.27210337651063
H           48.76813333641795       60.66481323224502       39.75579805085827
H           48.71372966901021       63.05150280600123       37.85985006955468
H           48.29485876140126       61.38507842141886       37.46341069694767
H           47.27642675038070       62.31191295243302       38.56331179484533
H           51.04662300159247       62.45364123402068       38.85858811483045
H           50.60709971201023       60.99475914370086       37.98566185245548
H           51.14626749206255       60.78644360736708       40.94663328674968
H           51.64237884105341       58.88616837580145       38.61794569016628
H           51.80045463631971       58.51095219528720       40.33551341145735
H           50.21362577773920       58.85533929432838       39.65305669804268
H           53.18503037175745       61.07793143600355       38.72640440419100
H           53.55827503844851       60.17469755049181       40.18873829686494
H           52.42423629352077       62.93876237596287       40.50136690490824
H           53.69969536873801       62.90166717868625       42.57000197147380
H           52.88319161054348       61.35160346388001       42.42982426222702
H           54.60272030452084       61.47926432452416       42.04712007764361
H           54.18225608577869       63.14750584068593       38.76521043048384
H           55.32743298533635       62.33426633794025       39.82945974959645
H           55.12994260871097       64.22455231314416       41.44721925061710
H           55.90395007475331       65.01919203832128       38.60484905525187
H           56.52738591682336       65.74658131716558       40.08403006461565
H           56.91157410628314       64.07381190534775       39.69903357845565
H           52.83667033376363       64.96521190621088       40.70704554523822
H           53.55262999354072       65.55238449613439       39.21016746160762
H           54.91517108582291       67.16684067021619       40.53356397053157
H           51.90754107973897       67.30946706215954       40.97535846741955
H           53.02426980166003       68.67590197035258       41.00359013320054
H           52.75682249891635       67.78775338838948       39.50488670553437
H           53.68919740917453       65.67848160584467       42.79329551519339
H           53.54105948771249       67.41782888372187       42.94714431383657
H           56.20677897362400       66.06265911078607       42.42629164061447
H           56.02512187917009       68.49363742880780       41.81861629402852
H           55.51423268640477       68.84096558738307       43.46778112281457
H           57.13274859362982       68.21421888868352       43.15644500050914
H           54.90708339664054       66.93585117805776       45.03405228751982
H           56.63058809907489       66.62372072216654       44.86125070236351
H           54.49507653403874       64.51309327608277       44.37320506992172
H           57.51129098464911       64.28586335973331       44.75069383267432
H           56.38484270899917       62.94543644873748       44.51444365552559
H           56.66683023194257       64.09467869579073       43.21623795928843
H           56.05188590624359       65.36121430412692       46.81204062118388
H           55.61114201657859       63.67461321840244       46.62074151436589
H           53.45110171254719       65.75645797280542       46.33305399379957
H           53.01950222131517       63.36729273754317       45.76766277658270
H           53.49030007439895       62.90326071416885       47.40064631483514
H           52.05621287427162       63.89476152250186       47.15220913041178
H           54.67453471360574       64.70872945127950       48.89636014501490
H           53.01200688844295       65.27589758478639       48.84390876172949
H           55.36204026679918       67.02754688804488       48.03608577025658
H           53.16583941478712       67.71332242134980       47.10328256166139
H           52.47106064363611       67.69969215423504       48.72200657639666
H           53.73680820679091       68.85730558459562       48.30702309659459
H           53.83412478432825       66.98778515079113       50.66597578204734
H           55.07246915980559       68.15271706037809       50.19782968465111
H           55.46800649782274       65.20645052498463       50.82395241211387
H           57.48230661983791       67.21984442623138       49.74256384625735
H           57.90327046724797       65.65972795284630       50.44761871716867
H           56.96439836625313       65.72073887656948       48.96485670942780
H           56.46524882613477       67.77864606231944       52.09474690137466
H           57.05367647234629       66.17278745942335       52.51943872723175
H           54.19690492772366       67.13168721818995       52.89968364812648
H           55.57936738427399       64.51805582995897       53.63000690846103
H           54.02769218356082       65.02026091710907       54.29244386511742
H           54.18230507770194       64.72252861948701       52.56858537620472
H           56.13726937080158       68.11322867139678       54.33242275179874
H           56.31789920185098       66.48904647539980       54.96792594019002
H           53.62715725324462       66.87246125370226       55.38244313373620
H           54.22702614401244       67.30347604251052       57.72758400178574
H           55.28453756002963       66.07211926093817       57.03315376576958
H           55.87451503773126       67.72076937167166       57.25339979021167
H           54.96905091045758       69.56767719162710       55.80563170907202
H           53.37320242248374       69.12255799589741       56.40648534931793
H           54.10411625783598       69.20713221895598       53.46147325591281
H           51.63775245137342       69.15940835551740       53.13340469368820
H           52.16722833589345       67.74095508120234       54.02554840048653
H           51.40893405496163       69.08094517615764       54.88274339458975
H           54.29942965213578       71.41494767346238       54.63918474360324
H           52.61759517015917       71.25356429656203       55.14213634895268
H           51.93561322054497       71.24686368282426       52.73438980405520
H           52.21254369992744       73.68257707803956       52.48277859695198
H           51.92369772482802       73.28866986159366       54.17145446157521
H           53.55566559263044       73.67029861825469       53.62649401672255
H           54.15996485135560       70.46474378504411       51.84225107592296
H           54.83136788277582       72.04270893012630       52.24854198454977
H           53.27563666514060       73.10292359947476       50.61775456099029
H           54.94607026492945       70.80693581822685       49.50864708161159
H           54.41150301873157       72.22189985173792       48.59926506264420
H           55.54554852740964       72.40957628675376       49.93545413923913
H           43.03958375027118       72.75641780678534       51.32896192949433
H           43.60957200053830       74.42285267594731       51.41519328322104
C           58.97701462333564       69.31795396365584       57.71659985212192
C           59.79594249337026       68.05321037118159       57.97021615608676
C           60.25628824786074       67.46198966310702       56.64165892303204
C           58.96848903844246       67.03529613974823       58.76476706522458
C           59.79032189842229       65.88744190292437       59.38026143812394
C           59.10899258227077       64.54502349261077       59.11591675518830
C           59.98068763086396       66.06552695403367       60.89220936582309
C           60.79289711088665       67.30111297902542       61.29610166465081
C           62.28175236865373       67.07501129548012       61.03230183973108
C           60.59509031394855       67.64661610464314       62.77794070926039
C           59.20706169292662       68.17402433902159       63.16159541091376
C           58.93440216646760       69.53901061559714       62.53082691110098
C           59.09179047906323       68.28632497083460       64.68838666165749
C           58.89891483617053       66.94927923097677       65.42033551363370
C           57.45427111907564       66.47573483706800       65.29224064552282
C           59.30775466701470       67.13266579778151       66.88771237727931
C           59.14654320078220       65.92003013362734       67.81748328102964
C           59.66102403525639       66.31512327975638       69.20208494621988
C           59.89023962461211       64.70051132886714       67.25966954793788
C           59.93309466904778       63.45607311690264       68.15884759247514
C           60.83065611520038       62.41274766082777       67.49106797238849
C           58.53064433608966       62.87900084217815       68.43129488362035
C           58.25849896059846       62.57164191532510       69.90875916725268
C           59.17229158560267       61.45918951292781       70.42344709885843
C           56.79973518856757       62.15373848852912       70.14278809479823
C           55.72582067225770       63.21123446278856       69.85743649649619
C           55.96032317272904       64.48008556957376       70.67745642683175
C           54.33086338388680       62.65693753961723       70.18764648605509
C           53.79799374727733       61.56032730169780       69.25375974454231
C           53.46796682752066       62.13542525083906       67.87769594566171
C           52.55840247096349       60.92051936274687       69.89662836271931
C           52.00352892856231       59.68424037966342       69.17788615162432
C           50.57437920854355       59.41290286584798       69.64644771811491
C           52.88005755840473       58.45004157531603       69.41900113132057
C           52.59711617367564       57.30518775778872       68.42745822881162
C           52.12579855310800       56.05244089157856       69.16705102458852
C           53.82767628388086       56.95913807845420       67.57939184749100
C           54.35157960682832       58.07648099005204       66.66789350969751
C           53.37713837354466       58.36879080748149       65.52830590969356
C           55.71433813545026       57.67683426087822       66.08086058181041
C           56.88596728512295       57.79915841249460       67.06460594220370
C           57.38989784564924       59.24259527698057       67.09924698729397
C           58.05361240909836       56.87141647742870       66.69711917342210
C           57.77226892362932       55.36675202599625       66.77641574002803
C           57.40274165244375       54.94369014848017       68.19900307649154
C           58.99184516902680       54.54282390650911       66.33621914436344
C           59.53984110554745       54.78492604895471       64.92227658022273
C           58.42685374765902       54.85731605575537       63.87756067537475
C           60.48405350126609       53.64142770222625       64.51661099893607
C           61.67446788279602       53.37124231146913       65.44224896394090
C           62.65325344035453       54.54475398751106       65.42520587843870
C           62.40020846765197       52.07974752045022       65.03133275291910
C           61.62068443637229       50.77661729686090       65.25487565206114
C           61.26897070915560       50.58016311810775       66.73032870264321
C           62.43253636015880       49.56152974143648       64.78012165043057
C           62.65085890941489       49.42140807392790       63.26596865797275
C           61.32819720713796       49.21965634038062       62.53230932900365
C           63.59812993507988       48.23382341511444       63.03518399173584
C           63.97383346232257       47.91306170913040       61.58028593046510
C           64.85239638615103       46.66173776695493       61.57211912513543
C           64.68878179548879       49.10553165387554       60.93746951804700
C           65.21391611620427       48.90784462157441       59.50762053636804
C           65.99544385714920       50.15620039385403       59.09902514178411
C           64.05213422578166       48.62824270939280       58.54800807322749
C           64.38842268457195       48.57446522118866       57.05179742165015
C           63.08328013743523       48.44903707215148       56.26625713603283
C           65.34190417190926       47.41934062949272       56.73825037422959
C           65.89702893977186       47.39310166209904       55.30774354135455
C           66.67893247348361       46.09265053491045       55.11902551753013
C           66.79210632373420       48.61142313755624       55.00371355242858
C           66.16294116169504       49.66926125280051       54.08781900159725
C           66.07019342222782       49.14191673179830       52.65486220257789
C           66.97741678538391       50.97422901719051       54.07630428103378
C           66.99666646428931       51.78621411971010       55.37599213650142
C           65.59740444056088       52.27698728066867       55.74380675283588
C           67.90864047905156       53.01761681154478       55.26234437906871
C           69.40717447184386       52.77974244207158       55.02151993893138
C           69.97042679883894       51.72753362521527       55.97354073690478
C           70.13789349061253       54.11707889169528       55.22255033728028
C           71.55397289178715       54.18508611895037       54.62822528950426
C           72.41627905447100       55.13993433790449       55.45415461154273
C           71.49687131199478       54.62765976179629       53.16020297031960
C           72.80369527078301       54.40687499429657       52.38694175279458
C           72.84326243487241       55.30338955748628       51.15012867214507
C           72.97618516664870       52.93471295732042       51.98883700407237
C           74.44474529174650       52.50718180511935       51.85827528845654
C           74.55075933832262       51.26377044358208       50.97793885532266
C           75.05188425720071       52.25779219458527       53.24459290274544
C           76.57877640751467       52.27532776716104       53.25850020272605
C           77.12745251928118       52.17741053458888       54.67743460488591
H           59.54794632064971       70.03419720266855       57.12888608198475
H           58.06468430710702       69.07616355199822       57.17378474669143
H           58.69873304184522       69.79477354936115       58.65453440775731
H           76.78731346200908       51.26313996829016       55.15925281353572
H           78.21491246750530       52.17484356478629       54.66934697653895
H           76.79048390011951       53.02148425770537       55.27591411315692
H           74.69784322379049       53.02826507319475       53.93286862138518
H           74.69508762360411       51.29632252752027       53.62295402079113
H           72.49670900431559       52.28920393696142       52.72788067746526
H           72.46620349072961       52.77098875434596       51.03757646564090
H           73.64038411448240       54.69662094717615       53.02799592871246
H           72.83558178551229       56.35281526509326       51.43743305154680
H           73.74371971725024       55.11746361477571       50.56926878817794
H           71.98116112094804       55.11613097191417       50.51494900225035
H           70.69687621584880       54.08638526156330       52.64995097565579
H           71.24187575038258       55.69002520496062       53.13360495954228
H           69.54151163813630       54.92213521310041       54.78540588787112
H           70.18916352512866       54.30069171804792       56.29825830811389
H           75.00347099558503       53.31714296264136       51.37678599630954
H           75.57910381197600       50.91905150894626       50.91060301628125
H           73.94507107748326       50.45860356845783       51.38788583998053