      -----------------------------------------------------------      
     |                   =====================                   |     
     |                           x T B                           |     
     |                   =====================                   |     
     |                         S. Grimme                         |     
     |          Mulliken Center for Theoretical Chemistry        |     
     |                    University of Bonn                     |     
      -----------------------------------------------------------      

   * xtb version 6.6.1 (8d0f1dd) compiled by 'stahn@M-Bot' on 2023-08-01

   xtb is free software: you can redistribute it and/or modify it under
   the terms of the GNU Lesser General Public License as published by
   the Free Software Foundation, either version 3 of the License, or
   (at your option) any later version.
   
   xtb is distributed in the hope that it will be useful,
   but WITHOUT ANY WARRANTY; without even the implied warranty of
   MERCHANTABILITY or FITNESS FOR A PARTICULAR PURPOSE.  See the
   GNU Lesser General Public License for more details.
   
   Cite this work as:
   * C. Bannwarth, E. Caldeweyher, S. Ehlert, A. Hansen, P. Pracht,
     J. Seibert, S. Spicher, S. Grimme, WIREs Comput. Mol. Sci., 2020, 11,
     e01493. DOI: 10.1002/wcms.1493
   
   for GFN2-xTB:
   * C. Bannwarth, S. Ehlert and S. Grimme., J. Chem. Theory Comput., 2019,
     15, 1652-1671. DOI: 10.1021/acs.jctc.8b01176
   for GFN1-xTB:
   * S. Grimme, C. Bannwarth, P. Shushkov, J. Chem. Theory Comput., 2017,
     13, 1989-2009. DOI: 10.1021/acs.jctc.7b00118
   for GFN0-xTB:
   * P. Pracht, E. Caldeweyher, S. Ehlert, S. Grimme, ChemRxiv, 2019, preprint.
     DOI: 10.26434/chemrxiv.8326202.v1
   for GFN-FF:
   * S. Spicher and S. Grimme, Angew. Chem. Int. Ed., 2020, 59, 15665-15673.
     DOI: 10.1002/anie.202004239
   
   for ALPB and GBSA implicit solvation:
   * S. Ehlert, M. Stahn, S. Spicher, S. Grimme, J. Chem. Theory Comput.,
     2021, 17, 4250-4261. DOI: 10.1021/acs.jctc.1c00471
   
   for DFT-D4:
   * E. Caldeweyher, C. Bannwarth and S. Grimme, J. Chem. Phys., 2017,
     147, 034112. DOI: 10.1063/1.4993215
   * E. Caldeweyher, S. Ehlert, A. Hansen, H. Neugebauer, S. Spicher,
     C. Bannwarth and S. Grimme, J. Chem. Phys., 2019, 150, 154122.
     DOI: 10.1063/1.5090222
   * E. Caldeweyher, J.-M. Mewes, S. Ehlert and S. Grimme, Phys. Chem. Chem. Phys.
     2020, 22, 8499-8512. DOI: 10.1039/D0CP00502A
   
   for sTDA-xTB:
   * S. Grimme and C. Bannwarth, J. Chem. Phys., 2016, 145, 054103.
     DOI: 10.1063/1.4959605
   
   in the mass-spec context:
   * V. Asgeirsson, C. Bauer and S. Grimme, Chem. Sci., 2017, 8, 4879.
     DOI: 10.1039/c7sc00601b
   * J. Koopman and S. Grimme, ACS Omega 2019, 4, 12, 15120-15133.
     DOI: 10.1021/acsomega.9b02011
   
   for metadynamics refer to:
   * S. Grimme, J. Chem. Theory Comput., 2019, 155, 2847-2862
     DOI: 10.1021/acs.jctc.9b00143
   
   for SPH calculations refer to:
   * S. Spicher and S. Grimme, J. Chem. Theory Comput., 2021, 17, 1701-1714
     DOI: 10.1021/acs.jctc.0c01306
   
   with help from (in alphabetical order)
   P. Atkinson, C. Bannwarth, F. Bohle, G. Brandenburg, E. Caldeweyher
   M. Checinski, S. Dohm, S. Ehlert, S. Ehrlich, I. Gerasimov, C. Hölzer
   A. Katbashev, J. Koopman, C. Lavigne, S. Lehtola, F. März, M. Müller,
   F. Musil, H. Neugebauer, J. Pisarek, C. Plett, P. Pracht, F. Pultar,
   J. Seibert, P. Shushkov, S. Spicher, M. Stahn, M. Steiner, T. Strunk,
   J. Stückrath, T. Rose, and J. Unsleber
   
 * started run on 2024/06/17 at 15:18:46.053     

           -------------------------------------------------
          |                Calculation Setup                |
           -------------------------------------------------

          program call               : /home/abt-grimme/AK-bin/xtb input.xyz --input input.inp --opt --gbsa water
          hostname                   : boar038.thch.uni-bonn.de
          coordinate file            : input.xyz
          omp threads                :                     8

   ID    Z sym.   atoms
    1    6 C      1-120, 363-482, 725-844, 1087-1206, 1449-1568, 1811-1930,
                  2173-2292, 2535-2654, 2897-3016
    2    1 H      121-362, 483-724, 845-1086, 1207-1448, 1569-1810,
                  1931-2172, 2293-2534, 2655-2896, 3017-3258

molecular fragmentation (1/2 indicates fragments):
111111111111111111111111111111111111111111111111111111111111111111111111
111111111111111111111111111111111111111111111111111111111111111111111111
111111111111111111111111111111111111111111111111111111111111111111111111
111111111111111111111111111111111111111111111111111111111111111111111111
111111111111111111111111111111111111111111111111111111111111111111111111
112222222222222222222222222222222222222222222222222222222222222222222222
222222222222222222222222222222222222222222222222222222222222222222222222
222222222222222222222222222222222222222222222222222222222222222222222222
222222222222222222222222222222222222222222222222222222222222222222222222
222222222222222222222222222222222222222222222222222222222222222222222222
222222222222222222222222222222222222222222222222222222222222222222222222
222222222222222222222222222222222222222222222222222222222222222222222222
222222222222222222222222222222222222222222222222222222222222222222222222
222222222222222222222222222222222222222222222222222222222222222222222222
222222222222222222222222222222222222222222222222222222222222222222222222
222222222222222222222222222222222222222222222222222222222222222222222222
222222222222222222222222222222222222222222222222222222222222222222222222
222222222222222222222222222222222222222222222222222222222222222222222222
222222222222222222222222222222222222222222222222222222222222222222222222
222222222222222222222222222222222222222222222222222222222222222222222222
222222222222222222222222222222222222222222222222222222222222222222222222
222222222222222222222222222222222222222222222222222222222222222222222222
222222222222222222222222222222222222222222222222222222222222222222222222
222222222222222222222222222222222222222222222222222222222222222222222222
222222222222222222222222222222222222222222222222222222222222222222222222
222222222222222222222222222222222222222222222222222222222222222222222222
222222222222222222222222222222222222222222222222222222222222222222222222
222222222222222222222222222222222222222222222222222222222222222222222222
222222222222222222222222222222222222222222222222222222222222222222222222
222222222222222222222222222222222222222222222222222222222222222222222222
222222222222222222222222222222222222222222222222222222222222222222222222
222222222222222222222222222222222222222222222222222222222222222222222222
222222222222222222222222222222222222222222222222222222222222222222222222
222222222222222222222222222222222222222222222222222222222222222222222222
222222222222222222222222222222222222222222222222222222222222222222222222
222222222222222222222222222222222222222222222222222222222222222222222222
222222222222222222222222222222222222222222222222222222222222222222222222
222222222222222222222222222222222222222222222222222222222222222222222222
222222222222222222222222222222222222222222222222222222222222222222222222
222222222222222222222222222222222222222222222222222222222222222222222222
222222222222222222222222222222222222222222222222222222222222222222222222
222222222222222222222222222222222222222222222222222222222222222222222222
222222222222222222222222222222222222222222222222222222222222222222222222
222222222222222222222222222222222222222222222222222222222222222222222222
222222222222222222222222222222222222222222222222222222222222222222222222
222222222222222222
# atoms in fragment 1/2:   362  2896
 fragment masses (1/2) :     1685.21    13481.68
CMA distance (Bohr)    :   6.302
constraining FC (au)   :  0.0500

           -------------------------------------------------
          |                 G F N 2 - x T B                 |
           -------------------------------------------------

        Reference                      10.1021/acs.jctc.8b01176
      * Hamiltonian:
        H0-scaling (s, p, d)           1.850000    2.230000    2.230000
        zeta-weighting                 0.500000
      * Dispersion:
        s8                             2.700000
        a1                             0.520000
        a2                             5.000000
        s9                             5.000000
      * Repulsion:
        kExp                           1.500000    1.000000
        rExp                           1.000000
      * Coulomb:
        alpha                          2.000000
        third order                    shell-resolved
        anisotropic                    true
        a3                             3.000000
        a5                             4.000000
        cn-shift                       1.200000
        cn-exp                         4.000000
        max-rad                        5.000000

      * Solvation model:               GBSA
        Solvent                        water
        Parameter file                 internal GFN2-xTB/GBSA
        Dielectric constant                8.0200E+01
        Reference state                gsolv [1 M gas/solution]
        Free energy shift                  1.8574E-03 Eh       1.1656E+00 kcal/mol
        Temperature                        2.9815E+02 K
        Density                            1.0000E+00 kg/L
        Solvent mass                       1.8000E+01 g/mol
        Interaction kernel             Still
        Born radius scaling (c1)           1.5524E+00
        Born radii integrator          GBOBC
        Born offset                        2.4628E-02 a0       4.6540E-02 AA
        H-bond correction              true
        Ion screening                  false
        Surface tension                    1.0000E-05 Eh       1.5569E+01 dyn/cm
        Grid points                               230 per atom
q/qsh data taken from xtbrestart
CAMM data taken from xtbrestart

          ...................................................
          :                      SETUP                      :
          :.................................................:
          :  # basis functions                6498          :
          :  # atomic orbitals                6498          :
          :  # shells                         4338          :
          :  # electrons                      6498          :
          :  max. iterations                   250          :
          :  Hamiltonian                  GFN2-xTB          :
          :  restarted?                       true          :
          :  GBSA solvation                   true          :
          :  PC potential                    false          :
          :  electronic temp.          300.0000000     K    :
          :  accuracy                    1.0000000          :
          :  -> integral cutoff          0.2500000E+02      :
          :  -> integral neglect         0.1000000E-07      :
          :  -> SCF convergence          0.1000000E-05 Eh   :
          :  -> wf. convergence          0.1000000E-03 e    :
          :  Broyden damping             0.4000000          :
          ...................................................

 iter      E             dE          RMSdq      gap      omega  full diag
   1  -3472.5144199 -0.347251E+04  0.102E-04   10.22       0.0  T
   2  -3472.5144200 -0.919044E-08  0.834E-05   10.22      21.0  T
   3  -3472.5144200 -0.159166E-07  0.459E-05   10.22      38.1  T

   *** convergence criteria satisfied after 3 iterations ***

         #    Occupation            Energy/Eh            Energy/eV
      -------------------------------------------------------------
         1        2.0000           -0.6164912             -16.7756
       ...           ...                  ...                  ...
      3243        2.0000           -0.3786433             -10.3034
      3244        2.0000           -0.3782499             -10.2927
      3245        2.0000           -0.3777978             -10.2804
      3246        2.0000           -0.3769455             -10.2572
      3247        2.0000           -0.3761077             -10.2344
      3248        2.0000           -0.3759440             -10.2300
      3249        2.0000           -0.3731061             -10.1527 (HOMO)
      3250                          0.0025055               0.0682 (LUMO)
      3251                          0.0066285               0.1804
      3252                          0.0101098               0.2751
      3253                          0.0115631               0.3146
      3254                          0.0139494               0.3796
       ...                                ...                  ...
      6498                          0.4058830              11.0446
      -------------------------------------------------------------
                  HL-Gap            0.3756116 Eh           10.2209 eV
             Fermi-level           -0.1853003 Eh           -5.0423 eV

 SCC (total)                   0 d,  0 h,  6 min, 56.700 sec
 SCC setup                      ...        0 min,  1.667 sec (  0.400%)
 Dispersion                     ...        0 min,  3.550 sec (  0.852%)
 classical contributions        ...        0 min,  0.126 sec (  0.030%)
 integral evaluation            ...        0 min,  5.889 sec (  1.413%)
 iterations                     ...        3 min,  2.630 sec ( 43.828%)
 molecular gradient             ...        3 min, 34.306 sec ( 51.429%)
 printout                       ...        0 min,  8.531 sec (  2.047%)

         :::::::::::::::::::::::::::::::::::::::::::::::::::::
         ::                     SUMMARY                     ::
         :::::::::::::::::::::::::::::::::::::::::::::::::::::
         :: total energy           -3426.930166941585 Eh    ::
         :: total w/o Gsasa/hb     -3426.839556089020 Eh    ::
         :: gradient norm              0.634387564888 Eh/a0 ::
         :: HOMO-LUMO gap             10.220911193675 eV    ::
         ::.................................................::
         :: SCC energy             -3472.514419974447 Eh    ::
         :: -> isotropic ES            0.287549983169 Eh    ::
         :: -> anisotropic ES          1.275066586349 Eh    ::
         :: -> anisotropic XC          2.126222276391 Eh    ::
         :: -> dispersion             -4.429143583250 Eh    ::
         :: -> Gsolv                  -0.035951237503 Eh    ::
         ::    -> Gelec                0.054659615063 Eh    ::
         ::    -> Gsasa               -0.088817124114 Eh    ::
         ::    -> Ghb                 -0.003651171578 Eh    ::
         ::    -> Gshift               0.001857443127 Eh    ::
         :: repulsion energy          44.819018961672 Eh    ::
         :: add. restraining           0.000000000000 Eh    ::
         :: total charge              -0.000000000008 e     ::
         :::::::::::::::::::::::::::::::::::::::::::::::::::::

      ----------------------------------------------------------- 
     |              Fast Inertial Relaxation Engine              |
      ----------------------------------------------------------- 

          ...................................................
          :                      SETUP                      :
          :.................................................:
          :   energy convergence        0.5000000E-05 Eh    :
          :   grad. convergence         0.1000000E-02 Eh/a0 :
          :   optimization log               true           :
          :   writing optlog all                1     steps :
          :   Hessian reset                    20     steps :
          :   time step scaling                 5     steps :
          :   maximium step len.        1.0000000     a0    :
          :   initial time step         0.2500000     fs    :
          :   maximum time step         1.2500000     fs    :
          :   power reset thr           0.0000000     au    :
          :   alpha parameter           0.1000000           :
          :   BFGS update                   false           :
          :   preconditioning               false           :
          ...................................................

........................................................................
.............................. CYCLE    1 ..............................
........................................................................

 iter      E             dE          RMSdq      gap      omega  full diag
   1  -3472.7494807 -0.347275E+04  0.743E-03   10.26       0.0  T
   2  -3472.7495248 -0.441173E-04  0.388E-03   10.26       1.0  T
   3  -3472.7495252 -0.430176E-06  0.181E-03   10.26       1.0  T
   4  -3472.7495254 -0.156776E-06  0.224E-04   10.26       7.8  T
   5  -3472.7495254 -0.394020E-07  0.144E-04   10.26      12.2  T
     SCC iter.                  ...        4 min, 52.070 sec
     gradient                   ...        3 min, 35.719 sec
 * total energy  : -3426.9760304 Eh     change    :  -0.4586348E-01 Eh
   gradient norm :     0.6003739 Eh/a0  converged?    E=F G=F D=F
   time step     :     0.2500000 fs     power     :   0.2366207E-05
   step length   :     0.0743489 a0     speed     :   0.7193653E-02

........................................................................
.............................. CYCLE    2 ..............................
........................................................................

 iter      E             dE          RMSdq      gap      omega  full diag
   1  -3473.0956180 -0.347310E+04  0.109E-02   10.32       0.0  T
   2  -3473.0957120 -0.939684E-04  0.568E-03   10.32       1.0  T
   3  -3473.0957130 -0.971640E-06  0.265E-03   10.32       1.0  T
   4  -3473.0957133 -0.364476E-06  0.340E-04   10.32       5.2  T
   5  -3473.0957134 -0.885470E-07  0.222E-04   10.32       7.9  T
     SCC iter.                  ...        4 min, 59.136 sec
     gradient                   ...        3 min, 32.709 sec
 * total energy  : -3427.0389994 Eh     change    :  -0.6296894E-01 Eh
   gradient norm :     0.5512016 Eh/a0  converged?    E=F G=F D=F
   time step     :     0.2500000 fs     power     :   0.3194917E-05
   step length   :     0.1094967 a0     speed     :   0.1059439E-01

........................................................................
.............................. CYCLE    3 ..............................
........................................................................

 iter      E             dE          RMSdq      gap      omega  full diag
   1  -3473.5436531 -0.347354E+04  0.139E-02   10.39       0.0  T
   2  -3473.5438054 -0.152328E-03  0.727E-03   10.39       1.0  T
   3  -3473.5438071 -0.166393E-05  0.336E-03   10.39       1.0  T
   4  -3473.5438077 -0.613967E-06  0.444E-04   10.39       3.9  T
   5  -3473.5438078 -0.146014E-06  0.290E-04   10.39       6.0  T
     SCC iter.                  ...        4 min, 57.980 sec
     gradient                   ...        3 min, 33.436 sec
 * total energy  : -3427.1124840 Eh     change    :  -0.7348460E-01 Eh
   gradient norm :     0.4899632 Eh/a0  converged?    E=F G=F D=F
   time step     :     0.2500000 fs     power     :   0.3656239E-05
   step length   :     0.1417158 a0     speed     :   0.1371177E-01

........................................................................
.............................. CYCLE    4 ..............................
........................................................................

 iter      E             dE          RMSdq      gap      omega  full diag
   1  -3474.0819435 -0.347408E+04  0.164E-02   10.47       0.0  T
   2  -3474.0821528 -0.209228E-03  0.859E-03   10.47       1.0  T
   3  -3474.0821552 -0.245594E-05  0.394E-03   10.47       1.0  T
   4  -3474.0821561 -0.873174E-06  0.536E-04   10.47       3.3  T
   5  -3474.0821563 -0.201103E-06  0.349E-04   10.47       5.0  T
     SCC iter.                  ...        4 min, 58.435 sec
     gradient                   ...        3 min, 33.564 sec
 * total energy  : -3427.1891009 Eh     change    :  -0.7661691E-01 Eh
   gradient norm :     0.4212216 Eh/a0  converged?    E=F G=F D=F
   time step     :     0.2500000 fs     power     :   0.3721591E-05
   step length   :     0.1701721 a0     speed     :   0.1646507E-01

........................................................................
.............................. CYCLE    5 ..............................
........................................................................

 iter      E             dE          RMSdq      gap      omega  full diag
   1  -3474.6964899 -0.347470E+04  0.184E-02   10.57       0.0  T
   2  -3474.6967439 -0.253992E-03  0.959E-03   10.57       1.0  T
   3  -3474.6967472 -0.329255E-05  0.433E-03   10.57       1.0  T
   4  -3474.6967483 -0.110582E-05  0.613E-04   10.57       2.9  T
   5  -3474.6967485 -0.242648E-06  0.395E-04   10.57       4.4  T
   6  -3474.6967486 -0.127445E-06  0.169E-04   10.57      10.4  T
     SCC iter.                  ...        5 min, 57.396 sec
     gradient                   ...        3 min, 32.587 sec
 * total energy  : -3427.2617358 Eh     change    :  -0.7263496E-01 Eh
   gradient norm :     0.3518655 Eh/a0  converged?    E=F G=F D=F
   time step     :     0.2500000 fs     power     :   0.3422448E-05
   step length   :     0.1941385 a0     speed     :   0.1878394E-01

........................................................................
.............................. CYCLE    6 ..............................
........................................................................

 iter      E             dE          RMSdq      gap      omega  full diag
   1  -3475.4444898 -0.347544E+04  0.217E-02   10.65       0.0  T
   2  -3475.4448281 -0.338366E-03  0.114E-02   10.64       1.0  T
   3  -3475.4448331 -0.499733E-05  0.499E-03   10.64       1.0  T
   4  -3475.4448346 -0.149733E-05  0.736E-04   10.64       2.4  T
   5  -3475.4448349 -0.306387E-06  0.462E-04   10.64       3.8  T
   6  -3475.4448351 -0.139864E-06  0.177E-04   10.64       9.9  T
     SCC iter.                  ...        5 min, 57.926 sec
     gradient                   ...        3 min, 33.265 sec
 * total energy  : -3427.3305633 Eh     change    :  -0.6882743E-01 Eh
   gradient norm :     0.2856814 Eh/a0  converged?    E=F G=F D=F
   time step     :     0.2750000 fs     power     :   0.2769123E-05
   step length   :     0.2363992 a0     speed     :   0.2079354E-01

........................................................................
.............................. CYCLE    7 ..............................
........................................................................

 iter      E             dE          RMSdq      gap      omega  full diag
   1  -3476.3199944 -0.347632E+04  0.247E-02   10.64       0.0  T
   2  -3476.3203891 -0.394692E-03  0.130E-02   10.64       1.0  T
   3  -3476.3203964 -0.732628E-05  0.541E-03   10.64       1.0  T
   4  -3476.3203983 -0.193738E-05  0.867E-04   10.64       2.0  T
   5  -3476.3203987 -0.342159E-06  0.533E-04   10.64       3.3  T
   6  -3476.3203988 -0.149827E-06  0.179E-04   10.64       9.8  T
     SCC iter.                  ...        5 min, 58.721 sec
     gradient                   ...        3 min, 34.585 sec
 * total energy  : -3427.3875070 Eh     change    :  -0.5694373E-01 Eh
   gradient norm :     0.2428323 Eh/a0  converged?    E=F G=F D=F
   time step     :     0.3025000 fs     power     :   0.1863151E-05
   step length   :     0.2782626 a0     speed     :   0.2225075E-01

........................................................................
.............................. CYCLE    8 ..............................
........................................................................

 iter      E             dE          RMSdq      gap      omega  full diag
   1  -3477.2858109 -0.347729E+04  0.271E-02   10.64       0.0  T
   2  -3477.2861852 -0.374332E-03  0.144E-02   10.64       1.0  T
   3  -3477.2861952 -0.999486E-05  0.531E-03   10.64       1.0  T
   4  -3477.2861974 -0.217371E-05  0.974E-04   10.64       1.8  T
   5  -3477.2861977 -0.299377E-06  0.579E-04   10.64       3.0  T
   6  -3477.2861978 -0.129033E-06  0.156E-04   10.64      11.2  T
     SCC iter.                  ...        5 min, 56.282 sec
     gradient                   ...        3 min, 34.349 sec
 * total energy  : -3427.4272652 Eh     change    :  -0.3975820E-01 Eh
   gradient norm :     0.2377162 Eh/a0  converged?    E=F G=F D=F
   time step     :     0.3327500 fs     power     :   0.9483038E-06
   step length   :     0.3137440 a0     speed     :   0.2280722E-01

........................................................................
.............................. CYCLE    9 ..............................
........................................................................

 iter      E             dE          RMSdq      gap      omega  full diag
   1  -3478.2651730 -0.347827E+04  0.293E-02   10.64       0.0  T
   2  -3478.2654365 -0.263504E-03  0.160E-02   10.64       1.0  T
   3  -3478.2654489 -0.123391E-04  0.443E-03   10.64       1.0  T
   4  -3478.2654508 -0.195507E-05  0.103E-03   10.64       1.7  T
   5  -3478.2654510 -0.176931E-06  0.576E-04   10.64       3.0  T
   6  -3478.2654511 -0.854589E-07  0.106E-04   10.64      16.6  T
     SCC iter.                  ...        6 min,  5.001 sec
     gradient                   ...        3 min, 32.587 sec
 * total energy  : -3427.4505070 Eh     change    :  -0.2324179E-01 Eh
   gradient norm :     0.2505787 Eh/a0  converged?    E=F G=F D=F
   time step     :     0.3660250 fs     power     :   0.2777963E-06
   step length   :     0.3372173 a0     speed     :   0.2228508E-01

........................................................................
.............................. CYCLE   10 ..............................
........................................................................

 iter      E             dE          RMSdq      gap      omega  full diag
   1  -3479.1638883 -0.347916E+04  0.321E-02   10.64       0.0  T
   2  -3479.1640116 -0.123300E-03  0.183E-02   10.64       1.0  T
   3  -3479.1640253 -0.136569E-04  0.279E-03   10.64       1.0  T
   4  -3479.1640267 -0.143991E-05  0.104E-03   10.64       1.7  T
   5  -3479.1640268 -0.509744E-07  0.506E-04   10.64       3.5  T
   6  -3479.1640268 -0.576592E-07  0.502E-05   10.64      34.9  T
     SCC iter.                  ...        5 min, 53.873 sec
     gradient                   ...        3 min, 33.772 sec
 * total energy  : -3427.4616523 Eh     change    :  -0.1114527E-01 Eh
   gradient norm :     0.2482191 Eh/a0  converged?    E=F G=F D=F
   time step     :     0.4026275 fs     power     :  -0.1278176E-06
   step length   :     0.3497828 a0     speed     :   0.2101407E-01

........................................................................
.............................. CYCLE   11 ..............................
........................................................................
 * reset velocities

 iter      E             dE          RMSdq      gap      omega  full diag
   1  -3479.1467936 -0.347915E+04  0.120E-03   10.64       0.0  T
   2  -3479.1467944 -0.762553E-06  0.684E-04   10.64       2.6  T
   3  -3479.1467944 -0.479031E-08  0.262E-04   10.64       6.7  T
     SCC iter.                  ...        3 min,  8.454 sec
     gradient                   ...        3 min, 34.002 sec
 * total energy  : -3427.4639598 Eh     change    :  -0.2307583E-02 Eh
   gradient norm :     0.2410991 Eh/a0  converged?    E=F G=F D=F
   time step     :     0.2013138 fs     power     :   0.1498866E-06
   step length   :     0.0094317 a0     speed     :   0.1133270E-02

........................................................................
.............................. CYCLE   12 ..............................
........................................................................

 iter      E             dE          RMSdq      gap      omega  full diag
   1  -3479.1127639 -0.347911E+04  0.236E-03   10.64       0.0  T
   2  -3479.1127669 -0.294971E-05  0.135E-03   10.64       1.3  T
   3  -3479.1127669 -0.214218E-07  0.515E-04   10.64       3.4  T
   4  -3479.1127669 -0.119499E-07  0.509E-05   10.64      34.4  T
     SCC iter.                  ...        3 min, 59.251 sec
     gradient                   ...        3 min, 33.278 sec
 * total energy  : -3427.4683129 Eh     change    :  -0.4353074E-02 Eh
   gradient norm :     0.2271656 Eh/a0  converged?    E=F G=F D=F
   time step     :     0.2013138 fs     power     :   0.2783717E-06
   step length   :     0.0185929 a0     speed     :   0.2234025E-02

........................................................................
.............................. CYCLE   13 ..............................
........................................................................

 iter      E             dE          RMSdq      gap      omega  full diag
   1  -3479.0628006 -0.347906E+04  0.344E-03   10.64       0.0  T
   2  -3479.0628070 -0.638267E-05  0.197E-03   10.64       1.0  T
   3  -3479.0628070 -0.495447E-07  0.759E-04   10.64       2.3  T
   4  -3479.0628070 -0.287087E-07  0.798E-05   10.64      22.0  T
     SCC iter.                  ...        4 min,  5.290 sec
     gradient                   ...        3 min, 35.164 sec
 * total energy  : -3427.4742193 Eh     change    :  -0.5906344E-02 Eh
   gradient norm :     0.2068113 Eh/a0  converged?    E=F G=F D=F
   time step     :     0.2013138 fs     power     :   0.3709712E-06
   step length   :     0.0272240 a0     speed     :   0.3271092E-02

........................................................................
.............................. CYCLE   14 ..............................
........................................................................

 iter      E             dE          RMSdq      gap      omega  full diag
   1  -3478.9981980 -0.347900E+04  0.443E-03   10.64       0.0  T
   2  -3478.9982086 -0.106109E-04  0.253E-03   10.64       1.0  T
   3  -3478.9982087 -0.852779E-07  0.979E-04   10.64       1.8  T
   4  -3478.9982087 -0.498085E-07  0.105E-04   10.64      16.6  T
     SCC iter.                  ...        3 min, 59.475 sec
     gradient                   ...        3 min, 34.300 sec
 * total energy  : -3427.4810142 Eh     change    :  -0.6794895E-02 Eh
   gradient norm :     0.1808122 Eh/a0  converged?    E=F G=F D=F
   time step     :     0.2013138 fs     power     :   0.4175591E-06
   step length   :     0.0350795 a0     speed     :   0.4214970E-02

........................................................................
.............................. CYCLE   15 ..............................
........................................................................

 iter      E             dE          RMSdq      gap      omega  full diag
   1  -3478.9206704 -0.347892E+04  0.527E-03   10.64       0.0  T
   2  -3478.9206856 -0.151713E-04  0.302E-03   10.64       1.0  T
   3  -3478.9206857 -0.124337E-06  0.117E-03   10.64       1.5  T
   4  -3478.9206858 -0.730593E-07  0.128E-04   10.64      13.7  T
   5  -3478.9206858 -0.191390E-07  0.910E-05   10.64      19.2  T
     SCC iter.                  ...        4 min, 59.751 sec
     gradient                   ...        3 min, 35.191 sec
 * total energy  : -3427.4879407 Eh     change    :  -0.6926560E-02 Eh
   gradient norm :     0.1501304 Eh/a0  converged?    E=F G=F D=F
   time step     :     0.2013138 fs     power     :   0.4134426E-06
   step length   :     0.0419401 a0     speed     :   0.5039312E-02

........................................................................
.............................. CYCLE   16 ..............................
........................................................................

 iter      E             dE          RMSdq      gap      omega  full diag
   1  -3478.8323627 -0.347883E+04  0.595E-03   10.64       0.0  T
   2  -3478.8323822 -0.195048E-04  0.340E-03   10.64       1.0  T
   3  -3478.8323823 -0.144654E-06  0.133E-03   10.64       1.3  T
   4  -3478.8323824 -0.827963E-07  0.136E-04   10.64      12.9  T
   5  -3478.8323824 -0.220189E-07  0.940E-05   10.64      18.6  T
     SCC iter.                  ...        4 min, 59.740 sec
     gradient                   ...        3 min, 33.121 sec
 * total energy  : -3427.4942410 Eh     change    :  -0.6300318E-02 Eh
   gradient norm :     0.1161856 Eh/a0  converged?    E=F G=F D=F
   time step     :     0.2013138 fs     power     :   0.3602375E-06
   step length   :     0.0476147 a0     speed     :   0.5721142E-02

........................................................................
.............................. CYCLE   17 ..............................
........................................................................

 iter      E             dE          RMSdq      gap      omega  full diag
   1  -3478.7253142 -0.347873E+04  0.714E-03   10.64       0.0  T
   2  -3478.7253425 -0.283603E-04  0.408E-03   10.64       1.0  T
   3  -3478.7253427 -0.204440E-06  0.160E-03   10.64       1.1  T
   4  -3478.7253428 -0.116256E-06  0.161E-04   10.65      10.9  T
   5  -3478.7253429 -0.313371E-07  0.110E-04   10.65      15.9  T
     SCC iter.                  ...        4 min, 55.475 sec
     gradient                   ...        3 min, 34.063 sec
 * total energy  : -3427.4996814 Eh     change    :  -0.5440416E-02 Eh
   gradient norm :     0.0776042 Eh/a0  converged?    E=F G=F D=F
   time step     :     0.2214451 fs     power     :   0.2538377E-06
   step length   :     0.0576134 a0     speed     :   0.6293217E-02

........................................................................
.............................. CYCLE   18 ..............................
........................................................................

 iter      E             dE          RMSdq      gap      omega  full diag
   1  -3478.6008650 -0.347860E+04  0.818E-03   10.65       0.0  T
   2  -3478.6009029 -0.378559E-04  0.468E-03   10.65       1.0  T
   3  -3478.6009032 -0.271434E-06  0.185E-03   10.65       1.0  T
   4  -3478.6009033 -0.153365E-06  0.185E-04   10.65       9.5  T
   5  -3478.6009033 -0.416949E-07  0.125E-04   10.65      14.0  T
     SCC iter.                  ...        5 min,  1.781 sec
     gradient                   ...        3 min, 32.860 sec
 * total energy  : -3427.5031153 Eh     change    :  -0.3433865E-02 Eh
   gradient norm :     0.0441131 Eh/a0  converged?    E=F G=F D=F
   time step     :     0.2435896 fs     power     :   0.1002740E-06
   step length   :     0.0672210 a0     speed     :   0.6675152E-02

........................................................................
.............................. CYCLE   19 ..............................
........................................................................

 iter      E             dE          RMSdq      gap      omega  full diag
   1  -3478.4684699 -0.347847E+04  0.854E-03   10.65       0.0  T
   2  -3478.4685122 -0.422130E-04  0.490E-03   10.65       1.0  T
   3  -3478.4685125 -0.308073E-06  0.196E-03   10.65       1.0  T
   4  -3478.4685126 -0.169990E-06  0.197E-04   10.65       8.9  T
   5  -3478.4685127 -0.471173E-07  0.130E-04   10.65      13.5  T
     SCC iter.                  ...        5 min,  0.122 sec
     gradient                   ...        3 min, 34.013 sec
 * total energy  : -3427.5036347 Eh     change    :  -0.5194039E-03 Eh
   gradient norm :     0.0526428 Eh/a0  converged?    E=F G=F D=F
   time step     :     0.2679486 fs     power     :  -0.6169219E-07
   step length   :     0.0734758 a0     speed     :   0.6632972E-02

........................................................................
.............................. CYCLE   20 ..............................
........................................................................
 * reset velocities

 iter      E             dE          RMSdq      gap      omega  full diag
   1  -3478.4696332 -0.347847E+04  0.127E-04   10.65       0.0  T
   2  -3478.4696332 -0.728596E-08  0.841E-05   10.65      20.8  T
   3  -3478.4696332 -0.509772E-08  0.392E-05   10.65      44.7  T
     SCC iter.                  ...        3 min,  1.269 sec
     gradient                   ...        3 min, 34.283 sec
 * total energy  : -3427.5036812 Eh     change    :  -0.4646701E-04 Eh
   gradient norm :     0.0522351 Eh/a0  converged?    E=F G=F D=T
   time step     :     0.1339743 fs     power     :   0.4583292E-08
   step length   :     0.0008859 a0     speed     :   0.1599505E-03
 * RMSD in coord.:     0.0346736 a0     energy gain  -0.5735142E+00 Eh

........................................................................
.............................. CYCLE   21 ..............................
........................................................................

 iter      E             dE          RMSdq      gap      omega  full diag
   1  -3478.4755535 -0.347848E+04  0.559E-04   10.65       0.0  T
   2  -3478.4755536 -0.928412E-07  0.318E-04   10.65       5.5  T
   3  -3478.4755536 -0.647105E-09  0.889E-05   10.65      19.7  T
     SCC iter.                  ...        3 min,  2.124 sec
     gradient                   ...        3 min, 34.381 sec
 * total energy  : -3427.5039226 Eh     change    :  -0.2414543E-03 Eh
   gradient norm :     0.0502558 Eh/a0  converged?    E=F G=F D=F
   time step     :     0.2500000 fs     power     :   0.1256606E-07
   step length   :     0.0047140 a0     speed     :   0.4561088E-03

........................................................................
.............................. CYCLE   22 ..............................
........................................................................

 iter      E             dE          RMSdq      gap      omega  full diag
   1  -3478.4849924 -0.347848E+04  0.909E-04   10.65       0.0  T
   2  -3478.4849926 -0.237117E-06  0.519E-04   10.65       3.4  T
   3  -3478.4849926 -0.317368E-08  0.142E-04   10.65      12.3  T
     SCC iter.                  ...        3 min,  0.715 sec
     gradient                   ...        3 min, 33.927 sec
 * total energy  : -3427.5042953 Eh     change    :  -0.3727087E-03 Eh
   gradient norm :     0.0472383 Eh/a0  converged?    E=F G=F D=F
   time step     :     0.2500000 fs     power     :   0.1913690E-07
   step length   :     0.0076577 a0     speed     :   0.7409226E-03

........................................................................
.............................. CYCLE   23 ..............................
........................................................................

 iter      E             dE          RMSdq      gap      omega  full diag
   1  -3478.4974376 -0.347850E+04  0.122E-03   10.65       0.0  T
   2  -3478.4974380 -0.413526E-06  0.696E-04   10.65       2.5  T
   3  -3478.4974380 -0.773116E-08  0.188E-04   10.65       9.3  T
     SCC iter.                  ...        3 min,  1.686 sec
     gradient                   ...        3 min, 34.000 sec
 * total energy  : -3427.5047656 Eh     change    :  -0.4702705E-03 Eh
   gradient norm :     0.0435455 Eh/a0  converged?    E=F G=F D=F
   time step     :     0.2500000 fs     power     :   0.2382267E-07
   step length   :     0.0104181 a0     speed     :   0.1008006E-02

........................................................................
.............................. CYCLE   24 ..............................
........................................................................

 iter      E             dE          RMSdq      gap      omega  full diag
   1  -3478.5121708 -0.347851E+04  0.148E-03   10.65       0.0  T
   2  -3478.5121713 -0.580629E-06  0.845E-04   10.65       2.1  T
   3  -3478.5121714 -0.129930E-07  0.222E-04   10.65       7.9  T
     SCC iter.                  ...        3 min,  5.654 sec
     gradient                   ...        3 min, 35.406 sec
 * total energy  : -3427.5052959 Eh     change    :  -0.5303117E-03 Eh
   gradient norm :     0.0397050 Eh/a0  converged?    E=F G=F D=F
   time step     :     0.2500000 fs     power     :   0.2651978E-07
   step length   :     0.0129421 a0     speed     :   0.1252216E-02

........................................................................
.............................. CYCLE   25 ..............................
........................................................................

 iter      E             dE          RMSdq      gap      omega  full diag
   1  -3478.5282653 -0.347853E+04  0.167E-03   10.65       0.0  T
   2  -3478.5282660 -0.692808E-06  0.957E-04   10.65       1.8  T
   3  -3478.5282660 -0.182913E-07  0.242E-04   10.65       7.2  T
     SCC iter.                  ...        2 min, 56.820 sec
     gradient                   ...        3 min, 34.397 sec
 * total energy  : -3427.5058524 Eh     change    :  -0.5564735E-03 Eh
   gradient norm :     0.0363665 Eh/a0  converged?    E=F G=F D=F
   time step     :     0.2500000 fs     power     :   0.2754275E-07
   step length   :     0.0151921 a0     speed     :   0.1469915E-02

........................................................................
.............................. CYCLE   26 ..............................
........................................................................

 iter      E             dE          RMSdq      gap      omega  full diag
   1  -3478.5463515 -0.347855E+04  0.199E-03   10.65       0.0  T
   2  -3478.5463524 -0.873346E-06  0.114E-03   10.65       1.5  T
   3  -3478.5463524 -0.264240E-07  0.268E-04   10.65       6.5  T
   4  -3478.5463524 -0.107170E-07  0.577E-05   10.65      30.4  T
     SCC iter.                  ...        3 min, 56.833 sec
     gradient                   ...        3 min, 33.249 sec
 * total energy  : -3427.5064719 Eh     change    :  -0.6194785E-03 Eh
   gradient norm :     0.0339820 Eh/a0  converged?    E=F G=F D=F
   time step     :     0.2750000 fs     power     :   0.2750695E-07
   step length   :     0.0190874 a0     speed     :   0.1678920E-02

........................................................................
.............................. CYCLE   27 ..............................
........................................................................

 iter      E             dE          RMSdq      gap      omega  full diag
   1  -3478.5649364 -0.347856E+04  0.225E-03   10.65       0.0  T
   2  -3478.5649373 -0.928181E-06  0.129E-03   10.65       1.4  T
   3  -3478.5649373 -0.323666E-07  0.271E-04   10.65       6.5  T
   4  -3478.5649373 -0.133273E-07  0.633E-05   10.65      27.7  T
     SCC iter.                  ...        3 min, 58.875 sec
     gradient                   ...        3 min, 34.109 sec
 * total energy  : -3427.5071504 Eh     change    :  -0.6785433E-03 Eh
   gradient norm :     0.0332962 Eh/a0  converged?    E=F G=F D=F
   time step     :     0.3025000 fs     power     :   0.2728585E-07
   step length   :     0.0234282 a0     speed     :   0.1873389E-02

........................................................................
.............................. CYCLE   28 ..............................
........................................................................

 iter      E             dE          RMSdq      gap      omega  full diag
   1  -3478.5816476 -0.347858E+04  0.242E-03   10.65       0.0  T
   2  -3478.5816483 -0.749760E-06  0.139E-03   10.65       1.3  T
   3  -3478.5816484 -0.390014E-07  0.235E-04   10.65       7.5  T
   4  -3478.5816484 -0.147102E-07  0.678E-05   10.65      25.9  T
     SCC iter.                  ...        3 min, 57.409 sec
     gradient                   ...        3 min, 33.984 sec
 * total energy  : -3427.5079126 Eh     change    :  -0.7622130E-03 Eh
   gradient norm :     0.0341582 Eh/a0  converged?    E=F G=F D=F
   time step     :     0.3327500 fs     power     :   0.2821884E-07
   step length   :     0.0282471 a0     speed     :   0.2053389E-02

........................................................................
.............................. CYCLE   29 ..............................
........................................................................

 iter      E             dE          RMSdq      gap      omega  full diag
   1  -3478.5935880 -0.347859E+04  0.251E-03   10.65       0.0  T
   2  -3478.5935884 -0.411349E-06  0.145E-03   10.65       1.2  T
   3  -3478.5935885 -0.427494E-07  0.168E-04   10.65      10.4  T
   4  -3478.5935885 -0.153113E-07  0.688E-05   10.65      25.5  T
     SCC iter.                  ...        4 min,  0.128 sec
     gradient                   ...        3 min, 34.632 sec
 * total energy  : -3427.5088200 Eh     change    :  -0.9073185E-03 Eh
   gradient norm :     0.0352155 Eh/a0  converged?    E=F G=F D=F
   time step     :     0.3660250 fs     power     :   0.3125037E-07
   step length   :     0.0337818 a0     speed     :   0.2232478E-02

........................................................................
.............................. CYCLE   30 ..............................
........................................................................

 iter      E             dE          RMSdq      gap      omega  full diag
   1  -3478.5979828 -0.347860E+04  0.261E-03   10.65       0.0  T
   2  -3478.5979830 -0.197098E-06  0.153E-03   10.65       1.1  T
   3  -3478.5979830 -0.426166E-07  0.125E-04   10.65      14.0  T
   4  -3478.5979830 -0.170444E-07  0.667E-05   10.65      26.3  T
     SCC iter.                  ...        3 min, 58.229 sec
     gradient                   ...        3 min, 33.274 sec
 * total energy  : -3427.5099505 Eh     change    :  -0.1130524E-02 Eh
   gradient norm :     0.0347096 Eh/a0  converged?    E=F G=F D=F
   time step     :     0.4026275 fs     power     :   0.3590792E-07
   step length   :     0.0405244 a0     speed     :   0.2434605E-02

........................................................................
.............................. CYCLE   31 ..............................
........................................................................

 iter      E             dE          RMSdq      gap      omega  full diag
   1  -3478.5930486 -0.347859E+04  0.288E-03   10.65       0.0  T
   2  -3478.5930491 -0.512865E-06  0.170E-03   10.65       1.0  T
   3  -3478.5930491 -0.414066E-07  0.155E-04   10.65      11.3  T
   4  -3478.5930491 -0.199188E-07  0.617E-05   10.65      28.4  T
     SCC iter.                  ...        3 min, 59.849 sec
     gradient                   ...        3 min, 34.653 sec
 * total energy  : -3427.5113436 Eh     change    :  -0.1393150E-02 Eh
   gradient norm :     0.0315465 Eh/a0  converged?    E=F G=F D=F
   time step     :     0.4428903 fs     power     :   0.3993801E-07
   step length   :     0.0490283 a0     speed     :   0.2677725E-02

........................................................................
.............................. CYCLE   32 ..............................
........................................................................

 iter      E             dE          RMSdq      gap      omega  full diag
   1  -3478.5794851 -0.347858E+04  0.338E-03   10.65       0.0  T
   2  -3478.5794866 -0.152907E-05  0.201E-03   10.65       1.0  T
   3  -3478.5794866 -0.484597E-07  0.281E-04   10.65       6.2  T
   4  -3478.5794867 -0.229406E-07  0.646E-05   10.65      27.1  T
     SCC iter.                  ...        3 min, 54.718 sec
     gradient                   ...        3 min, 34.205 sec
 * total energy  : -3427.5129406 Eh     change    :  -0.1596956E-02 Eh
   gradient norm :     0.0266027 Eh/a0  converged?    E=F G=F D=F
   time step     :     0.4871793 fs     power     :   0.4042245E-07
   step length   :     0.0595965 a0     speed     :   0.2959015E-02

........................................................................
.............................. CYCLE   33 ..............................
........................................................................

 iter      E             dE          RMSdq      gap      omega  full diag
   1  -3478.5629881 -0.347856E+04  0.393E-03   10.65       0.0  T
   2  -3478.5629906 -0.250124E-05  0.235E-03   10.65       1.0  T
   3  -3478.5629907 -0.595869E-07  0.371E-04   10.65       4.7  T
   4  -3478.5629907 -0.270370E-07  0.699E-05   10.65      25.1  T
     SCC iter.                  ...        3 min, 58.103 sec
     gradient                   ...        3 min, 33.860 sec
 * total energy  : -3427.5146011 Eh     change    :  -0.1660529E-02 Eh
   gradient norm :     0.0239324 Eh/a0  converged?    E=F G=F D=F
   time step     :     0.5358972 fs     power     :   0.3683386E-07
   step length   :     0.0720223 a0     speed     :   0.3250875E-02

........................................................................
.............................. CYCLE   34 ..............................
........................................................................

 iter      E             dE          RMSdq      gap      omega  full diag
   1  -3478.5565362 -0.347856E+04  0.431E-03   10.65       0.0  T
   2  -3478.5565381 -0.185504E-05  0.258E-03   10.65       1.0  T
   3  -3478.5565381 -0.709174E-07  0.269E-04   10.65       6.5  T
   4  -3478.5565382 -0.282139E-07  0.721E-05   10.65      24.3  T
     SCC iter.                  ...        3 min, 55.024 sec
     gradient                   ...        3 min, 33.633 sec
 * total energy  : -3427.5162730 Eh     change    :  -0.1671913E-02 Eh
   gradient norm :     0.0256638 Eh/a0  converged?    E=F G=F D=F
   time step     :     0.5894869 fs     power     :   0.3369362E-07
   step length   :     0.0852945 a0     speed     :   0.3499949E-02

........................................................................
.............................. CYCLE   35 ..............................
........................................................................

 iter      E             dE          RMSdq      gap      omega  full diag
   1  -3478.5745030 -0.347857E+04  0.472E-03   10.65       0.0  T
   2  -3478.5745034 -0.388180E-06  0.279E-03   10.65       1.0  T
   3  -3478.5745035 -0.948771E-07  0.142E-04   10.65      12.3  T
   4  -3478.5745035 -0.197083E-07  0.770E-05   10.65      22.7  T
     SCC iter.                  ...        4 min,  4.157 sec
     gradient                   ...        3 min, 34.040 sec
 * total energy  : -3427.5181062 Eh     change    :  -0.1833191E-02 Eh
   gradient norm :     0.0257880 Eh/a0  converged?    E=F G=F D=F
   time step     :     0.6484356 fs     power     :   0.3459378E-07
   step length   :     0.0989757 a0     speed     :   0.3692129E-02

........................................................................
.............................. CYCLE   36 ..............................
........................................................................

 iter      E             dE          RMSdq      gap      omega  full diag
   1  -3478.6232893 -0.347862E+04  0.562E-03   10.65       0.0  T
   2  -3478.6232907 -0.132562E-05  0.325E-03   10.65       1.0  T
   3  -3478.6232908 -0.132495E-06  0.243E-04   10.65       7.2  T
   4  -3478.6232908 -0.190039E-07  0.924E-05   10.65      19.0  T
     SCC iter.                  ...        4 min,  2.637 sec
     gradient                   ...        3 min, 33.964 sec
 * total energy  : -3427.5201687 Eh     change    :  -0.2062482E-02 Eh
   gradient norm :     0.0212653 Eh/a0  converged?    E=F G=F D=F
   time step     :     0.7132792 fs     power     :   0.3463643E-07
   step length   :     0.1149001 a0     speed     :   0.3896510E-02

........................................................................
.............................. CYCLE   37 ..............................
........................................................................

 iter      E             dE          RMSdq      gap      omega  full diag
   1  -3478.6918077 -0.347869E+04  0.644E-03   10.65       0.0  T
   2  -3478.6918113 -0.354423E-05  0.368E-03   10.65       1.0  T
   3  -3478.6918114 -0.150440E-06  0.447E-04   10.65       3.9  T
   4  -3478.6918115 -0.317273E-07  0.103E-04   10.65      17.0  T
     SCC iter.                  ...        4 min,  1.177 sec
     gradient                   ...        3 min, 33.617 sec
 * total energy  : -3427.5222332 Eh     change    :  -0.2064499E-02 Eh
   gradient norm :     0.0208520 Eh/a0  converged?    E=F G=F D=F
   time step     :     0.7846071 fs     power     :   0.2978762E-07
   step length   :     0.1339234 a0     speed     :   0.4128757E-02

........................................................................
.............................. CYCLE   38 ..............................
........................................................................

 iter      E             dE          RMSdq      gap      omega  full diag
   1  -3478.7433484 -0.347874E+04  0.599E-03   10.65       0.0  T
   2  -3478.7433495 -0.109426E-05  0.346E-03   10.65       1.0  T
   3  -3478.7433497 -0.125715E-06  0.217E-04   10.65       8.1  T
   4  -3478.7433497 -0.180112E-07  0.828E-05   10.65      21.2  T
     SCC iter.                  ...        3 min, 58.780 sec
     gradient                   ...        3 min, 35.218 sec
 * total energy  : -3427.5243612 Eh     change    :  -0.2128002E-02 Eh
   gradient norm :     0.0238429 Eh/a0  converged?    E=F G=F D=F
   time step     :     0.8630678 fs     power     :   0.2942074E-07
   step length   :     0.1531855 a0     speed     :   0.4293267E-02

........................................................................
.............................. CYCLE   39 ..............................
........................................................................

 iter      E             dE          RMSdq      gap      omega  full diag
   1  -3478.7514085 -0.347875E+04  0.552E-03   10.65       0.0  T
   2  -3478.7514103 -0.173084E-05  0.329E-03   10.65       1.0  T
   3  -3478.7514104 -0.141977E-06  0.223E-04   10.65       7.9  T
   4  -3478.7514104 -0.214604E-07  0.978E-05   10.65      17.9  T
     SCC iter.                  ...        4 min,  3.940 sec
     gradient                   ...        3 min, 34.654 sec
 * total energy  : -3427.5268739 Eh     change    :  -0.2512680E-02 Eh
   gradient norm :     0.0201884 Eh/a0  converged?    E=F G=F D=F
   time step     :     0.9493746 fs     power     :   0.3175910E-07
   step length   :     0.1745755 a0     speed     :   0.4447959E-02

........................................................................
.............................. CYCLE   40 ..............................
........................................................................

 iter      E             dE          RMSdq      gap      omega  full diag
   1  -3478.7309601 -0.347873E+04  0.560E-03   10.65       0.0  T
   2  -3478.7309652 -0.513187E-05  0.336E-03   10.65       1.0  T
   3  -3478.7309654 -0.209167E-06  0.520E-04   10.65       3.4  T
   4  -3478.7309655 -0.507212E-07  0.141E-04   10.65      12.4  T
     SCC iter.                  ...        3 min, 58.324 sec
     gradient                   ...        3 min, 33.661 sec
 * total energy  : -3427.5295664 Eh     change    :  -0.2692561E-02 Eh
   gradient norm :     0.0225640 Eh/a0  converged?    E=F G=F D=F
   time step     :     1.0443120 fs     power     :   0.2984186E-07
   step length   :     0.2014455 a0     speed     :   0.4665975E-02

........................................................................
.............................. CYCLE   41 ..............................
........................................................................

 iter      E             dE          RMSdq      gap      omega  full diag
   1  -3478.7406236 -0.347874E+04  0.601E-03   10.65       0.0  T
   2  -3478.7406244 -0.769833E-06  0.353E-03   10.65       1.0  T
   3  -3478.7406246 -0.198859E-06  0.215E-04   10.65       8.1  T
   4  -3478.7406246 -0.304935E-07  0.126E-04   10.65      13.9  T
     SCC iter.                  ...        4 min,  0.367 sec
     gradient                   ...        3 min, 33.390 sec
 * total energy  : -3427.5327755 Eh     change    :  -0.3209049E-02 Eh
   gradient norm :     0.0209365 Eh/a0  converged?    E=F G=F D=F
   time step     :     1.1487432 fs     power     :   0.3461725E-07
   step length   :     0.2303419 a0     speed     :   0.4850261E-02

........................................................................
.............................. CYCLE   42 ..............................
........................................................................

 iter      E             dE          RMSdq      gap      omega  full diag
   1  -3478.7825201 -0.347878E+04  0.788E-03   10.66       0.0  T
   2  -3478.7825245 -0.439955E-05  0.457E-03   10.66       1.0  T
   3  -3478.7825247 -0.198357E-06  0.448E-04   10.66       3.9  T
   4  -3478.7825247 -0.395794E-07  0.115E-04   10.66      15.3  T
     SCC iter.                  ...        4 min,  2.727 sec
     gradient                   ...        3 min, 34.233 sec
 * total energy  : -3427.5363774 Eh     change    :  -0.3601946E-02 Eh
   gradient norm :     0.0211210 Eh/a0  converged?    E=F G=F D=F
   time step     :     1.2500000 fs     power     :   0.3324637E-07
   step length   :     0.2647805 a0     speed     :   0.5123788E-02
 * RMSD in coord.:     0.0297194 a0     energy gain  -0.3269625E-01 Eh

........................................................................
.............................. CYCLE   43 ..............................
........................................................................

 iter      E             dE          RMSdq      gap      omega  full diag
   1  -3478.7842870 -0.347878E+04  0.123E-03   10.66       0.0  T
   2  -3478.7842871 -0.294231E-07  0.717E-04   10.66       2.4  T
   3  -3478.7842871 -0.786031E-08  0.438E-05   10.66      40.0  T
     SCC iter.                  ...        3 min,  7.145 sec
     gradient                   ...        3 min, 33.822 sec
 * total energy  : -3427.5370700 Eh     change    :  -0.6925317E-03 Eh
   gradient norm :     0.0212832 Eh/a0  converged?    E=F G=F D=F
   time step     :     0.2500000 fs     power     :   0.3627435E-07
   step length   :     0.0516039 a0     speed     :   0.4992951E-02

........................................................................
.............................. CYCLE   44 ..............................
........................................................................

 iter      E             dE          RMSdq      gap      omega  full diag
   1  -3478.7800521 -0.347878E+04  0.116E-03   10.66       0.0  T
   2  -3478.7800523 -0.130148E-06  0.677E-04   10.66       2.6  T
   3  -3478.7800523 -0.877571E-08  0.769E-05   10.66      22.8  T
     SCC iter.                  ...        2 min, 58.671 sec
     gradient                   ...        3 min, 33.693 sec
 * total energy  : -3427.5378097 Eh     change    :  -0.7397233E-03 Eh
   gradient norm :     0.0198456 Eh/a0  converged?    E=F G=F D=F
   time step     :     0.2500000 fs     power     :   0.3863765E-07
   step length   :     0.0506794 a0     speed     :   0.4903506E-02

........................................................................
.............................. CYCLE   45 ..............................
........................................................................

 iter      E             dE          RMSdq      gap      omega  full diag
   1  -3478.7714410 -0.347877E+04  0.131E-03   10.66       0.0  T
   2  -3478.7714413 -0.354733E-06  0.761E-04   10.66       2.3  T
   3  -3478.7714413 -0.119621E-07  0.154E-04   10.66      11.3  T
     SCC iter.                  ...        3 min,  0.832 sec
     gradient                   ...        3 min, 34.253 sec
 * total energy  : -3427.5385675 Eh     change    :  -0.7578115E-03 Eh
   gradient norm :     0.0177504 Eh/a0  converged?    E=F G=F D=F
   time step     :     0.2500000 fs     power     :   0.3910127E-07
   step length   :     0.0503053 a0     speed     :   0.4867305E-02

........................................................................
.............................. CYCLE   46 ..............................
........................................................................

 iter      E             dE          RMSdq      gap      omega  full diag
   1  -3478.7611367 -0.347876E+04  0.146E-03   10.66       0.0  T
   2  -3478.7611371 -0.492485E-06  0.847E-04   10.66       2.1  T
   3  -3478.7611372 -0.146192E-07  0.188E-04   10.66       9.3  T
     SCC iter.                  ...        2 min, 53.792 sec
     gradient                   ...        3 min, 36.299 sec
 * total energy  : -3427.5393107 Eh     change    :  -0.7431694E-03 Eh
   gradient norm :     0.0165046 Eh/a0  converged?    E=F G=F D=F
   time step     :     0.2500000 fs     power     :   0.3796682E-07
   step length   :     0.0504000 a0     speed     :   0.4876466E-02

........................................................................
.............................. CYCLE   47 ..............................
........................................................................

 iter      E             dE          RMSdq      gap      omega  full diag
   1  -3478.7525957 -0.347875E+04  0.148E-03   10.66       0.0  T
   2  -3478.7525961 -0.395447E-06  0.864E-04   10.66       2.0  T
   3  -3478.7525961 -0.143782E-07  0.159E-04   10.66      11.0  T
     SCC iter.                  ...        2 min, 55.582 sec
     gradient                   ...        3 min, 34.556 sec
 * total energy  : -3427.5400286 Eh     change    :  -0.7179533E-03 Eh
   gradient norm :     0.0167181 Eh/a0  converged?    E=F G=F D=F
   time step     :     0.2500000 fs     power     :   0.3677636E-07
   step length   :     0.0506185 a0     speed     :   0.4897615E-02

........................................................................
.............................. CYCLE   48 ..............................
........................................................................

 iter      E             dE          RMSdq      gap      omega  full diag
   1  -3478.7483379 -0.347875E+04  0.156E-03   10.66       0.0  T
   2  -3478.7483381 -0.203860E-06  0.913E-04   10.66       1.9  T
   3  -3478.7483381 -0.137034E-07  0.944E-05   10.66      18.6  T
     SCC iter.                  ...        2 min, 56.925 sec
     gradient                   ...        3 min, 33.321 sec
 * total energy  : -3427.5408071 Eh     change    :  -0.7784739E-03 Eh
   gradient norm :     0.0173604 Eh/a0  converged?    E=F G=F D=F
   time step     :     0.2750000 fs     power     :   0.3658048E-07
   step length   :     0.0557767 a0     speed     :   0.4906089E-02

........................................................................
.............................. CYCLE   49 ..............................
........................................................................

 iter      E             dE          RMSdq      gap      omega  full diag
   1  -3478.7509919 -0.347875E+04  0.169E-03   10.66       0.0  T
   2  -3478.7509919 -0.542364E-07  0.987E-04   10.66       1.8  T
   3  -3478.7509919 -0.131763E-07  0.519E-05   10.66      33.8  T
     SCC iter.                  ...        2 min, 56.985 sec
     gradient                   ...        3 min, 35.397 sec
 * total energy  : -3427.5416717 Eh     change    :  -0.8646239E-03 Eh
   gradient norm :     0.0170004 Eh/a0  converged?    E=F G=F D=F
   time step     :     0.3025000 fs     power     :   0.3713706E-07
   step length   :     0.0613825 a0     speed     :   0.4908337E-02

........................................................................
.............................. CYCLE   50 ..............................
........................................................................

 iter      E             dE          RMSdq      gap      omega  full diag
   1  -3478.7615307 -0.347876E+04  0.196E-03   10.66       0.0  T
   2  -3478.7615309 -0.171179E-06  0.114E-03   10.66       1.5  T
   3  -3478.7615309 -0.157602E-07  0.817E-05   10.66      21.4  T
   4  -3478.7615309 -0.335467E-08  0.297E-05   10.66      59.1  T
     SCC iter.                  ...        3 min, 52.026 sec
     gradient                   ...        3 min, 35.025 sec
 * total energy  : -3427.5426270 Eh     change    :  -0.9553242E-03 Eh
   gradient norm :     0.0153063 Eh/a0  converged?    E=F G=F D=F
   time step     :     0.3327500 fs     power     :   0.3701681E-07
   step length   :     0.0678809 a0     speed     :   0.4934513E-02

........................................................................
.............................. CYCLE   51 ..............................
........................................................................

 iter      E             dE          RMSdq      gap      omega  full diag
   1  -3478.7781650 -0.347878E+04  0.226E-03   10.66       0.0  T
   2  -3478.7781654 -0.477767E-06  0.131E-03   10.66       1.3  T
   3  -3478.7781655 -0.210289E-07  0.156E-04   10.66      11.2  T
   4  -3478.7781655 -0.539103E-08  0.388E-05   10.66      45.1  T
     SCC iter.                  ...        3 min, 57.235 sec
     gradient                   ...        3 min, 34.865 sec
 * total energy  : -3427.5436453 Eh     change    :  -0.1018265E-02 Eh
   gradient norm :     0.0139409 Eh/a0  converged?    E=F G=F D=F
   time step     :     0.3660250 fs     power     :   0.3531871E-07
   step length   :     0.0757264 a0     speed     :   0.5004394E-02

........................................................................
.............................. CYCLE   52 ..............................
........................................................................

 iter      E             dE          RMSdq      gap      omega  full diag
   1  -3478.7945882 -0.347879E+04  0.233E-03   10.66       0.0  T
   2  -3478.7945887 -0.463756E-06  0.135E-03   10.66       1.3  T
   3  -3478.7945887 -0.236614E-07  0.151E-04   10.66      11.6  T
   4  -3478.7945887 -0.556702E-08  0.407E-05   10.66      43.0  T
     SCC iter.                  ...        3 min, 54.429 sec
     gradient                   ...        3 min, 34.637 sec
 * total energy  : -3427.5447084 Eh     change    :  -0.1063062E-02 Eh
   gradient norm :     0.0146516 Eh/a0  converged?    E=F G=F D=F
   time step     :     0.4026275 fs     power     :   0.3348863E-07
   step length   :     0.0847266 a0     speed     :   0.5090162E-02

........................................................................
.............................. CYCLE   53 ..............................
........................................................................

 iter      E             dE          RMSdq      gap      omega  full diag
   1  -3478.8026098 -0.347880E+04  0.216E-03   10.66       0.0  T
   2  -3478.8026100 -0.118112E-06  0.126E-03   10.66       1.4  T
   3  -3478.8026100 -0.223813E-07  0.708E-05   10.66      24.7  T
   4  -3478.8026100 -0.407408E-08  0.348E-05   10.66      50.4  T
     SCC iter.                  ...        3 min, 57.815 sec
     gradient                   ...        3 min, 34.014 sec
 * total energy  : -3427.5458549 Eh     change    :  -0.1146478E-02 Eh
   gradient norm :     0.0152187 Eh/a0  converged?    E=F G=F D=F
   time step     :     0.4428903 fs     power     :   0.3332499E-07
   step length   :     0.0940313 a0     speed     :   0.5135602E-02

........................................................................
.............................. CYCLE   54 ..............................
........................................................................

 iter      E             dE          RMSdq      gap      omega  full diag
   1  -3478.7979831 -0.347880E+04  0.213E-03   10.66       0.0  T
   2  -3478.7979833 -0.272533E-06  0.126E-03   10.66       1.4  T
   3  -3478.7979834 -0.263312E-07  0.952E-05   10.66      18.4  T
   4  -3478.7979834 -0.460159E-08  0.396E-05   10.66      44.3  T
     SCC iter.                  ...        3 min, 58.187 sec
     gradient                   ...        3 min, 34.403 sec
 * total energy  : -3427.5471225 Eh     change    :  -0.1267686E-02 Eh
   gradient norm :     0.0138810 Eh/a0  converged?    E=F G=F D=F
   time step     :     0.4871793 fs     power     :   0.3343563E-07
   step length   :     0.1042252 a0     speed     :   0.5174864E-02

........................................................................
.............................. CYCLE   55 ..............................
........................................................................

 iter      E             dE          RMSdq      gap      omega  full diag
   1  -3478.7838319 -0.347878E+04  0.227E-03   10.66       0.0  T
   2  -3478.7838328 -0.868359E-06  0.134E-03   10.66       1.3  T
   3  -3478.7838328 -0.370137E-07  0.223E-04   10.66       7.9  T
   4  -3478.7838328 -0.832097E-08  0.553E-05   10.66      31.7  T
     SCC iter.                  ...        3 min, 53.374 sec
     gradient                   ...        3 min, 35.286 sec
 * total energy  : -3427.5484857 Eh     change    :  -0.1363130E-02 Eh
   gradient norm :     0.0134325 Eh/a0  converged?    E=F G=F D=F
   time step     :     0.5358972 fs     power     :   0.3222400E-07
   step length   :     0.1164505 a0     speed     :   0.5256238E-02

........................................................................
.............................. CYCLE   56 ..............................
........................................................................

 iter      E             dE          RMSdq      gap      omega  full diag
   1  -3478.7737193 -0.347877E+04  0.214E-03   10.67       0.0  T
   2  -3478.7737198 -0.512229E-06  0.127E-03   10.67       1.4  T
   3  -3478.7737199 -0.392420E-07  0.155E-04   10.67      11.3  T
   4  -3478.7737199 -0.744149E-08  0.571E-05   10.67      30.7  T
     SCC iter.                  ...        3 min, 58.049 sec
     gradient                   ...        3 min, 33.039 sec
 * total energy  : -3427.5499554 Eh     change    :  -0.1469769E-02 Eh
   gradient norm :     0.0146446 Eh/a0  converged?    E=F G=F D=F
   time step     :     0.5894869 fs     power     :   0.3201808E-07
   step length   :     0.1300613 a0     speed     :   0.5336898E-02

........................................................................
.............................. CYCLE   57 ..............................
........................................................................

 iter      E             dE          RMSdq      gap      omega  full diag
   1  -3478.7797452 -0.347878E+04  0.237E-03   10.67       0.0  T
   2  -3478.7797454 -0.158793E-06  0.139E-03   10.67       1.3  T
   3  -3478.7797454 -0.309888E-07  0.101E-04   10.67      17.3  T
   4  -3478.7797454 -0.712680E-08  0.498E-05   10.67      35.2  T
     SCC iter.                  ...        4 min,  2.778 sec
     gradient                   ...        3 min, 33.155 sec
 * total energy  : -3427.5516098 Eh     change    :  -0.1654333E-02 Eh
   gradient norm :     0.0135767 Eh/a0  converged?    E=F G=F D=F
   time step     :     0.6484356 fs     power     :   0.3297364E-07
   step length   :     0.1446132 a0     speed     :   0.5394561E-02

........................................................................
.............................. CYCLE   58 ..............................
........................................................................

 iter      E             dE          RMSdq      gap      omega  full diag
   1  -3478.8007199 -0.347880E+04  0.298E-03   10.67       0.0  T
   2  -3478.8007206 -0.724659E-06  0.172E-03   10.67       1.0  T
   3  -3478.8007206 -0.287268E-07  0.211E-04   10.67       8.3  T
   4  -3478.8007206 -0.997989E-08  0.486E-05   10.67      36.1  T
     SCC iter.                  ...        4 min,  1.160 sec
     gradient                   ...        3 min, 33.923 sec
 * total energy  : -3427.5534292 Eh     change    :  -0.1819475E-02 Eh
   gradient norm :     0.0133166 Eh/a0  converged?    E=F G=F D=F
   time step     :     0.7132792 fs     power     :   0.3244416E-07
   step length   :     0.1622483 a0     speed     :   0.5502191E-02

........................................................................
.............................. CYCLE   59 ..............................
........................................................................

 iter      E             dE          RMSdq      gap      omega  full diag
   1  -3478.8167680 -0.347882E+04  0.277E-03   10.67       0.0  T
   2  -3478.8167682 -0.197880E-06  0.162E-03   10.67       1.1  T
   3  -3478.8167683 -0.337259E-07  0.110E-04   10.67      15.9  T
   4  -3478.8167683 -0.806222E-08  0.538E-05   10.67      32.6  T
     SCC iter.                  ...        4 min,  0.951 sec
     gradient                   ...        3 min, 33.976 sec
 * total energy  : -3427.5554400 Eh     change    :  -0.2010744E-02 Eh
   gradient norm :     0.0138693 Eh/a0  converged?    E=F G=F D=F
   time step     :     0.7846071 fs     power     :   0.3314323E-07
   step length   :     0.1821325 a0     speed     :   0.5615007E-02

........................................................................
.............................. CYCLE   60 ..............................
........................................................................

 iter      E             dE          RMSdq      gap      omega  full diag
   1  -3478.8171281 -0.347882E+04  0.280E-03   10.68       0.0  T
   2  -3478.8171291 -0.101802E-05  0.170E-03   10.68       1.0  T
   3  -3478.8171292 -0.560249E-07  0.215E-04   10.68       8.2  T
   4  -3478.8171292 -0.132536E-07  0.745E-05   10.68      23.5  T
     SCC iter.                  ...        4 min,  5.358 sec
     gradient                   ...        3 min, 34.539 sec
 * total energy  : -3427.5576997 Eh     change    :  -0.2259731E-02 Eh
   gradient norm :     0.0122733 Eh/a0  converged?    E=F G=F D=F
   time step     :     0.8630678 fs     power     :   0.3343284E-07
   step length   :     0.2046130 a0     speed     :   0.5734604E-02

........................................................................
.............................. CYCLE   61 ..............................
........................................................................

 iter      E             dE          RMSdq      gap      omega  full diag
   1  -3478.8248832 -0.347882E+04  0.314E-03   10.68       0.0  T
   2  -3478.8248839 -0.687247E-06  0.189E-03   10.68       1.0  T
   3  -3478.8248839 -0.555133E-07  0.148E-04   10.68      11.9  T
   4  -3478.8248839 -0.123468E-07  0.696E-05   10.68      25.2  T
     SCC iter.                  ...        4 min,  4.353 sec
     gradient                   ...        3 min, 34.605 sec
 * total energy  : -3427.5601651 Eh     change    :  -0.2465335E-02 Eh
   gradient norm :     0.0130529 Eh/a0  converged?    E=F G=F D=F
   time step     :     0.9493746 fs     power     :   0.3325375E-07
   step length   :     0.2318966 a0     speed     :   0.5908428E-02

........................................................................
.............................. CYCLE   62 ..............................
........................................................................

 iter      E             dE          RMSdq      gap      omega  full diag
   1  -3478.8630205 -0.347886E+04  0.456E-03   10.68       0.0  T
   2  -3478.8630213 -0.880757E-06  0.264E-03   10.68       1.0  T
   3  -3478.8630214 -0.542109E-07  0.204E-04   10.68       8.6  T
   4  -3478.8630214 -0.994305E-08  0.589E-05   10.68      29.8  T
     SCC iter.                  ...        4 min,  6.601 sec
     gradient                   ...        3 min, 33.381 sec
 * total energy  : -3427.5628898 Eh     change    :  -0.2724787E-02 Eh
   gradient norm :     0.0113843 Eh/a0  converged?    E=F G=F D=F
   time step     :     1.0443120 fs     power     :   0.3299814E-07
   step length   :     0.2617566 a0     speed     :   0.6062928E-02

........................................................................
.............................. CYCLE   63 ..............................
........................................................................

 iter      E             dE          RMSdq      gap      omega  full diag
   1  -3478.8885851 -0.347889E+04  0.475E-03   10.69       0.0  T
   2  -3478.8885855 -0.397930E-06  0.278E-03   10.69       1.0  T
   3  -3478.8885855 -0.629161E-07  0.141E-04   10.69      12.4  T
   4  -3478.8885855 -0.149162E-07  0.652E-05   10.69      26.9  T
     SCC iter.                  ...        3 min, 57.407 sec
     gradient                   ...        3 min, 33.869 sec
 * total energy  : -3427.5658238 Eh     change    :  -0.2933940E-02 Eh
   gradient norm :     0.0116139 Eh/a0  converged?    E=F G=F D=F
   time step     :     1.1487432 fs     power     :   0.3251931E-07
   step length   :     0.2976353 a0     speed     :   0.6267243E-02

........................................................................
.............................. CYCLE   64 ..............................
........................................................................

 iter      E             dE          RMSdq      gap      omega  full diag
   1  -3478.8764180 -0.347888E+04  0.448E-03   10.69       0.0  T
   2  -3478.8764209 -0.285154E-05  0.269E-03   10.69       1.0  T
   3  -3478.8764210 -0.694363E-07  0.368E-04   10.69       4.8  T
   4  -3478.8764210 -0.300661E-07  0.812E-05   10.69      21.6  T
     SCC iter.                  ...        4 min,  4.550 sec
     gradient                   ...        3 min, 34.661 sec
 * total energy  : -3427.5689446 Eh     change    :  -0.3120866E-02 Eh
   gradient norm :     0.0124115 Eh/a0  converged?    E=F G=F D=F
   time step     :     1.2500000 fs     power     :   0.3101576E-07
   step length   :     0.3336143 a0     speed     :   0.6455795E-02

........................................................................
.............................. CYCLE   65 ..............................
........................................................................

 iter      E             dE          RMSdq      gap      omega  full diag
   1  -3478.9073266 -0.347891E+04  0.551E-03   10.70       0.0  T
   2  -3478.9073277 -0.110883E-05  0.320E-03   10.70       1.0  T
   3  -3478.9073278 -0.547875E-07  0.221E-04   10.70       7.9  T
   4  -3478.9073278 -0.179134E-07  0.627E-05   10.70      28.0  T
     SCC iter.                  ...        4 min,  4.170 sec
     gradient                   ...        3 min, 33.693 sec
 * total energy  : -3427.5720260 Eh     change    :  -0.3081319E-02 Eh
   gradient norm :     0.0110581 Eh/a0  converged?    E=F G=F D=F
   time step     :     1.2500000 fs     power     :   0.3092584E-07
   step length   :     0.3397536 a0     speed     :   0.6574597E-02

........................................................................
.............................. CYCLE   66 ..............................
........................................................................

 iter      E             dE          RMSdq      gap      omega  full diag
   1  -3478.9207713 -0.347892E+04  0.430E-03   10.70       0.0  T
   2  -3478.9207718 -0.497507E-06  0.254E-03   10.70       1.0  T
   3  -3478.9207719 -0.580853E-07  0.138E-04   10.70      12.7  T
   4  -3478.9207719 -0.174832E-07  0.721E-05   10.70      24.3  T
     SCC iter.                  ...        3 min, 58.329 sec
     gradient                   ...        3 min, 34.633 sec
 * total energy  : -3427.5750828 Eh     change    :  -0.3056826E-02 Eh
   gradient norm :     0.0106201 Eh/a0  converged?    E=F G=F D=F
   time step     :     1.2500000 fs     power     :   0.3133241E-07
   step length   :     0.3470894 a0     speed     :   0.6716552E-02

........................................................................
[...]
  3011   6 C     3012   6 C                                       1.5266962
  3012   6 C     3013   6 C                                       1.5275059
  3013   6 C     3014   6 C                                       1.5280957
  3014   6 C     3015   6 C                                       1.5288390
  3015   6 C     3016   6 C                                       1.5238605
  3015   6 C     3017   1 H                                       1.0931432
  3015   6 C     3018   1 H                                       1.0928886
  3014   6 C     3019   1 H                                       1.0917817
  3014   6 C     3020   1 H                                       1.0936592
  3013   6 C     3021   1 H                                       1.0932916
  3013   6 C     3022   1 H                                       1.0913758
  3012   6 C     3023   1 H                                       1.0925057
  3012   6 C     3024   1 H                                       1.0934385
  3011   6 C     3025   1 H                                       1.0933854
  3011   6 C     3026   1 H                                       1.0923569
  3010   6 C     3027   1 H                                       1.0924115
  3010   6 C     3028   1 H                                       1.0932654
  3009   6 C     3029   1 H                                       1.0934351
  3009   6 C     3030   1 H                                       1.0921202
  3008   6 C     3031   1 H                                       1.0923460
  3008   6 C     3032   1 H                                       1.0932615
  3007   6 C     3033   1 H                                       1.0934589
  3007   6 C     3034   1 H                                       1.0921991
  3006   6 C     3035   1 H                                       1.0923591
  3006   6 C     3036   1 H                                       1.0932219
  3005   6 C     3037   1 H                                       1.0934699
  3005   6 C     3038   1 H                                       1.0923164
  3004   6 C     3039   1 H                                       1.0923314
  3004   6 C     3040   1 H                                       1.0931857
  3003   6 C     3041   1 H                                       1.0934750
  3003   6 C     3042   1 H                                       1.0923927
  3002   6 C     3043   1 H                                       1.0923049
  3002   6 C     3044   1 H                                       1.0931596
  3001   6 C     3045   1 H                                       1.0934838
  3001   6 C     3046   1 H                                       1.0924483
  3000   6 C     3047   1 H                                       1.0922773
  3000   6 C     3048   1 H                                       1.0931468
  2999   6 C     3049   1 H                                       1.0935003
  2999   6 C     3050   1 H                                       1.0925050
  2998   6 C     3051   1 H                                       1.0922195
  2998   6 C     3052   1 H                                       1.0931614
  2997   6 C     3053   1 H                                       1.0935403
  2997   6 C     3054   1 H                                       1.0925367
  2996   6 C     3055   1 H                                       1.0921339
  2996   6 C     3056   1 H                                       1.0932285
  2995   6 C     3057   1 H                                       1.0936789
  2995   6 C     3058   1 H                                       1.0925291
  2994   6 C     3059   1 H                                       1.0909798
  2994   6 C     3060   1 H                                       1.0932948
  2993   6 C     3061   1 H                                       1.0938133
  2993   6 C     3062   1 H                                       1.0923412
  2992   6 C     3063   1 H                                       1.0932245
  2992   6 C     3064   1 H                                       1.0939101
  2991   6 C     3065   1 H                                       1.0920543
  2991   6 C     3066   1 H                                       1.0903563
  2990   6 C     3067   1 H                                       1.0936224
  2990   6 C     3068   1 H                                       1.0933747
  2989   6 C     3069   1 H                                       1.0932498
  2989   6 C     3070   1 H                                       1.0916418
  2988   6 C     3071   1 H                                       1.0933143
  2988   6 C     3072   1 H                                       1.0934558
  2987   6 C     3073   1 H                                       1.0919747
  2987   6 C     3074   1 H                                       1.0916091
  2986   6 C     3075   1 H                                       1.0932106
  2986   6 C     3076   1 H                                       1.0937427
  2985   6 C     3077   1 H                                       1.0907018
  2985   6 C     3078   1 H                                       1.0927463
  2984   6 C     3079   1 H                                       1.0938071
  2984   6 C     3080   1 H                                       1.0917719
  2983   6 C     3081   1 H                                       1.0934956
  2983   6 C     3082   1 H                                       1.0934441
  2982   6 C     3083   1 H                                       1.0916185
  2982   6 C     3084   1 H                                       1.0929765
  2981   6 C     3085   1 H                                       1.0929866
  2981   6 C     3086   1 H                                       1.0913008
  2980   6 C     3087   1 H                                       1.0927897
  2980   6 C     3088   1 H                                       1.0929728
  2979   6 C     3089   1 H                                       1.0927214
  2979   6 C     3090   1 H                                       1.0928293
  2978   6 C     3091   1 H                                       1.0909122
  2978   6 C     3092   1 H                                       1.0928653
  2977   6 C     3093   1 H                                       1.0935733
  2977   6 C     3094   1 H                                       1.0919015
  2976   6 C     3095   1 H                                       1.0937086
  2976   6 C     3096   1 H                                       1.0934744
  2975   6 C     3097   1 H                                       1.0924101
  2975   6 C     3098   1 H                                       1.0927572
  2974   6 C     3099   1 H                                       1.0923150
  2974   6 C     3100   1 H                                       1.0913663
  2973   6 C     3101   1 H                                       1.0908311
  2973   6 C     3102   1 H                                       1.0923054
  2972   6 C     3103   1 H                                       1.0933034
  2972   6 C     3104   1 H                                       1.0926839
  2971   6 C     3105   1 H                                       1.0920971
  2971   6 C     3106   1 H                                       1.0925661
  2970   6 C     3107   1 H                                       1.0913561
  2970   6 C     3108   1 H                                       1.0914736
  2969   6 C     3109   1 H                                       1.0934666
  2969   6 C     3110   1 H                                       1.0935509
  2968   6 C     3111   1 H                                       1.0930176
  2968   6 C     3112   1 H                                       1.0928522
  2967   6 C     3113   1 H                                       1.0924752
  2967   6 C     3114   1 H                                       1.0927153
  2966   6 C     3115   1 H                                       1.0930942
  2966   6 C     3116   1 H                                       1.0937679
  2965   6 C     3117   1 H                                       1.0932743
  2965   6 C     3118   1 H                                       1.0927787
  2964   6 C     3119   1 H                                       1.0926971
  2964   6 C     3120   1 H                                       1.0925950
  2963   6 C     3121   1 H                                       1.0936531
  2963   6 C     3122   1 H                                       1.0926730
  2962   6 C     3123   1 H                                       1.0927324
  2962   6 C     3124   1 H                                       1.0936015
  2961   6 C     3125   1 H                                       1.0935761
  2961   6 C     3126   1 H                                       1.0925430
  2960   6 C     3127   1 H                                       1.0928700
  2960   6 C     3128   1 H                                       1.0933791
  2959   6 C     3129   1 H                                       1.0929830
  2959   6 C     3130   1 H                                       1.0922314
  2958   6 C     3131   1 H                                       1.0929691
  2958   6 C     3132   1 H                                       1.0929034
  2957   6 C     3133   1 H                                       1.0929342
  2957   6 C     3134   1 H                                       1.0922232
  2956   6 C     3135   1 H                                       1.0931733
  2956   6 C     3136   1 H                                       1.0925730
  2955   6 C     3137   1 H                                       1.0930234
  2955   6 C     3138   1 H                                       1.0924507
  2954   6 C     3139   1 H                                       1.0935398
  2954   6 C     3140   1 H                                       1.0922876
  2953   6 C     3141   1 H                                       1.0930761
  2953   6 C     3142   1 H                                       1.0929366
  2952   6 C     3143   1 H                                       1.0940485
  2952   6 C     3144   1 H                                       1.0919600
  2951   6 C     3145   1 H                                       1.0933340
  2951   6 C     3146   1 H                                       1.0916494
  2950   6 C     3147   1 H                                       1.0921357
  2950   6 C     3148   1 H                                       1.0919744
  2949   6 C     3149   1 H                                       1.0924253
  2949   6 C     3150   1 H                                       1.0940195
  2948   6 C     3151   1 H                                       1.0925460
  2948   6 C     3152   1 H                                       1.0891996
  2947   6 C     3153   1 H                                       1.0898645
  2947   6 C     3154   1 H                                       1.0915817
  2946   6 C     3155   1 H                                       1.0923541
  2946   6 C     3156   1 H                                       1.0930665
  2945   6 C     3157   1 H                                       1.0937999
  2945   6 C     3158   1 H                                       1.0940285
  2944   6 C     3159   1 H                                       1.0930945
  2944   6 C     3160   1 H                                       1.0902698
  2943   6 C     3161   1 H                                       1.0942593
  2943   6 C     3162   1 H                                       1.0934764
  2942   6 C     3163   1 H                                       1.0931135
  2942   6 C     3164   1 H                                       1.0924588
  2941   6 C     3165   1 H                                       1.0943270
  2941   6 C     3166   1 H                                       1.0930125
  2940   6 C     3167   1 H                                       1.0929682
  2940   6 C     3168   1 H                                       1.0923648
  2939   6 C     3169   1 H                                       1.0942700
  2939   6 C     3170   1 H                                       1.0927627
  2938   6 C     3171   1 H                                       1.0928969
  2938   6 C     3172   1 H                                       1.0925244
  2937   6 C     3173   1 H                                       1.0941024
  2937   6 C     3174   1 H                                       1.0925847
  2936   6 C     3175   1 H                                       1.0929982
  2936   6 C     3176   1 H                                       1.0928610
  2935   6 C     3177   1 H                                       1.0938199
  2935   6 C     3178   1 H                                       1.0926035
  2934   6 C     3179   1 H                                       1.0932327
  2934   6 C     3180   1 H                                       1.0932004
  2933   6 C     3181   1 H                                       1.0935306
  2933   6 C     3182   1 H                                       1.0927853
  2932   6 C     3183   1 H                                       1.0934116
  2932   6 C     3184   1 H                                       1.0932677
  2931   6 C     3185   1 H                                       1.0935152
  2931   6 C     3186   1 H                                       1.0928475
  2930   6 C     3187   1 H                                       1.0931768
  2930   6 C     3188   1 H                                       1.0930911
  2929   6 C     3189   1 H                                       1.0935644
  2929   6 C     3190   1 H                                       1.0914122
  2928   6 C     3191   1 H                                       1.0922349
  2928   6 C     3192   1 H                                       1.0936101
  2927   6 C     3193   1 H                                       1.0934234
  2927   6 C     3194   1 H                                       1.0923109
  2926   6 C     3195   1 H                                       1.0914395
  2926   6 C     3196   1 H                                       1.0921763
  2925   6 C     3197   1 H                                       1.0937395
  2925   6 C     3198   1 H                                       1.0921173
  2924   6 C     3199   1 H                                       1.0934132
  2924   6 C     3200   1 H                                       1.0926486
  2923   6 C     3201   1 H                                       1.0912005
  2923   6 C     3202   1 H                                       1.0913494
  2922   6 C     3203   1 H                                       1.0932314
  2922   6 C     3204   1 H                                       1.0932927
  2921   6 C     3205   1 H                                       1.0936476
  2921   6 C     3206   1 H                                       1.0934204
  2920   6 C     3207   1 H                                       1.0897371
  2920   6 C     3208   1 H                                       1.0928144
  2919   6 C     3209   1 H                                       1.0937528
  2919   6 C     3210   1 H                                       1.0931983
  2918   6 C     3211   1 H                                       1.0931214
  2918   6 C     3212   1 H                                       1.0938272
  2917   6 C     3213   1 H                                       1.0927215
  2917   6 C     3214   1 H                                       1.0894449
  2916   6 C     3215   1 H                                       1.0930765
  2916   6 C     3216   1 H                                       1.0934810
  2915   6 C     3217   1 H                                       1.0932709
  2915   6 C     3218   1 H                                       1.0923996
  2914   6 C     3219   1 H                                       1.0897534
  2914   6 C     3220   1 H                                       1.0930863
  2913   6 C     3221   1 H                                       1.0931637
  2913   6 C     3222   1 H                                       1.0925306
  2912   6 C     3223   1 H                                       1.0930409
  2912   6 C     3224   1 H                                       1.0931585
  2911   6 C     3225   1 H                                       1.0927329
  2911   6 C     3226   1 H                                       1.0914299
  2910   6 C     3227   1 H                                       1.0933261
  2910   6 C     3228   1 H                                       1.0927271
  2909   6 C     3229   1 H                                       1.0929642
  2909   6 C     3230   1 H                                       1.0926441
  2908   6 C     3231   1 H                                       1.0934282
  2908   6 C     3232   1 H                                       1.0923823
  2907   6 C     3233   1 H                                       1.0930203
  2907   6 C     3234   1 H                                       1.0930476
  2906   6 C     3235   1 H                                       1.0934604
  2906   6 C     3236   1 H                                       1.0926259
  2905   6 C     3237   1 H                                       1.0927491
  2905   6 C     3238   1 H                                       1.0933035
  2904   6 C     3239   1 H                                       1.0934722
  2904   6 C     3240   1 H                                       1.0929380
  2903   6 C     3241   1 H                                       1.0923221
  2903   6 C     3242   1 H                                       1.0933681
  2902   6 C     3243   1 H                                       1.0934766
  2902   6 C     3244   1 H                                       1.0931522
  2901   6 C     3245   1 H                                       1.0920008
  2901   6 C     3246   1 H                                       1.0934005
  2900   6 C     3247   1 H                                       1.0935329
  2900   6 C     3248   1 H                                       1.0933040
  2899   6 C     3249   1 H                                       1.0918270
  2899   6 C     3250   1 H                                       1.0934337
  2898   6 C     3251   1 H                                       1.0931823
  2898   6 C     3252   1 H                                       1.0930613
  2897   6 C     3253   1 H                                       1.0884721
  2897   6 C     3254   1 H                                       1.0872682
  2897   6 C     3255   1 H                                       1.0878439
  3016   6 C     3256   1 H                                       1.0878761
  3016   6 C     3257   1 H                                       1.0865699
  3016   6 C     3258   1 H                                       1.0873945

 * 2 distinct bonds (by element types)

   Z      Z             #   av. dist./Å        max./Å        min./Å
   1 H    6 C        2178     1.0926415     1.0948479     1.0864693
   6 C    6 C        1071     1.5269802     1.5359526     1.5215548


optimized geometry written to: xtbopt.xyz


           -------------------------------------------------
          | TOTAL ENERGY            -3427.714972341353 Eh   |
          | GRADIENT NORM               0.000701071142 Eh/α |
          | HOMO-LUMO GAP              11.175534058686 eV   |
           -------------------------------------------------

------------------------------------------------------------------------
 * finished run on 2024/06/20 at 18:01:15.266     
------------------------------------------------------------------------
 total:
 * wall-time:     3 d,  2 h, 42 min, 29.209 sec
 *  cpu-time:    16 d, 17 h, 17 min, 57.604 sec
 * ratio c/w:     5.372 speedup
 SCF:
 * wall-time:     0 d,  0 h,  6 min, 56.841 sec
 *  cpu-time:     0 d,  0 h, 36 min, 50.056 sec
 * ratio c/w:     5.302 speedup
 ANC optimizer:
 * wall-time:     3 d,  2 h, 34 min, 50.444 sec
 *  cpu-time:    16 d, 16 h, 40 min,  9.904 sec
 * ratio c/w:     5.372 speedup

