3536
 energy: -3716.277966621580 gnorm: 0.000669547998 xtb: 6.6.1 (8d0f1dd)
C           49.48658632728207       47.44819725445090       49.32339918839469
C           48.92174199769062       48.46724195372445       48.33841656525481
C           49.69223841930922       49.78205189404797       48.45456488640789
C           47.43554740761717       48.74095171282268       48.59156353571704
C           46.51070553890939       47.51930150948499       48.58232682527935
C           46.64321579303269       46.73430734390146       47.27781339406308
C           45.04273237323891       47.93918975235253       48.75171564902210
C           44.69495629279352       48.67107253176052       50.05132486024404
C           44.79112097884475       47.72704324134968       51.24988465948984
C           43.27960230194024       49.26386851145667       50.00125829507523
C           43.00265813638088       50.34053649350971       48.94089690837885
C           44.14316448175502       51.35170499738661       48.82142033247400
C           41.72639993891804       51.12463587780517       49.29040541270846
C           40.42138884217513       50.32952591483249       49.44543963359042
C           39.98907024219594       49.73067798431063       48.11079258145419
C           39.35600151190838       51.28016588355140       50.00986368640181
C           37.97182722743269       50.69012554408828       50.31433841627421
C           37.03660403723273       51.84170853063203       50.69541413405143
C           37.98014116553446       49.63958171862244       51.44199298277614
C           37.97257373628815       48.17230800656596       50.99380318180253
C           36.67893906526708       47.82876256240448       50.25270883677377
C           38.09129319291883       47.22208544097111       52.19746049214851
C           39.41828439333252       47.23194494702946       52.96407854232930
C           40.57936509042271       46.81017894821708       52.06440292942484
C           39.36638373092402       46.27793697196150       54.16846353413057
C           38.31357780246053       46.57379709591932       55.24408276756947
C           38.39823560442962       48.01938017555644       55.73360604314724
C           38.49282507547580       45.64682112755877       56.45760773545023
C           38.38687672712928       44.13952309191478       56.19988678145637
C           37.06317644328270       43.77928813621884       55.52429701412897
C           38.49304166278468       43.35543521538658       57.51813738940588
C           39.82905374096989       43.43867477851609       58.26995681211103
C           40.97612624266862       42.90115006112310       57.41773201895555
C           39.72137432575694       42.63576976654293       59.57650201748012
C           40.77401432171860       42.99412081188463       60.63857249475096
C           41.02719146017573       41.78808274219386       61.54216337468034
C           40.32074656197784       44.20531074578285       61.46390326785282
C           41.41275944762285       44.78990854751311       62.38271014641816
C           41.01588073503336       44.65145911688139       63.85287055682006
C           41.69789362609639       46.26669367671324       62.07882618517763
C           42.31745196736723       46.53235377748933       60.70380241371744
C           43.72002650689666       45.93168866927586       60.60149917878333
C           42.42052018212090       48.03461010156971       60.40748586534824
C           41.12822557119305       48.86466370382792       60.44714515507490
C           40.02422495267813       48.25030503966527       59.59124168142839
C           41.47456883560852       50.28060741873151       59.96857325832647
C           40.39592729126856       51.36186314838827       60.10774388493162
C           40.90292817815017       52.62761969363049       59.41255713290248
C           40.05482786957946       51.68405220531464       61.57296845009783
C           38.83258624328756       50.97192395607996       62.16472388316777
C           37.54850926901261       51.40597626389636       61.45431444193861
C           38.67051756758331       51.29147401125731       63.66142317013070
C           39.83123942187039       50.91076313819642       64.59042577799708
C           39.99122063427184       49.39225447110293       64.66370161147560
C           39.60964782169838       51.47761646897754       66.00669547005081
C           40.23535540111375       52.85023619010692       66.32101843157054
C           39.63064387349002       53.97861440631714       65.48983397621484
C           41.76149227657270       52.81201579358214       66.17478781062410
C           42.51783713542312       54.00910915706413       66.77074253658175
C           43.94998864113658       53.99552436583279       66.24182309992410
C           42.50187077753029       53.95871992613358       68.30119532895793
C           43.16559745053955       55.13895506016215       69.02299077963983
C           43.18549251487842       54.84160687436481       70.52453947887693
C           42.45042397701033       56.47815464744791       68.77045057391909
C           43.02773538923414       57.37870627044941       67.66643895067556
C           44.46396917422282       57.79303185933195       67.98126424613103
C           42.13864331817569       58.62539095939815       67.53580347427069
C           42.31024917690781       59.40997781554906       66.22568298821280
C           41.80140210545368       60.83683245411921       66.43729103500472
C           41.57474996720758       58.72316430526042       65.05973764539434
C           42.34851216208644       58.69756842940339       63.73568416153388
C           42.71549304616602       60.09902146440652       63.25332406033062
C           41.54145620135863       58.00116394910053       62.62963530341830
C           41.21420116382244       56.52022160385386       62.85017493394045
C           42.47935413414881       55.70044894147609       63.09628534304790
C           40.48357189789265       55.94180533335138       61.62901683010026
C           39.02610966313799       56.37751143759922       61.42312583096859
C           38.13786471009836       55.87315244373539       62.55871732295607
C           38.53553170093810       55.82144142911016       60.07667713091719
C           37.18649791839750       56.36976409312540       59.57879765389340
C           36.32099850417455       55.22651761862227       59.04369962481859
C           37.35301957428757       57.42042580955453       58.47366832051748
C           38.07534807914491       58.71162761118713       58.88008896051308
C           37.23071987828332       59.53169254209529       59.85225674527263
C           38.39193140144210       59.50947285049617       57.60796213079399
C           39.11028895184135       60.85338477888866       57.79560282106896
C           39.31249651812499       61.48776170815852       56.41929629636110
C           40.44126910328428       60.67547178521720       58.53309015480685
C           41.20702120644349       61.97701620419144       58.76114068570909
C           42.43613514570977       61.75193611452078       59.63285901187641
H           49.08447214895363       46.45404743979884       49.14122920685696
H           50.56980854723598       47.39932098267969       49.23248578249715
H           49.24256627511501       47.73549812344130       50.34250557000050
H           43.00113475734241       62.67402674449467       59.74838028285505
H           42.14628018452441       61.39879479280589       60.61968759207719
H           43.09046382850649       61.01034058063664       59.18058474450487
H           40.25009313083221       60.22425972431427       59.50859492706250
H           41.06918205202831       59.98111897338642       57.96854978694515
H           39.00775985618447       58.88521214884279       56.95462087113946
H           37.45063821359150       59.69761487487526       57.08304592948023
H           39.01488973866970       58.43962606659894       59.36725395731853
H           36.31746527126460       59.87175910981070       59.36722654406245
H           36.95520483589268       58.94077356718012       60.72211037176228
H           37.77755227983796       60.40259204019699       60.20437197197359
H           37.90011921605571       56.95819379472762       57.64745912823908
H           36.36210399559013       57.68668834340082       58.09466548635991
H           39.29462210628810       56.01253305691630       59.31477740557488
H           38.45535112317020       54.73681422066705       60.18321443704725
H           38.47125485801301       61.52062617412964       58.38436475825560
H           39.67304101620427       62.50894293586285       56.50423402866098
H           40.03164596741515       60.91312171130310       55.83970902934283
H           38.37284934080687       61.51042430554371       55.87093165619758
H           36.64848037678780       56.82601132560377       60.41411393900329
H           36.13768340141822       54.48554642621595       59.81901440405628
H           35.35915536985816       55.59880083364708       58.69646583386827
H           36.81644974662787       54.73486903543662       58.20842875666430
H           38.97376653718593       57.46956067174918       61.39879202135546
H           38.22013080148329       54.79168593847321       62.65027045810166
H           38.42050348621112       56.31938914763090       63.50842914726269
H           37.09350798640030       56.11654755653289       62.37729532359895
H           41.05761317685072       56.20074765146771       60.73533760508179
H           40.49317714124126       54.85210078771853       61.70818389672260
H           40.56810333726766       56.41991899208434       63.72596878276106
H           43.17102663249960       55.80691267949179       62.26353622663021
H           42.98251601011324       56.01467561902610       64.00565770088167
H           42.22921879007777       54.64729640168920       63.20008927945799
H           40.60715414363049       58.55232291696984       62.49518089797596
H           42.10730395177418       58.08671486411878       61.69824732982269
H           43.28294906833587       58.15027582262707       63.89412366712129
H           43.35784239545941       60.60532581938673       63.96704413096541
H           43.25195576098611       60.03808644526631       62.30868412023457
H           41.81918953366712       60.69818531799082       63.10113742893079
H           41.36264707935364       57.69097274064777       65.34190280161256
H           40.61289726457897       59.21751193856911       64.90118786089710
H           43.37716120064973       59.45698945600707       65.98762125734810
H           41.84137046312888       61.41256441852332       65.51761629256269
H           40.76882818875788       60.81984338337497       66.78229040054015
H           42.40024276501217       61.35075200889984       67.18743143941882
H           41.08797090948016       58.33575244052122       67.62442525527096
H           42.35864741469059       59.28628577473720       68.37845723770411
H           43.02279287639161       56.84073044180371       66.71487297582345
H           45.13535340938495       56.93800720505168       67.97265686900104
H           44.82998788368548       58.50518022716981       67.24592249939073
H           44.51877854572451       58.25822130497853       68.96392887831581
H           41.40096930724006       56.27298635589803       68.54247512919029
H           42.46343184057543       57.06047541627925       69.69611046857185
H           44.20327421208108       55.20911193180959       68.69359110527013
H           43.68413830802347       53.89491724445254       70.72420699738274
H           43.71508415213133       55.62287279906880       71.06576998042770
H           42.17141234464177       54.77944109468887       70.91566070817566
H           41.46815917547080       53.89022372319783       68.64929780469485
H           43.00858003903161       53.04021157142083       68.61329865927040
H           42.03025936959681       54.92778693493366       66.43750829325919
H           44.46797032593776       53.11121369824776       66.60396166541727
H           43.95508536261823       53.97707268900353       65.15504915607643
H           44.49785124123171       54.87629577041197       66.56395247658044
H           42.13965861175442       51.89699833964927       66.63906481267072
H           42.00392176990878       52.76498816190985       65.11137725279157
H           39.99252981596771       53.04775170426398       67.37241707812241
H           38.54367970159959       53.94093395695793       65.52549109570562
H           39.93938817026915       54.94588518196893       65.87974540095645
H           39.95484533422407       53.91300891902483       64.45518252495478
H           38.53516549407055       51.53319712164344       66.20199393462882
H           40.02427761498770       50.76926202815873       66.72901697275861
H           40.76054098547374       51.32524865483632       64.19650481974651
H           39.08833262521831       48.93177952689451       65.06104848291041
H           40.18595152064773       48.97164882510529       63.68093817388109
H           40.82438885685869       49.12576063160112       65.31106251934146
H           38.48646176815554       52.36217188150766       63.75092568926638
H           37.77206764198099       50.78017296399167       64.02102977587892
H           38.93776542459467       49.89159658299090       62.03709735480235
H           36.68394511360960       50.91355223661755       61.89554259056440
H           37.40915643376917       52.48206328021396       61.54567025339359
H           37.56989919434187       51.15630734322588       60.39668169623634
H           40.93258082215819       51.45155565055403       62.17723540632921
H           39.87383400300070       52.75840832405135       61.66370775315271
H           39.49638341325376       51.03380801358259       59.58118662502101
H           40.13274723427094       53.39406912541815       59.39458708233147
H           41.77241433642693       53.02495403142834       59.93191476919159
H           41.18697369968313       52.41318593034168       58.38513864026584
H           42.36209785758088       50.62116689444771       60.50826092800796
H           41.74330575440802       50.21374491905846       58.91074247914855
H           40.78300741730072       48.92118760823596       61.48282307612373
H           39.73349129254937       47.27205726955351       59.96595971739700
H           39.13731937166050       48.87913081286749       59.59434535374982
H           40.35606638201595       48.13850611030944       58.56114180704642
H           43.12024488064770       48.47173643335515       61.12542544731753
H           42.86144582976979       48.14467964595164       59.41348361110440
H           41.69696369046910       46.06310411208243       59.93570283126403
H           43.69310978706186       44.84763228685527       60.67096735134151
H           44.17133825097044       46.19410183296471       59.64746756471980
H           44.35672563096085       46.31046227816353       61.39880589004668
H           40.75583238328538       46.81149632727546       62.16627106845970
H           42.37356436469087       46.65927619798796       62.84359174244887
H           42.33777468667467       44.22536374707956       62.23798799449447
H           40.11891431428619       45.23140298135809       64.06323981903090
H           40.81733441693856       43.61149463585454       64.10352171444536
H           41.81260565359137       45.01544922360051       64.49918384637971
H           39.96779988047623       44.97729827493109       60.77863380561585
H           39.46038230919358       43.90484842020986       62.06703383224141
H           41.71191696974911       43.25049029512445       60.13563504466076
H           40.10152941777442       41.47582229157677       62.02236227211581
H           41.41201186254018       40.95013499402915       60.96422492711588
H           41.75125916211527       42.02439520483432       62.31752219072742
H           38.73029624909582       42.78212838754340       60.01380837781890
H           39.80695513279601       41.57488148989101       59.32866086646214
H           40.03404412908051       44.48361721410051       58.51916291909760
H           41.89819876518381       42.86770474100217       57.99222373985312
H           40.75024596083664       41.89217006798451       57.07655351999838
H           41.14678428346167       43.52971012111929       56.54921987316094
H           37.69743795314837       43.70429831982786       58.18306466504558
H           38.29585576142518       42.30038950546121       57.30604703725497
H           39.20026261168856       43.82699724768848       55.54000110636797
H           36.99547105933739       44.21853029540632       54.53271262760386
H           36.97162801397850       42.69984971212371       55.41909965900093
H           36.22341845256086       44.13563215599101       56.11796012171453
H           39.47044138985358       45.85643958621932       56.89440119298215
H           37.73724191866222       45.91495085281780       57.20190359217689
H           37.31434001218550       46.41415476875171       54.82865432934434
H           37.70661603222273       48.18144871637605       56.55822592405084
H           39.40349667918149       48.23786786012624       56.08621736825250
H           38.14472716641947       48.72020455416929       54.94299907355761
H           39.20663028444749       45.26611423695936       53.78901166576789
H           40.34741445962862       46.29486026464662       54.64951010313907
H           39.62133454703859       48.24062586144667       53.32918179288580
H           40.74824623305305       47.53631157331360       51.27441045036028
H           41.49798178905757       46.72673936528339       52.64138792835994
H           40.37369794475993       45.84324946497862       51.60853182111872
H           37.28144391075858       47.46636476485855       52.88843057384191
H           37.91784853922059       46.20147303165343       51.84293620688513
H           38.80810681283577       47.99971818624779       50.31211867859597
H           36.53955667358724       48.45167013775517       49.37307581432413
H           36.69385378479674       46.79110940524363       49.92510464343665
H           35.81922304295758       47.96856271008304       50.90594689232248
H           38.85215208021975       49.81412326670092       52.07294908779088
H           37.09774041144868       49.79128211689648       52.07008220944172
H           37.57961859870855       50.24119032727369       49.39902579705726
H           37.38006531582171       52.32366588562402       51.60920705960089
H           37.00494488954354       52.59238632285638       49.90829025366810
H           36.02374471661696       51.47890148394923       50.85814567307765
H           39.74312273817821       51.72897766961159       50.92928056855111
H           39.22086983358848       52.09330505128752       49.29026196200726
H           40.57973753312884       49.52003054325451       50.16231481012606
H           40.77367093341288       49.09538161374389       47.70796145992486
H           39.09533021841403       49.12214673723081       48.22334436493525
H           39.77770965545838       50.51993575595351       47.39181110175155
H           41.91518636143346       51.65663864864492       50.22704897889316
H           41.56615716789047       51.88042323562041       48.51594972576461
H           42.87240013243977       49.86134857326064       47.96489366555173
H           45.06787737039803       50.87601076421360       48.51012756502293
H           43.89215693728440       52.10849085015694       48.08170414430394
H           44.31142772269369       51.84534291466511       49.77572497563731
H           42.57337253895644       48.44235703172973       49.85651640176511
H           43.07405628469975       49.70025603054848       50.97897627725596
H           45.39906942302711       49.48940112214368       50.21385582013144
H           44.52373540555249       48.24483347950019       52.16927048863585
H           44.11466586841615       46.88296150414697       51.12690044565452
H           45.80132016642172       47.34185129902995       51.36225002936383
H           44.77369550840193       48.56865449449147       47.90217401811748
H           44.42234415820232       47.04152398110364       48.69564056117979
H           46.78613638739986       46.85901013518981       49.40911739454953
H           45.90873225170244       45.93230191597895       47.23462240822359
H           46.47658529477670       47.39045712052361       46.42734062299053
H           47.62787455360233       46.28385872922458       47.18205776374705
H           47.35745163245990       49.23210167138895       49.56360143447188
H           47.08385902479381       49.44803214743537       47.83430115034806
H           49.05106343253861       48.08442809764747       47.31937106966719
H           49.30293702403282       50.52076827365214       47.75679952930980
H           49.60166571094327       50.18388191311718       49.46116937870464
H           50.74887084086820       49.63251577833876       48.24278573498683
H           41.52373886063178       62.39467712470568       57.80496284676855
H           40.54698834544165       62.70690464818326       59.23875220908157
C           41.91192312836110       46.18878524592832       47.24256195751477
C           40.91475112932864       45.08805084118353       47.59202057767796
C           39.58763165084291       45.71389740338609       48.01979508992561
C           41.44057807257857       44.18462346128660       48.71491395246885
C           42.62513876951162       43.28390552484293       48.34484947701115
C           42.19915334892963       42.19373985867752       47.36109095866524
C           43.21597916789861       42.62002325288775       49.59860272776042
C           44.02315532251924       43.53641958538181       50.52510876647636
C           45.29838945729905       44.02856540865913       49.84215943125864
C           44.42458874116956       42.80198787133772       51.81162399757119
C           43.29081561893031       42.32445810313974       52.72600498674561
C           42.30509711553324       43.44841408294290       53.04536078782875
C           43.85530987158581       41.79252284894113       54.05194480213731
C           44.90803752390389       40.68201109960091       53.95914128584480
C           44.33519422760124       39.43127452160073       53.29446780420010
C           45.42197865720259       40.33194072594178       55.36360229129500
C           46.37861304834902       41.37178015169865       55.96739832381434
C           47.78864430751150       41.18409718506583       55.41216447182758
C           46.36193133723019       41.26931154355483       57.49701027736532
C           47.02993131591587       42.43670196132369       58.23392132501709
C           47.08471535456300       42.11571038890398       59.72701029183730
C           46.29862166170417       43.77169624654514       57.99153154630675
C           47.12763456385409       44.80336061868373       57.21666938387555
C           48.27874659394925       45.31592568710471       58.07976793911787
C           46.26628933912510       45.99660763080736       56.77997151527988
C           45.33815094345112       45.75061657125282       55.58536887932772
C           46.14300095523330       45.49674599464672       54.30982254651998
C           44.41238479187181       46.95357097754387       55.34385444972552
C           43.46011632560506       47.31685872341306       56.48722744363506
C           42.57198774862378       46.12954104105050       56.85376781677962
C           42.57121262332081       48.51259504882680       56.11298934750461
C           43.30377384863887       49.81827479714294       55.78298336895362
C           44.27727928655033       50.20302686818225       56.89566211535431
C           42.31861726364362       50.98140002392641       55.58333992926084
C           41.21444892752357       50.76807445972291       54.54322333573290
C           41.79143712008523       50.28151763570207       53.21635252684178
C           40.44736667948973       52.06833900191387       54.25759794720522
C           39.85490511634548       52.81540967662134       55.45422113343422
C           38.89539398343859       51.93189512435022       56.24979647854008
C           39.11311115396402       54.08038603446241       54.99574508799398
C           39.99429840959402       55.14371742353672       54.30958598695620
C           39.64685693645062       56.53052669751152       54.85171118618496
C           39.82782876542106       55.09942917276385       52.78319372416338
C           40.87194906805009       55.88944215441588       51.98222609315579
C           40.38929565988446       56.05344119472664       50.54186945224159
C           42.25539298551138       55.22323009894880       51.98493843477535
C           43.39868372164464       56.24178803526092       51.85178145953865
C           44.66412464158589       55.54059531873723       51.36086086196687
C           43.63888650733037       56.95462399096269       53.19487365648305
C           43.83066067247729       58.47705036652942       53.12110534160765
C           45.10293740809113       58.84080000682186       52.36509661275202
C           43.85556829109774       59.01033144767840       54.55925025174967
C           43.96071104758087       60.52741563749648       54.77881148544685
C           43.92009859914187       60.76713616118105       56.28736102670701
C           42.83861577446473       61.27615089557256       54.04632061315758
C           42.54984537309316       62.71447019095219       54.50417474205092
C           41.38095381262749       63.25711509241528       53.68299660416034
C           43.77085008428512       63.63051697867505       54.37042259504039
C           43.67282445673426       64.97567920170999       55.11065249806048
C           44.80460656121621       65.87896172098000       54.62740706614003
C           43.73927559302672       64.77888494406909       56.62902082015380
C           43.58725707880252       66.04576483331074       57.48191856741016
C           43.76405360362511       65.67183757652045       58.95405725834091
C           42.23195224045004       66.74855850844119       57.27700559751172
C           42.30113412848002       68.05137525065422       56.47058967392956
C           43.01476846290543       69.14213956971049       57.27080747160090
C           40.89799929611779       68.55226653588949       56.10094092211454
C           40.14166864074043       67.73821811493428       55.04287485575267
C           40.84435847591320       67.79665197993924       53.68769708962853
C           38.70883757791087       68.27935891343498       54.92351056660331
C           37.72278328671407       67.31065108494771       54.25397529169604
C           36.54651283236188       68.09208881336829       53.67085934263477
C           37.24003871726157       66.25908595324695       55.25974528392083
C           36.51407015895170       65.04554560732674       54.66174055573736
C           35.99104757409857       64.17237268462793       55.80420297178412
C           37.42718470565305       64.22017369281873       53.73999279899272
C           37.26794104424046       64.51440446270036       52.23968542878072
C           35.99400756018512       63.86919588953593       51.69982604966192
C           38.51616669708346       64.01245623337429       51.50424320665203
C           38.59279816897526       64.28908398121892       49.99661680052219
C           39.82872239396412       63.58541081521647       49.43632456748762
C           38.64777898269968       65.79789215007918       49.72849983664257
C           38.72145400457448       66.22860795515230       48.25608150022458
C           38.92525470211306       67.74237355685329       48.19847041839687
C           37.45467812549665       65.79856521422806       47.50684534920121
C           37.34917020960598       66.21297292439280       46.03134424701662
C           35.99137613343523       65.75992233818559       45.49150182805144
C           38.50218744828332       65.62582937899828       45.21223201225218
C           38.46780261778238       65.97161260580589       43.72498217918704
C           39.74607763645705       65.51786350565686       43.02964762005681
H           41.50352694707333       46.83985460731071       46.47260306643452
H           42.12812998171653       46.79266966956843       48.12112048550567
H           42.84416236470614       45.77527481419882       46.86683711498411
H           39.88006728744959       64.44391051155442       43.14462543608931
H           39.71235231936498       65.75000677872610       41.96717149054588
H           40.61021617731785       66.01532084946214       43.46433181946508
H           39.44472219339272       65.99601166496254       45.61807181133045
H           38.49710242568806       64.53864978819668       45.32235903860369
H           37.37746108398174       64.70992615856949       47.54935329316351
H           36.59128355273553       66.20975298997219       48.03854108194322
H           39.59288464078507       65.75535286409581       47.79790413225774
H           39.10717146340308       68.07705398646074       47.18090745743179
H           38.04865843751531       68.26192497921681       48.58109149859560
H           39.78282951989566       68.02982211393525       48.80375074901560
H           37.76661629400800       66.27033237781009       50.16786507273602
H           39.52484526514743       66.19938367545080       50.24513683376268
H           39.39499619982968       64.46180237374327       51.97303423828502
H           38.58481185604258       62.93260954111251       51.66026969280667
H           37.38895376830605       67.30512145838729       45.96045139377757
H           35.81409937773949       66.15343460766562       44.49420237853070
H           35.93939812472046       64.67344307130023       45.44702561032970