3536
 energy: -3716.262548646631 gnorm: 0.000685178764 xtb: 6.6.1 (8d0f1dd)
C           50.53657814070580       53.23698551371244       39.23021260827880
C           50.17704226507630       54.18771426315095       38.09097028447164
C           51.29371709811900       54.18531903191451       37.04795166413633
C           49.93806378537127       55.61310899725451       38.60877837454285
C           48.58477777690354       55.81875247043254       39.30025294959989
C           47.45282245099489       55.85392677595647       38.27171596722332
C           48.54481094869364       57.12422654253351       40.10911334996174
C           49.48122032328640       57.22142534537801       41.32020199030671
C           49.29414846303143       56.04456236477134       42.27765676053034
C           49.22624035520143       58.52537997700581       42.09269162019936
C           49.62873156916994       59.83135117034491       41.39844065632209
C           51.13681291443726       59.88387771184235       41.14856138475955
C           49.23335921236784       61.05601682815745       42.24232482097306
C           47.73528989366431       61.27637403401230       42.48975789711298
C           46.96816158478888       61.40788330345397       41.17403399791957
C           47.51754064393266       62.53985153769869       43.34275313860753
C           47.60733337442724       62.33955447586784       44.86455389570439
C           46.37114931840608       61.60027769767316       45.37229449731853
C           47.74574197410421       63.71926553830571       45.52806359446642
C           47.75101448072483       63.74913577194974       47.06249737783076
C           47.54472615658423       65.18279773701985       47.55167886762761
C           49.00707413344188       63.11414494034702       47.67776887110443
C           50.32791747707141       63.88403666941971       47.46502806031997
C           51.39500597115033       62.96399879663287       46.87829470119011
C           50.78847716041127       64.51030319853196       48.78923211834236
C           52.14963169601960       65.22380722627770       48.78266140764423
C           52.41291632201202       65.78806836994174       50.17798206485675
C           52.18682172033133       66.32894399961549       47.72228319892989
C           53.49626712388282       67.12027675796310       47.59084487479990
C           53.27637638644271       68.24368002018439       46.57657961318756
C           54.65423260175154       66.20543800896239       47.17654101992117
C           56.01812180555923       66.91027710080222       47.05524099638131
C           56.45028481156935       66.99309005451124       45.59198970927493
C           57.10981965774369       66.18781583577442       47.85490249843994
C           57.00387172196022       66.31821204808080       49.38023954878935
C           57.35419682060659       67.73734458297841       49.82334340638462
C           57.93500109996157       65.29078552166656       50.04104633549301
C           57.76883107931904       65.13547169238269       51.55779762519283
C           58.98036618184582       64.41068066794200       52.14061459636018
C           56.48416719723740       64.37826929026454       51.92113969063080
C           55.90805408382478       64.81304614684103       53.27456951617586
C           54.89478956553443       63.78196791811785       53.76493774411676
C           55.27138933157367       66.21032519728175       53.16600974205219
C           55.67414733831619       67.18365464857636       54.28126596473496
C           55.14254611760963       66.72415719420287       55.63574127733539
C           55.16849477197595       68.58912558592944       53.93033819297008
C           55.74122562152067       69.73462992059568       54.77425404863905
C           55.04400294586460       71.04056113912316       54.39021858649276
C           57.26688473137451       69.86717279705844       54.61407757352121
C           58.05922959437027       69.35506644768628       55.82379030370117
C           57.99727959588917       70.37195963643748       56.96303219605887
C           59.52294561582643       69.07496832534353       55.45961968821966
C           59.75727898553727       67.76721767947441       54.69409060250655
C           59.54943363605719       66.55487357206309       55.60142859701179
C           61.18015266972633       67.70951844957595       54.12274009367641
C           61.50739326118407       68.71029692712627       53.00926068424995
C           60.51930147677488       68.58495352284574       51.84895181533457
C           62.92339200558091       68.47812205989884       52.46132713160625
C           64.07906904215945       68.53461084373684       53.46979372210037
C           64.20054599983474       69.91507879820368       54.10821299529493
C           65.36752899123746       68.13915177435118       52.73803927400329
C           66.62603634848797       67.91470987991742       53.59127417412593
C           67.71756206646106       67.37386605133875       52.66692936569539
C           66.33525417221101       66.95758309437871       54.75487686351291
C           67.54556223788396       66.38032444083268       55.50482051604079
C           67.02405891510290       65.45936997396311       56.60751117061681
C           68.43264445976851       67.48660605242358       56.08637188771625
C           69.79082234017245       67.04264510148926       56.65470616635165
C           70.41773910118602       68.23874031054551       57.37352167521863
C           70.72067372431216       66.52767600694506       55.54705831671781
C           72.03254163690822       65.88393140564139       56.03625057343866
C           73.20589996696488       66.37971900921131       55.18790998418594
C           72.00206437715443       64.35036830567338       55.97826597809195
C           70.98847684960988       63.65156607526441       56.89468370902262
C           71.33044976932024       63.85873582738466       58.36809348685689
C           70.96966488371837       62.15846737449933       56.53763584715046
C           69.95038303982716       61.27942933729484       57.27581976058060
C           70.23519584014321       59.81422573714776       56.94654293271842
C           68.51591409818759       61.65179987073820       56.88862557812322
C           67.40318992034499       61.06754625260988       57.77264948497867
C           66.06500163102902       61.28820602177299       57.07073300073904
C           67.41019906189965       61.72104087459410       59.16065149929641
C           66.32197391724814       61.25384333065748       60.14073057425823
C           66.39706161742939       62.10786752137531       61.40675576646597
C           66.47707841668849       59.76547710326783       60.47100881625017
C           65.49233687661882       59.20554653527165       61.50598286684514
C           65.77474824583818       57.72038469249520       61.72824018777609
C           64.01866329317643       59.44417030416270       61.15124910191425
C           63.55948587929289       58.87555795043659       59.81173631396040
C           62.10971704954814       59.24548444584485       59.53028181423826
H           51.46166474251341       53.55486580069273       39.70533162428571
H           49.75222127246305       53.21064089661763       39.98162713275968
H           50.67500979515298       52.22612660111296       38.85211192802960
H           61.78054554151574       58.81804268009441       58.58683571190556
H           61.46095893422024       58.88376165839239       60.32534397964855
H           61.99815266433264       60.32589395228176       59.46925830922090
H           63.40317639434492       59.00692521973815       61.94255399292082
H           63.82287002037535       60.51854473205310       61.15344016876546
H           66.38529873270214       59.18478062047741       59.55225471611858
H           67.48987940321781       59.60412672430862       60.85367015295022
H           65.34484016993484       61.42282082815638       59.68191566386339
H           67.28492841217427       61.85701427280580       61.98321052755494
H           66.44040136983077       63.16568280888283       61.15342879220258
H           65.52677275493717       61.95481783368430       62.03919716914222
H           68.38187448049335       61.55239074971053       59.63081952506391
H           67.30021196009582       62.80118569816245       59.02223020344596
H           68.40902013521467       62.73697509470989       56.89800724654761
H           68.35173024978064       61.32182977991350       55.85867643785935
H           65.67515654961119       59.71591918122125       62.45898251070043
H           66.81465312899768       57.56963078380375       62.01186716632967
H           65.14500064472344       57.32421704022314       62.52109074335662
H           65.58217278160244       57.15018124056232       60.82388782218885
H           67.56509545498866       59.99139703850280       57.87723674376804
H           66.09926491371007       60.89277586621865       56.05820149994805
H           65.25467112952964       60.79076771553886       57.59442686611488
H           65.83714541578115       62.35115119979636       57.01646071059601
H           70.08486070111815       61.41580619060641       58.35079593006327
H           70.09749671767918       59.62729064903382       55.88259880753336
H           71.25839890725628       59.55319550671538       57.20888785113203
H           69.57065689353605       59.15809493591123       57.50093610770971
H           70.78542549596510       62.06380723853238       55.46456204443343
H           71.96943762294751       61.75874030410625       56.73019610772810
H           70.00212498197438       64.07842733140251       56.69770378262144
H           71.40470146338305       64.91649015987974       58.60787570330243
H           70.56207856437875       63.43027207485003       59.00665711480773
H           72.28246943082632       63.38727307649754       58.60667243492995
H           71.79655571972108       64.05529369364682       54.94546883822563
H           72.99981838251773       63.97758891090422       56.22844793331601
H           72.22448389531563       66.18809530956678       57.06833781412943
H           73.29123349272889       67.46312882317889       55.24272335597971
H           74.14353534223980       65.94778275561906       55.53292714099330
H           73.06530775022135       66.09754820072537       54.14573141315756
H           70.18813704423901       65.79791971506971       54.93617485208998
H           70.95921784394365       67.37522423676651       54.89880865215364
H           69.63440390746379       66.24921178374125       57.39005140310920
H           71.38639643083454       67.98843122966007       57.79869119214235
H           70.55706648210892       69.06594824056890       56.67949803548159
H           69.77387278326620       68.57776676368005       58.18270065040872
H           68.62996374970804       68.23338646725723       55.31549555541051
H           67.87196637528150       67.98567944737860       56.88192611866820
H           68.12881340237647       65.77528899725071       54.80605681683377
H           67.84097788376678       65.00908028387462       57.16485769590709
H           66.40290799970323       66.01571460987269       57.30710698885216
H           66.42330369833687       64.65998684288010       56.17866548327352
H           65.70975214882345       67.47861268337616       55.48303161547692
H           65.75612554416647       66.11709127033443       54.36397431099664
H           66.95860553470871       68.87855103159474       53.99106655830203
H           67.46765958403974       66.36610022378424       52.34109062362299
H           67.80767371092342       68.00564540509548       51.78492848263392
H           68.68366093215636       67.34441256737443       53.16305348230257
H           65.17393710598824       67.21042763009905       52.19998269798761
H           65.59082145192197       68.90710931491458       51.99153706121382
H           63.88983393887597       67.79929517530954       54.25446343046271
H           64.35218863270819       70.67631508605102       53.34471983500213
H           63.30275412864908       70.16431361433595       54.66857532821716
H           65.04275680764052       69.94792949631858       54.79506908137861
H           62.93493988618900       67.49557715061471       51.98162393741085
H           63.11660084629080       69.21974925193761       51.68025581535070
H           61.45074140130803       69.73060219841186       53.40141649257826
H           60.40376560487439       67.54307354954955       51.55769863930762
H           59.54279053385457       68.98105238334927       52.11316115795201
H           60.88002581158388       69.14050571892116       50.98582297758561
H           61.87566681812139       67.85600792999158       54.95189163716068
H           61.34540046593310       66.70515676676341       53.72334569311546
H           59.04412692338945       67.69669655434936       53.86904988697148
H           59.74026381898284       65.63736024658994       55.05031734597891
H           60.23084737906019       66.59172362821124       56.44808050773340
H           58.53355276901682       66.51607980301732       55.98442939620195
H           59.89160025779373       69.91775832479223       54.87083758655324
H           60.11489836619558       69.03981795382205       56.37844140887622
H           57.60293754892396       68.42732080285340       56.17469681278220
H           58.51530699251207       71.28875085494971       56.68496925945527
H           56.96700744757274       70.62700286340909       57.20272256149106
H           58.46500822076037       69.97462288067172       57.86116608089566
H           57.57737536144070       69.32938098412103       53.71725140354380
H           57.52813213515776       70.91681033538363       54.45707524884434
H           55.51111011675954       69.53952434621024       55.82507168939676
H           55.38722327857099       71.85999105491943       55.01899008336331
H           55.25451911892128       71.29554440141344       53.35292908559108
H           53.96524451762330       70.95224016864431       54.51027851227428
H           55.40324451061933       68.79645569718816       52.88207492871599
H           54.07928375426865       68.59715987989877       54.02326661129098
H           56.76698066208091       67.20907826802191       54.32596045226204
H           55.59133656236261       65.77763404926759       55.92522632813202
H           55.36792068466895       67.45185511316701       56.41081379767446
H           54.06388973339266       66.59682751244068       55.59874854062167
H           55.55907822491159       66.65820804819204       52.21306024431561
H           54.18534845318065       66.11445516112538       53.15154191360016
H           56.73140499365932       64.85330114437066       53.99519402974452
H           54.09718343066298       63.66452078384471       53.03489558915190
H           55.37227274620437       62.81444355724192       53.91079762254058
H           54.45255844856093       64.09221904549835       54.70732224265553
H           55.72037611888724       64.53130182890111       51.15631535554959
H           56.70534466379006       63.30839820385285       51.94538663714447
H           57.73140902977115       66.12992731355926       52.00967629408773
H           58.82769497619514       64.20042123891852       53.19613636033905
H           59.14347896428127       63.46743284950415       51.62305892939986
H           59.87705459698811       65.01759478936521       52.04022901884421
H           57.77295392654753       64.31344941329318       49.57878930659254
H           58.96663297202115       65.58264099917396       49.82773309445863
H           55.97106152006110       66.10805117041407       49.67789054699988
H           56.73058846781209       68.46950390367655       49.31513726748054
H           57.20534395534801       67.86660643698495       50.89246558535861
H           58.39599579130343       67.95602761014977       49.59901519836037
H           57.08621966978109       65.13057440335062       47.58137020902132
H           58.08197128727002       66.57968325984822       47.54691076652906
H           55.92837848505486       67.93056566739470       47.43887389142929
H           55.69114960295755       67.48296189677276       44.98715927077004
H           57.37776020856050       67.55405381230092       45.49605758438133
H           56.61773685425423       65.99539295809438       45.19296584685027
H           54.73715530848040       65.40407897152203       47.91130262131355
H           54.40271370889816       65.74089317612663       46.21966139759518
H           53.74309376353465       67.58081584976598       48.55334593178056
H           54.15858292908366       68.87120151903021       46.48009895705383
H           53.04069707135260       67.83195682881306       45.59694046920455
H           52.44754387122278       68.87744132103745       46.88665956091029
H           51.97778600271258       65.88706894627225       46.74596883131445
H           51.37926900285274       67.03197373136516       47.94090350724013
H           52.92300133208764       64.48174131270957       48.56615238802751
H           53.42712751864123       66.16878285902972       50.26763125956522
H           51.72084748620865       66.60100514804878       50.39010664184174
H           52.27948056972477       65.01703667077830       50.93385740885245
H           50.02699777646335       65.22450824800482       49.11152609387881
H           50.83453456238732       63.71831617986039       49.54151644194361
H           50.15215215806586       64.68472954355751       46.74237293551901
H           51.63807158613589       62.15855094542827       47.56792013658357
H           51.03665829952428       62.53057903627711       45.94722098964530
H           52.30791108489536       63.51047104647202       46.65693203446828
H           48.82948970348522       62.99990740796719       48.74960755355296
H           49.10581303909541       62.10841222248566       47.26614837394548
H           46.89382751229346       63.16747876815245       47.41854218731696
H           47.54604993591285       65.21650150478662       48.63936120380085
H           48.32569475441463       65.84282324505583       47.18257970128284
H           46.58897839726339       65.56680683020306       47.19754198465654
H           48.66231198760028       64.18713466735056       45.16534788341365
H           46.91067885246197       64.33682365593425       45.18219430850146
H           48.49407247418230       61.73990873477976       45.08973840426182
H           46.49748346359907       61.28767696195550       46.40532197084094
H           45.49466367916131       62.24357497858172       45.31023734804197
H           46.17953164979854       60.71013601678147       44.77957374155234
H           48.24827404578613       63.29223350948138       43.03648999038703
H           46.52793294186166       62.94903254634756       43.12241668931831
H           47.33235050712823       60.41632702951411       43.03154668474608
H           47.03460942434899       60.49586747268773       40.58628894889983
H           45.91482743667642       61.60337086793840       41.36600655795816
H           47.36636522791418       62.22986786873813       40.58186528888083
H           49.73905530437197       60.98403486919861       43.20823224316943
H           49.62001981373631       61.94604814387881       41.73676377767530
H           49.12579446733144       59.89925606979130       40.42965080643540
H           51.41690902565315       60.83785121561526       40.70602211618404
H           51.68071294818601       59.76959085566396       42.08425884838602
H           51.45019735763753       59.09825685670058       40.46576844966963
H           48.16148623252272       58.56336436023831       42.33158655521117
H           49.77055354508104       58.46985670545037       43.03712922379385
H           50.51912709322136       57.21405999237420       40.97611826968041
H           48.25446696648194       55.97195574157392       42.59196381141982
H           49.58537470850211       55.10693704848751       41.81218640931633
H           49.91150860710015       56.18227809296508       43.16328206927013
H           48.76607736987045       57.94887413774491       39.42679345842593
H           47.51978337204748       57.26265217383011       40.46611163677799
H           48.39533079600457       54.97935284903981       39.97360227716051
H           46.48929645148520       55.95486103929331       38.76711094390988
H           47.57844483393656       56.69780893819430       37.59523466134564
H           47.43053750197599       54.94363963508401       37.67808144587940
H           50.74469777303462       55.85498171950969       39.30227907645614
H           50.00507022741000       56.31426103998731       37.77249853923296
H           49.26382368463245       53.82187161547071       37.60961797313850
H           51.47208311887228       53.17658079704724       36.68084782657087
H           51.03308675145728       54.81442842026915       36.19919048072931
H           52.21796517370976       54.55833862532111       37.48239451265231
H           64.18128040391882       59.26965278070004       59.00704004706981
H           63.66050993453909       57.78894165684915       59.81079290800903
C           45.18453854781578       52.08517964842009       42.61360275001985
C           46.55016717060909       51.39912336011317       42.58932257710306
C           47.48620453833684       52.14610565699688       41.64415957162205
C           46.37926282275249       49.93055982313052       42.18379723597591
C           47.63236608949032       49.04161711891260       42.25294041672257
C           47.25538660081986       47.64236611227243       41.76486881257929
C           48.19388915533249       49.01774183342062       43.67971801717884
C           49.29313245047165       47.99216648709994       43.98947396955938
C           49.59127164319244       48.06338063969930       45.48790082228629
C           50.58249276538364       48.21777359982166       43.17862202508400
C           51.20195155411631       46.94075505308869       42.59447805833967
C           51.41569102285104       45.85675899522493       43.65269534266178
C           52.56352571211908       47.22479266759873       41.94390198175406
C           52.61766180394802       48.26436833310676       40.81607737500233
C           51.64966871940972       47.92441537343428       39.68600272516621
C           54.06451778601306       48.31745619194522       40.29931692230682
C           54.46265916049479       49.57674210060248       39.51980482798204
C           55.82762884730299       49.36056629854987       38.86399688996817
C           54.46923385410319       50.85944986186471       40.36691736621719
C           55.36062620948586       50.83001406668219       41.62696354882649
C           54.50311459830128       51.01318262242445       42.87567046769290
C           56.45638241597764       51.90149423607023       41.53539433385212
C           57.33244104291676       52.09836812967644       42.78270612327511
C           58.36657063548593       53.18631138693844       42.49376647401854
C           58.01688870487487       50.79739523561948       43.21663495647623
C           58.67381985429854       50.82297218700624       44.60535138204684
C           59.53195368527475       49.56871901779216       44.76274305197189
C           57.61762047877013       50.89980920825879       45.71226507040561
C           58.14161327630038       51.19725303740690       47.12354111935419
C           56.96290275681940       51.15046357848637       48.09434376611432
C           58.85440808226819       52.55924063445491       47.20245080477940
C           60.38848568517899       52.46523345853379       47.23822105818147
C           60.85589710260430       52.09913075335515       48.64494689810889
C           60.99154662755806       53.79607451512145       46.77454374780426
C           62.52431131532242       53.87787897734406       46.71915521607006
C           62.91354280907426       55.31253164070183       46.36568665490282
C           63.09590734035756       52.88446252663081       45.70093740902600
C           64.62798243482882       52.83786596165120       45.61655264914197
C           65.03911240197503       52.07334970779927       44.35724148130723
C           65.26946703770757       52.20498373538921       46.86770044612138
C           66.31735461200338       53.08802208633167       47.55602224932697
C           67.46843129963089       53.42776878851888       46.60658750454581
C           66.92163567958686       52.40919445251758       48.79574294880668
C           65.96141257488756       51.98686986970705       49.91409949257436
C           65.06377493904590       53.14280503122289       50.35377548709278
C           66.74467049275911       51.48927564795259       51.14082215044621
C           67.65892929613305       50.27524510793071       50.93402359521230
C           66.85056988460626       49.03432372153985       50.55952464601369
C           68.45753114934311       49.97273637701670       52.21175853807779
C           69.58096008211986       50.95615417037254       52.55832305598958
C           70.70071436769199       50.90677675099064       51.51793736448461
C           70.17881728807349       50.64194629818026       53.93914556744723
C           69.23491037483981       50.80083242310491       55.13618298832157
C           68.69253637659865       52.22574510057392       55.22658922464274
C           69.94877618271086       50.46405075559101       56.45267393851753
C           70.42911569198503       49.02015407320843       56.64166631438381
C           69.33312804201711       48.01029349554726       56.30577643215963
C           70.86525974615969       48.79299533474764       58.09883022732576
C           72.02079205809396       49.66490317352648       58.60531222195041
C           73.29460315370551       49.38134095417433       57.81449065801807
C           72.22649966769617       49.42245906968122       60.10888980430627
C           73.20418987862739       50.40841499825164       60.77881026902132
C           74.51851895087172       49.70908283089911       61.13405368897200
C           72.63448561008090       51.03938294184513       62.05975937124347
C           71.38757355037714       51.91606546447599       61.89101734325482
C           71.63358651086169       53.04263462660372       60.88814052013153
C           70.95155998728384       52.54659503234353       63.22600303665844
C           70.75953278301891       51.58790399819181       64.40647215066269
C           69.78755148284809       50.46427957396412       64.04820106245135
C           70.20567551304237       52.30945232842334       65.64674541247068
C           70.96844824780356       53.54360499803528       66.14113171618914
C           72.46076001287295       53.26040191311349       66.31898267009689
C           70.41677225544163       54.03542652580789       67.49084202718046
C           68.90496033760644       54.27885848625813       67.58193589231816
C           68.43179085670583       55.30553629391174       66.55833634133911
C           68.53371672557503       54.74858636821264       69.00081747094764
C           67.16329128156549       54.24515564289432       69.48427720369149
C           66.62801502131904       55.16143584696901       70.58251143844109
C           67.30505047352703       52.80150921237028       69.98179649356828
C           66.02944104854991       52.08051237256351       70.44604667479116
C           66.43651073092188       50.70558660258914       70.97637692432015
C           65.01160782961952       51.97230463361259       69.30529296226020
C           63.75397833300249       51.12843137264525       69.56937320073857
C           62.89103590503127       51.16134471747181       68.30976563909216
C           62.97040214927650       51.63544368925636       70.78564616283113
C           61.64341965639633       50.91517772053216       71.06829174197864
C           60.98059491012907       51.52531368744523       72.30427233343228
C           61.77625671775063       49.39195357862403       71.20472311267037
C           62.66135231874905       48.90388730552294       72.34851180469671
C           62.74094205068599       47.38138126051025       72.37129846727667
H           44.72848487175684       52.06526030232433       41.62530723964294
H           44.51285948506332       51.58265858670089       43.30734499182732
H           45.28425019890658       53.12286486453894       42.92422958377735
H           63.36516178971979       47.04015029207122       73.19450544492845
H           61.75012594987200       46.94729743725021       72.49090632217774
H           63.16652787337156       47.00572611936141       71.44291036425751
H           60.77365850125442       48.98028103383584       71.34756744353945
H           62.15889108153225       48.98330968135728       70.26750111402229
H           63.59793608592916       51.56513840576697       71.67581920853621
H           62.74870948117495       52.69509608637651       70.63077906424742
H           64.06236164000953       50.09446107591784       69.74772948236219
H           62.02732563928726       50.51066962274481       68.40252337025815
H           62.54357044359678       52.17386012201880       68.11691073920863
H           63.46714275594286       50.83092570075703       67.45035832210179
H           64.68922831973559       52.97961636366567       69.03315532338222
H           65.52162514994539       51.54511721799710       68.43703633761781
H           67.75845014217415       52.20419848146199       69.18633650345525
H           68.00943741478747       52.80730908452061       70.81953684489274
H           60.96800522191413       51.09411534283748       70.22395366923342
H           60.72471375303783       52.56735214541223       72.12318945530522
H           60.06624541568134       50.98937496534703       72.55029023552497