3795
 energy: -5103.659650289294 gnorm: 0.000886237653 xtb: 6.6.1 (8d0f1dd)
C          105.06655092135463      124.61383359142673      124.04417901196885
C          105.00044090341559      123.87945656330797      122.72991575384168
C          106.37681823557391      124.42146615524281      124.80891449276504
C          107.55995706124864      125.18840784857632      124.22045680777205
H          106.22084874845184      124.75854321707455      125.83489245665290
H          106.61103364993292      123.35674075419351      124.83659566009236
C          107.95896186686323      124.69993059785973      122.82790399991464
H          107.33160940717522      126.25508582860226      124.17847827957981
H          108.41247235776012      125.06329455905697      124.89136166461314
C          109.31868342686785      125.23337099739484      122.40835636252386
H          107.97914012477158      123.61015977830004      122.79968710669587
H          107.22410088939976      125.04215691856578      122.09432857427409
N          110.05493574473188      124.35459317003183      121.72290260315386
O          105.51785437835797      122.67701720102004      122.76583734390691
O          104.47650595262716      124.35005084669874      121.73405135804043
H          105.47525285639898      122.21051774148894      121.86984250000268
H          104.24740535420048      124.19518552029197      124.63872828014186
H          104.85760745992253      125.66979295399335      123.86879724970913
C          111.37348302010300      124.63850694073221      121.20427392814749
H          109.68950795671688      123.42126068486976      121.54605554267854
C          111.44421909520790      124.45271051730880      119.68939653691966
H          111.61314058105023      125.66793017740547      121.47605094279284
H          112.09723589302030      123.97663452228295      121.69014714562520
C          110.47748599875158      125.38011020443923      118.95122245182971
H          112.46719737110398      124.66388184912829      119.37501764607477
H          111.21769899453500      123.41389066406111      119.44682077875632
C          110.76635805231437      125.41919220165634      117.45246404084121
H          109.44973057311861      125.05215361850921      119.12303421663803
H          110.57803016898242      126.38287722515857      119.37039199529715
C          109.86390911585005      126.36881864683330      116.66443391042829
H          111.80499831814807      125.71527088149652      117.29416870968873
H          110.64540749646085      124.41415411775691      117.04502590179246
C          110.11300771846885      127.85438494095625      116.95775262314487
H          110.04362367765860      126.19885934347693      115.60237111992762
H          108.81558963617594      126.13823498972093      116.86598603082506
N          109.27105716023016      128.35794619392865      118.01959319877581
H          111.16382585954334      128.02134965294047      117.21437974540767
H          109.87073492358824      128.46010769017585      116.08308677784845
C          108.38765826720388      129.35455319809677      117.86258223397300
H          109.32296534985393      127.89559288634176      118.91247096934322
O          109.70965250771751      126.36739069618757      122.68586843728730
C          107.53272072542909      129.64042414720225      119.08861048713395
C          106.86945328841180      128.39530696457388      119.68339314748603
H          108.16478971688068      130.11608049655669      119.84191418993959
H          106.77017929378498      130.35985383725495      118.78647857028164
C          106.04398768060813      127.63290580084264      118.64952008298397
H          107.62104144332108      127.72858783334053      120.11350012654025
H          106.21870032951632      128.70820049790848      120.50266520667647
C          105.45122002881156      126.35723311097533      119.23858828299794
H          105.23685505242200      128.26920058228771      118.28169687669657
H          106.66598390281710      127.37739325862604      117.78970478212975
C          104.61263414638402      125.58158456599782      118.23523834725211
H          106.25419727614532      125.70046696986213      119.58572612366770
H          104.82910463918333      126.58627514027279      120.10547527613151
N          103.91240625231306      124.58245286877064      118.77672215096885
C          103.04181332017994      123.71847222856429      118.00634347746990
H          103.97102506973341      124.42132729669281      119.77455464478849
O          108.28065666820125      129.99825465856409      116.82723151996268
C          102.86884412368310      122.36100979740981      118.67742623538798
H          102.06387390745718      124.20184593568951      117.88226842822307
H          103.48585855736026      123.61131678111764      117.01194350202657
C          101.96353229922696      122.42973446365811      119.90595319581260
H          102.44697102604830      121.66682426172873      117.94830078900662
H          103.84339156002166      121.98254744978902      118.98609921342864
C          101.81109666799566      121.05816176513102      120.56176087909977
H          102.38730493531774      123.13035327347163      120.62655471295898
H          100.98049327797433      122.81302625799653      119.61768448986005
C          100.77388076617670      121.05286931008291      121.68479984771869
H          101.50717572999228      120.33579335636138      119.80076195961236
H          102.77823892019424      120.74300126200909      120.95574098488829
C          101.25267892330039      121.74085343820698      122.95823703681718
N          102.16416504575166      120.88538637141413      123.68905231033713
H          101.76138711686464      122.68511079523938      122.74073274926168
H          100.39454576693271      121.97936551517222      123.60121541342160
C          102.87804801047676      121.29882552847710      124.73693208414309
H          102.16074631142567      119.89821782725726      123.45480297677258
O          104.60095250142130      125.83217399354888      117.03160685633394
C          103.66527146061175      120.19132829331295      125.41710422668160
C          104.86186930910232      119.74439347930893      124.57296469098291
H          103.99549431529880      120.56221787399660      126.38753753186157
H          102.99295366598982      119.34422522252488      125.56289797463928
C          105.44924999155614      118.41534900294776      125.04712456432613
H          104.53266032743325      119.61856262340788      123.54046423149553
H          105.62074769939848      120.52765356007572      124.58602930250134
C          105.97280371044428      118.44630696143153      126.48757805641227
H          104.68165745698190      117.64310134132469      124.96049776080423
H          106.27793912601172      118.14067974278161      124.39247543925406
C          106.66694174660225      117.13382806822983      126.80127534636850
H          106.70234844273780      119.25252146285540      126.58219932074259
H          105.16078199873157      118.62796935138384      127.18934923481636
N          106.08938812138130      116.38849342754585      127.74824554701534
C          106.54432251450170      115.06869837797859      128.13362422737546
H          105.29457564866195      116.74712422625966      128.25431804777051
H           99.86613214241908      121.55164397237868      121.34175104562793
H          100.51874571168192      120.02233113835197      121.93918701631883
O          102.88948055578190      122.46578047865749      125.13044854142802
O          107.67470713452593      116.77285414831057      126.19866281025199
C          105.37635965165325      114.08125525362701      128.14946162808991
H          107.30469566793997      114.77222308135525      127.40922762320172
H          107.00550271186486      115.12073658302840      129.12658759859866
C          104.68424083792573      113.95020387154175      126.78961403107385
H          105.74829762311995      113.10862763233935      128.47216897980209
H          104.65270932162099      114.42112476093010      128.89303965091568
C          105.43617217191398      113.04840656505088      125.81167931860631
H          103.68205592439007      113.54541937299591      126.93919125487480
H          104.57660538700082      114.94277430133673      126.34764746955713
C          104.81227505439318      113.11009583768258      124.41971868028926
H          106.47976966830237      113.35975741203680      125.74764035566913
H          105.41458048648221      112.02089776770069      126.17893309232947
C          105.42304180650812      112.09104229094005      123.46071709110231
H          103.73808953054015      112.92952998513694      124.48830749995452
H          104.95965947416205      114.11244894318472      124.01235098051821
N          105.05591985932257      112.41215183303618      122.09722651024717
H          106.51446663105729      112.09943320961214      123.52065750981353
H          105.08765229701649      111.07970367918531      123.71189986239538
C          105.89594193229810      112.30052826295163      121.06408424481637
H          104.10679903511416      112.74474930614960      121.95934331815427
C          105.36112996621773      112.82366990435473      119.74272759004077
C          106.50656812601061      113.29775069496988      118.84706659705671
H          104.80743591867683      112.02695311469031      119.24136250244405
H          104.66969665472361      113.64340524641676      119.94040259820017
C          106.00665940645577      114.10550587840831      117.65366749983576
H          107.18962374124493      113.91058794369070      119.43917063338095
H          107.07398423540978      112.43205812009727      118.50117791042629
C          107.15607898455201      114.49043360099905      116.72032488713330
H          105.25405422459454      113.53858617202090      117.10618434741689
H          105.53424278546760      115.01908491068970      118.02074879421829
C          107.86044617698619      113.29104323512098      116.12108599878380
H          106.78422096235384      115.09029561180147      115.88758515084973
H          107.89414674998578      115.08007764802844      117.26408306281479
N          107.07779240292957      112.47227874241902      115.41737891546124
C          107.61253130951043      111.31208216581061      114.73508911770321
H          106.09565686163197      112.68407264789597      115.29610663269173
O          107.03345584374735      111.84755291489988      121.17363551637551
C          106.52623920172432      110.40701298292863      114.17288271877470
H          108.25448401131501      111.65935706349879      113.91619979319145
H          108.24331162772994      110.75880966354973      115.43936546462287
C          105.85211884010178      109.49241724063918      115.19347414603564
H          105.76666442159332      111.02508232550001      113.69107400484872
H          106.98114036685047      109.76920030971253      113.41308912241469
C          105.01173067976728      110.24636849994523      116.22289276210421
H          105.22284276742947      108.80197903097452      114.63058256216846
H          106.61456184157920      108.89932892635728      115.70386133259285
C          104.02187405023615      109.34379920211468      116.95902207163074
H          105.67585813837921      110.70826541149198      116.95490075245466
H          104.45371327919283      111.04269685670728      115.73126322710647
C          102.83228041713447      108.94660273242381      116.09070763835462
H          104.52242989955066      108.43389795384827      117.29351999525045
H          103.65020595610589      109.86592142984320      117.84233858699743
N          102.00620225610558      107.97425309917325      116.77733682532894
H          102.20829422564883      109.81494200260232      115.86411767207304
H          103.18036740088054      108.52867689453923      115.13891956308024
O          109.07117273861473      113.09504588100739      116.25347490693881
C          100.68202898238896      107.88866314064936      116.62871123223452
H          102.48763169897364      107.25749933355995      117.31532448939390
C          100.03654429691898      106.75334695893361      117.40020808512237
C           99.56677531048047      105.66218087411650      116.43286415819337
H          100.74910522519720      106.33320489071855      118.10926772583436
H           99.17208967924931      107.14261732878933      117.94024383497359
C          100.70808742512834      105.13726830693683      115.56541195448804
H           99.14083974899172      104.83251625421744      116.99977329293648
H           98.78407942601397      106.06889822061096      115.78785844359874
C          100.28169318234194      103.91942155304224      114.73647745811293
H          101.03752367737792      105.92869119775135      114.88708735764827
H          101.55319020061889      104.86458135099916      116.20195289322785
C          100.27557248152488      102.65476177570808      115.57820220991140
H           99.27174703929366      104.08162581164447      114.35488840456030
H          100.95979407920991      103.77719167085299      113.89569511496887
N          101.28167709793533      101.81591380796979      115.30728119047215
O          100.03310079783701      108.66062167987650      115.92390284528659
C          101.38381725398725      100.49896711120842      115.90646989103966
H          101.87599105918935      102.00632623475423      114.50329864905443
C          102.68904499859327       99.81904832485164      115.51157763051764
H          101.30570012627324      100.60699941559888      116.99314261759658
H          100.52992132489631       99.89204977082227      115.57817357558480
C          103.90118200552364      100.35468564495038      116.27295667018194
H          102.59306707328653       98.74884647280108      115.69877863257585
H          102.83922200133216       99.96102789275534      114.43930056270688
C          105.19384193922494       99.73317615968048      115.74311421655332
H          103.93959335796022      101.43945336713777      116.17007822486235
H          103.78739869950988      100.11954564574305      117.33299501391264
C          106.40075556256249       99.93323622433076      116.65854679829471
H          105.03847645952837       98.65974990520863      115.62040826283337
H          105.41413192655293      100.15269442849234      114.76051766630337
C          106.78708720777254      101.40051830797606      116.82775786544876
H          106.19186961534645       99.50207727930795      117.63939934344685
H          107.25350685197408       99.40489340495228      116.22632380285464
N          108.02605315198554      101.52366027908029      117.56950673931046
H          106.90934311811900      101.86256486033076      115.84007097409024
H          106.01336780285847      101.94488105997779      117.37123675474948
C          108.26715810699052      102.44363543079083      118.50463102062631
H          108.81998303753289      100.99492877924847      117.20645316903695
O           99.43504380757085      102.43299755722771      116.44864366416671
C          109.68757764603396      102.42664698388202      119.04102987796909
C          109.79973157712897      101.71073035715601      120.39430883057304
H          110.33359552334835      101.93229748037800      118.31510940007972
H          110.01830757070132      103.46073874930534      119.16309546577048
C          111.26997221613458      101.45758412595602      120.73687499679460
H          109.33985830156362      102.32832347424949      121.16768739124430
H          109.25901706480755      100.76345544333091      120.35563341619964
C          111.52298994204057      101.17096373636006      122.21840500349195
H          111.65528773688405      100.64782757697904      120.11442561703034
H          111.84222048744002      102.35276375125474      120.48332666603407
C          110.87685358017180       99.93003413332347      122.80035483241166
H          112.60250308163407      101.07311885095214      122.37691667858648
H          111.18080891641259      102.01768752968225      122.81737709024908
N          110.85441153730898       98.84227867734056      122.04032730673482
C          110.31739290816404       97.56971693850149      122.48176614994108
H          111.33660032515401       98.83344892425851      121.14565356877547
O          107.41715420037501      103.23690626971550      118.91431888971837
C          109.68188340888865       96.82032906302364      121.31631182404846
H          111.12849870400120       96.96508005487919      122.90335314064976
H          109.59387763832459       97.77535946312494      123.27400590552992
C          108.42477425131760       97.51349415421511      120.79733243643410
H          110.42517218516143       96.75839784361239      120.52307763472641
H          109.43684078068475       95.80861688612971      121.63979348022406
C          107.85559655022628       96.86698262228809      119.53221751593995
H          107.65800063582989       97.48857483932063      121.57466344954088
H          108.65031030145882       98.56248883763845      120.60086407444393
C          108.83461810447206       96.78348262041192      118.35667147090322
H          107.51797483230962       95.85688423331246      119.76924888963029
H          106.98245284358512       97.44396661462338      119.22223178010401
C          109.50924935167276       98.11686868974041      118.06607365604225
H          109.59930132838511       96.03195945535457      118.55654006578904
H          108.28616763749925       96.46420901671294      117.46904989259288
N          110.33617291182522       98.04200585660674      116.87694178265700
H          108.76107204520726       98.89865588891142      117.91981525056303
H          110.15224877343414       98.41216432227077      118.90172919468398
C          110.80854246226382       99.12614291706325      116.25288556938963
H          110.73910086322259       97.14157888451047      116.64387713394355
O          110.41934241927328       99.93514097710796      123.95238636801697
C          111.97282483320815       98.84602831759409      115.32986720295608
C          113.23778130552360       98.87547159343208      116.19760694179458
H          111.86540631143706       97.85682970439088      114.88405560231169
H          112.02793845462651       99.60454926142910      114.54903573159703
C          114.49157390253517       98.41848594826216      115.45546055400897
H          113.39032165443987       99.88915757868232      116.56938237203826
H          113.08767926590434       98.22162963533275      117.06126517967878
C          114.94894267143978       99.36929466712249      114.34800422533652
H          115.30540937977308       98.30602826065849      116.17767255488189
H          114.30227609948027       97.43577505602427      115.01567222603308
C          115.39983197556747      100.73906149961928      114.83141113177332
H          115.76932625797582       98.91087240317260      113.79344734715252
H          114.12427690023239       99.54624534315305      113.65316833096425
N          116.49635483177316      101.19636943859122      114.21656738112479
O          110.35957815257669      100.25647296461858      116.44717344050461
C          117.03411735732523      102.52116769924702      114.42656809157441
H          117.10913708169251      100.56532735867614      113.71458624013611
C          117.66595601273235      103.03434796263335      113.13949047638586
H          116.21079735924687      103.16549870101599      114.74531647099901
H          117.78622362589034      102.49893997102257      115.22598633354343
C          118.32630661334258      104.39351056240389      113.34051246564205
H          118.40703771835830      102.30136586815843      112.81279291133170
H          116.89469368941829      103.11638510045580      112.37373276406542
C          119.08510448759068      104.83104998456984      112.09061636848591
H          117.55233973035210      105.12476159279966      113.57214314445062
H          118.99958548636666      104.34139813617102      114.19494764658182
C          119.96707318306001      106.05929786564685      112.30907396285032
H          119.70869613198393      104.00610359366232      111.74426646990864
H          118.35890350346649      105.04738108039483      111.30648592832657
C          121.17933247175215      105.76224122015974      113.19504048296729
H          120.31937398418661      106.40600418176142      111.33451921103749
H          119.38164370227581      106.85748455781420      112.76694433530784
N          122.04690945291624      106.91996291733182      113.22869190461445
H          120.85286511164651      105.52938415125722      114.20753175164761
H          121.72394262644234      104.89748103191720      112.79585782407624
C          122.75577484399840      107.44659829294940      114.23147900399321
H          122.07302937420557      107.45331303004180      112.36727709612795
O          114.78655358849605      101.41241357142732      115.65772481750966
C          122.91196484011266      106.66293108460246      115.51153409567455
C          124.01338493318292      105.60871381837291      115.32343028399784
H          123.22518415782010      107.36584380108049      116.28649204829455
H          121.97224915029784      106.20092127652617      115.81222005698893
C          124.54931971190652      105.11056212826055      116.66149369741937
H          123.63126868487794      104.76985312760627      114.73937388107657
H          124.83950137777748      106.05559795637626      114.76452397635322
C          125.64853983218593      104.05904017261250      116.49218148547403
H          124.95909738358105      105.95358407450247      117.22226158386613
H          123.74114402303761      104.68362826007467      117.25858306338566
C          126.24631496188806      103.74475478876329      117.84913668899863
H          125.26583405054775      103.15290103693941      116.02553393513156
H          126.43759438782270      104.46969082259336      115.85805412745398
N          126.20442157854404      102.46934490232412      118.22778050637228
C          126.70374961342667      102.04062528103380      119.52110933008407
H          125.80144469724063      101.76644639501153      117.60919030439861
O          123.31421292572952      108.53585760016298      114.07933906272848
C          126.16620057487337      100.67248298396674      119.92159998366355
H          127.79986478969708      102.01433611153735      119.50044631152166
H          126.41333871644039      102.79740285610350      120.25850776931830
C          126.78448822993050       99.52355822314999      119.12755471912109
H          126.38022056160406      100.52571921911182      120.98173767684264
H          125.08467540952358      100.66298637914900      119.78482508092200
C          126.45405729902326       98.15359565107170      119.72403403870328
H          126.44192780304111       99.56786277625869      118.09355681745916
H          127.87066806028976       99.63719266735711      119.13112150766023
C          124.95764555934849       97.84986145023855      119.83022777002768
H          126.92256403285489       97.38644758818613      119.10323789719915
H          126.89465515225231       98.08043825048703      120.72053042110507
C          124.75180525268533       96.37482461097423      120.17378453339735
H          124.50273433395239       98.46058150213635      120.61000615400121
H          124.45347594493869       98.07731969986519      118.88980408629148
N          123.36156346995969       95.99754800295707      120.31151403007324
H          125.20402791576446       95.75233970469326      119.39251239057060
H          125.23318347591096       96.13880943415950      121.12620481795506
C          122.86092233325778       95.40681638444131      121.40776354469233
H          122.74719246731247       96.16497748804171      119.52415630533817
O          126.72218401613912      104.63220398438371      118.56031841351029
C          121.42760862476047       94.92696838135338      121.26956960149380
C          120.48360066687684       95.65973257932086      122.22281892044207
H          121.08414273343458       95.07157979183461      120.24778069441800
H          121.41628378893337       93.85981912368996      121.50182465287527
C          119.04205377016980       95.20280051839212      122.01685958941273
H          120.79830655207664       95.48282145644679      123.25331583062879
H          120.54434348133194       96.73286407682492      122.03348395587771
C          118.06811026920786       96.02743360169424      122.85553718219923
H          118.77384520412672       95.32036163398926      120.96515937697671
H          118.94453056541296       94.14536734010696      122.27158541140969
C          116.62454341303101       95.73369121811301      122.49535358589208
H          118.24274419430844       95.85272779570306      123.91742873843836
H          118.25378532923123       97.08530119061199      122.64648159109984
N          115.77180891309794       95.73208534205048      123.52842802822882
O          123.51550856491960       95.23208346299556      122.43174372685840
C          114.35200718531470       95.45856099010162      123.40100248851903
H          116.11394572610708       95.91763083582462      124.45828937535225
C          113.78955584918238       94.87821924546418      124.69608201691618
H          113.82122831577217       96.37749878601210      123.12735703020735
H          114.23369793713950       94.74575734558358      122.58084969529757
C          113.61523164451596       95.90901780664198      125.81616171226317
H          112.81961691431017       94.42984256313376      124.47890335155977
H          114.45452039128726       94.08161504974012      125.03408379653470
C          112.45218009607146       96.86645910021068      125.55487160876756
H          113.41817749459817       95.37516218168936      126.74705399336608
H          114.53781751052507       96.47535401436322      125.95479866595933
C          112.09392881756143       97.74240625529642      126.75384675677982
H          112.68015296116015       97.51912197461915      124.70856953007356
H          111.57062653742088       96.27812873463940      125.29336451130074
C          113.16707415920931       98.77426867461556      127.09285273941664
H          111.17400893927488       98.28420975243127      126.52356914016471
H          111.90864130944131       97.12421315515186      127.63235973229874
N          112.70303266854974       99.62586589641603      128.17878264635735
H          114.08043732064749       98.27778273603951      127.43284829086844
H          113.39975420175921       99.34400642352186      126.17561803516820
H          113.42632828554743      100.28607412736037      128.44099220605861
H          111.90049306390972      100.15842765842164      127.85886192042085
O          116.25521020978567       95.53356484975599      121.34201853147296
C          130.18765352804380      113.27582661514276      103.19073908847889
C          129.89240320241487      113.92405216055219      104.52477545585153
C          129.96252064030392      111.76041868572025      103.27056464879018
C          128.58590921903871      111.43671794026221      103.84471558550931
H          130.05391275355652      111.33494195962082      102.26983599491996
H          130.73431605761883      111.31316279304743      103.89939514936496
C          128.22119707705448      109.95664724501438      103.71345409401073
H          128.57001506538805      111.70810944347478      104.90226409423263
H          127.82795244089289      112.04305164931924      103.34371100280158
C          127.89828977771882      109.60405152079640      102.27039544327363
H          129.05558655183188      109.33864178428608      104.04603264873089
H          127.34961072024248      109.75399873384399      104.33569521470456
N          126.68746306021995      110.01165907101077      101.87305141255244
O          130.80236654442521      113.66277478247291      105.44156195112895
O          128.91273908938848      114.60523000342023      104.73794323518331
H          130.56928903170470      114.06769225378294      106.33965154119365
H          131.22402924889232      113.47879335231976      102.92194795458693
H          129.52241080110991      113.71409107986929      102.44687792988719
C          126.18789741709585      109.86017909090883      100.52374077279576
H          126.11485138894722      110.56224197102530      102.50282955271305
C          125.47408138344646      111.12496819847063      100.05575807797783
H          127.04092798998371      109.62252249244118       99.88200016362896
H          125.48772801234861      109.01622244818982      100.49153988622503
C          126.42690114430903      112.31294600504137       99.94435775912386
H          125.01858877926396      110.92950828431154       99.08381917744872
H          124.67687384292613      111.34959552557606      100.76556284440602
C          125.74886086656676      113.59248332197357       99.44898527477133
H          126.89171652921857      112.49500018168558      100.91462120831912
H          127.22872520347944      112.05806710804630       99.24646768190611
C          124.58918840111697      114.08725792901285      100.31518469481888
H          126.50450515366190      114.37950003102820       99.39107908320047
H          125.37183836536634      113.42147760065457       98.43856225377526
C          124.99589748513823      114.36730160168123      101.75668811586158
H          124.18786750922256      115.00336393837186       99.87643100390912
H          123.78309357862038      113.35268142452071      100.32490410544875
N          123.84858353321992      114.77547814332728      102.53718305652679
H          125.41519249561625      113.46119781770552      102.20906254288400
H          125.75057080459355      115.15744880814067      101.81494875291409