3864
 energy: -5104.231043076519 gnorm: 0.000984607113 xtb: 6.6.1 (8d0f1dd)
C           38.13962251739436       66.30019853141060       54.05638707417317
C           37.53197154068824       66.64099534392035       52.85322931067369
C           36.34992673804892       67.36945726028637       52.89714935233909
C           35.78293469298407       67.73970986523705       54.10416975467210
C           36.39618029060117       67.38916898601687       55.29394909615826
C           37.57856125713815       66.66996937546814       55.26467977194842
C           38.13589042960281       66.24622738841336       51.52802109594795
C           39.45616251122139       66.98791869581476       51.30479745717862
C           38.33642668576677       64.72863826229609       51.43724352148843
C           37.00716236371677       63.97640404479175       51.58659308788548
C           36.14075914516089       64.18662549713763       50.37136202902597
C           36.51139018285897       63.68405617313708       49.12914718320647
C           35.70872628483088       63.86789521413409       48.01866908464449
C           34.51884382861772       64.56651767568843       48.13162321963588
C           34.14186122055238       65.08118671499048       49.35984680908047
C           34.94721743491235       64.89000813797516       50.46943988727043
C           37.23333719919949       62.48293409012586       51.85565269208581
C           35.90267898947301       61.75884689215940       52.09622948529348
C           35.16234295322390       62.36572590464775       53.26368797520125
C           35.72216781634358       62.39224967354784       54.53609484030088
C           35.02871105544354       62.92391288276723       55.60695295630871
C           33.75923020806145       63.44414186228166       55.42324564016185
C           33.18682497929102       63.41886203804727       54.16349257851746
C           33.88284524987070       62.87936762756555       53.09570129464242
C           36.09211485539627       60.25930645190164       52.36953252553837
C           36.41957958379092       59.39771314605242       51.13800326236043
C           36.99115900400698       58.08577999651789       51.61429963592417
C           36.29885973703510       57.28738739542567       52.51843553820729
C           36.87837427628340       56.15095731000736       53.05261314809413
C           38.15730369873709       55.78189404960897       52.67342079230401
C           38.83628950352256       56.53799646026966       51.73372650440388
C           38.25814045151314       57.68180026595473       51.21428021609822
C           35.17790112818116       59.21303564217634       50.25790947975525
C           35.44537154803962       58.42108210878420       48.95931691922199
C           34.75012031468825       59.10221076682551       47.80737005069395
C           35.49034734723918       59.71417704685543       46.80430372341944
C           34.86454268386543       60.37417386410969       45.76206475866209
C           33.48360632955652       60.43054577127546       45.70265686270282
C           32.73424751073794       59.82740668950209       46.69886879425231
C           33.36293963882117       59.17386736213174       47.74292233226991
C           35.01041854606868       56.95705148626286       49.10851917156381
C           35.12014537154113       56.15553522780136       47.80221348935860
C           36.52823233414020       56.17496244273469       47.26960667306194
C           36.80079003403105       56.79477380187554       46.05593060498918
C           38.09166523909719       56.85676416751470       45.56386066928642
C           39.13064760381486       56.28537977821529       46.27687966940526
C           38.87038387957735       55.65326614611846       47.47951911437909
C           37.57991557358125       55.60430119523711       47.97461756300854
C           34.59553611489031       54.73040303354193       48.03259653547627
C           34.64514616639190       53.83749926120861       46.78318278601527
C           34.14650261261392       54.54959115465029       45.55156934633894
C           32.87002991571911       55.09783536960167       45.49975796377100
C           32.41403430613894       55.72274206971379       44.35316067640762
C           33.22699053908929       55.80587810891232       43.23558261103818
C           34.49886536976845       55.26264018723348       43.27421195009250
C           34.95209725858200       54.63999439339084       44.42377697529161
C           33.81239149564939       52.55800154022322       46.98794364199710
C           34.52449496945574       51.47737072501104       47.81848648834146
C           35.65860900842991       50.89176694945086       47.01652704416506
C           36.97405402211025       51.20888657579922       47.32902614386128
C           38.02611384198285       50.68262570557614       46.60004326235904
C           37.77428787238514       49.83618548499442       45.53575073837393
C           36.46656375572839       49.52899129833440       45.19835358717860
C           35.41983763104406       50.05186495449868       45.93418619229961
C           33.49678134063867       50.42102446294802       48.25994469007705
C           34.10668514214894       49.14001132542145       48.85225874823085
C           33.00911525762340       48.14862532236901       49.14409761490828
C           32.91547020810499       46.97476602570617       48.40741030499081
C           31.91562407872509       46.05250495958346       48.66116809664467
C           30.98814312347357       46.29181268128817       49.66021785722420
C           31.06841747593316       47.45968324644230       50.39986531037159
C           32.06901753843000       48.37891839698445       50.14211227181732
C           34.95023312249305       49.42318391794333       50.10105314541516
C           35.46655919045938       48.13739019219934       50.76578882693917
C           36.10683171025551       47.21232582584278       49.75806114412691
C           35.78988706261190       45.86005785563039       49.74262015259771
C           36.39920511837230       44.99568038020337       48.84946074665832
C           37.35246589966196       45.46730947071822       47.96322261112687
C           37.66700283649283       46.81487827445019       47.95969726129642
C           37.04579108077253       47.67703799514732       48.84381999243340
C           36.50622041205102       48.44225179960851       51.85962983379051
C           35.94882980679922       49.19807694907374       53.07975997402580
C           35.41556526385995       48.24315000481960       54.11774434107361
C           34.05077039345649       48.15776381512654       54.36019857032511
C           33.55218071011446       47.30745111093605       55.33207990927586
C           34.41573098158839       46.53123456156670       56.08534872321950
C           35.77776277361264       46.59704610376597       55.84590235613171
C           36.26938143179782       47.43787208301384       54.86485591877506
C           37.02266964022161       50.11638665435306       53.68054112344680
C           36.46932681294386       51.04490357933477       54.77461254250043
C           35.33553494982998       51.87212265060625       54.22675582294261
C           35.53776551632973       52.77875709836003       53.19146783267908
C           34.48491855986521       53.50697936096952       52.66823661324438
C           33.20639304878960       53.34207461797298       53.17377760042307
C           32.99079116126101       52.44217836678288       54.20396160943834
C           34.04666572003505       51.71200182040874       54.72222165151226
C           37.61348878434071       51.90241087728226       55.33695236346114
C           37.32255313770300       52.53982798778983       56.70620287787604
C           38.62683812331105       52.77544443646950       57.42899662191498
C           38.89306545304836       52.14877227067831       58.63943740398668
C           40.10038498646148       52.34254255204199       59.29120816213297
C           41.06943101847072       53.15391138848265       58.72622327920347
C           40.81506148269316       53.77898301896946       57.51739968151706
C           39.60347874453725       53.59752605140346       56.87849782690941
C           36.51853700374353       53.84226145766134       56.59254059232676
C           36.09652681380322       54.35789711633196       57.97430511263868
C           35.29957866218714       53.31567264639413       58.72127425413075
C           35.72207636780013       52.86693512594874       59.96671459167531
C           35.00270542102629       51.91140314911831       60.66259218418593
C           33.83855505633206       51.39189779879402       60.12375509862738
C           33.40164213580508       51.83733583386375       58.88714581147271
C           34.12495322869655       52.79079585374338       58.19396632057393
C           35.26343540871034       55.64837959050423       57.89340258226561
C           36.03170473346090       56.90940664762169       57.46210413411360
C           35.04300211945763       58.02234612108923       57.20841055404339
C           34.90306006032553       58.56785937504559       55.93835750066717
C           33.99472646256231       59.58335564857357       55.69687850520647
C           33.20930723937630       60.07346273826681       56.72470328148673
C           33.33803558843160       59.53828786514752       57.99462323536414
C           34.24541759147917       58.52163652082955       58.23192384450791
C           37.07086022419275       57.34009141296535       58.50454048438876
C           37.89367861704172       58.55195268374649       58.04260969257276
C           38.65024370591232       58.23447935364887       56.77878557015929
C           38.40112546299392       58.95286985887161       55.61582264986927
C           39.11257026590259       58.69611517355887       54.45816065373854
C           40.09083400743609       57.71795656841046       54.44737726061014
C           40.33203865426616       56.98032214136822       55.59238887201685
C           39.61591106004663       57.23515908899417       56.74799115406072
C           38.85163086704491       58.98239591454875       59.16276397400267
C           39.79543125322346       60.12566275485013       58.76104419316707
C           39.04206401600744       61.41514887352613       58.56523577592465
C           38.41033537519392       62.05056986468661       59.62780975498017
C           37.72043656138468       63.23444151288204       59.43716633422488
C           37.64568011066010       63.80130970682382       58.17639355224208
C           38.27600110646594       63.18242897857890       57.11009727516416
C           38.97242975740787       62.00352244244895       57.30814940501408
C           40.90852038769005       60.27569008246351       59.81289733400461
C           42.05149129235209       59.27477841191284       59.56259101709844
C           42.71103237968517       58.91443128434565       60.86872563980675
C           42.68144252076141       57.60336005581370       61.32987254597042
C           43.23817054351183       57.26200888165432       62.54959762943976
C           43.82114451794394       58.23681091224092       63.33917202340565
C           43.85189501778858       59.54757331181122       62.89441018491751
C           43.30636283115486       59.88282307626321       61.66862209012664
C           43.03732258261149       59.80959431739278       58.50098302238569
C           43.36316965097247       58.75781914805348       57.42836654862899
H           37.44226906670380       66.54522478144663       50.73300506623555
H           38.79171939052180       64.49271082834571       50.47476903775260
H           39.02696194644695       64.40037357313656       52.21534265967659
H           36.48305935832983       64.39155241664021       52.45583479041371
H           37.75521376910632       62.03032926685785       51.01208512191845
H           37.87570704920606       62.37800290461335       52.73154131877140
H           35.28239327956436       61.88503067155006       51.20254749235813
H           36.88591379692747       60.13973225402179       53.10831559453894
H           35.17303947398780       59.87832265646013       52.81953697092424
H           37.18356546161229       59.90909561089583       50.54359776920988
H           34.80127137206922       60.20308285080925       49.98989800499248
H           36.51996295313468       58.43164300101729       48.75006182507823
H           35.62614378808097       56.49185318928694       49.88090092427419
H           33.97156581402488       56.92021103823160       49.44549922323879
H           34.47453568200263       56.63660433298976       47.05864648834358
H           35.17337220706976       54.25452144386978       48.82668017621940
H           33.56205543866131       54.80555437838476       48.38008672709413
H           35.68584371021064       53.54867400234794       46.60079476539867
H           32.86717693283231       52.81798203675655       47.47012105962367
H           33.57088486679243       52.13506180028054       46.00927604551376
H           34.93873896877082       51.94897634019999       48.71409266060883
H           34.76048299926252       48.69952665794643       48.09287461559008
H           35.79735568582301       50.04321119667839       49.80926264398356
H           34.35296550469869       49.98943675571818       50.81732398972505
H           34.62117035478100       47.61294233127243       51.22654018587765
H           36.94785579694156       47.49863766193618       52.19072662077615
H           37.29917262472439       49.03736381077980       51.40762510578513
H           35.12182709534228       49.83237960231491       52.74918864897496
H           37.82402277378200       49.50864107508423       54.10262288418952
H           37.45399638836492       50.72629735882243       52.88630618365964
H           36.07256650383732       50.41553080974807       55.58015062618066
H           38.48498775250728       51.25270894339038       55.45581898454864
H           37.87832232133299       52.67911981986958       54.61905086075872
H           36.72997595170457       51.83148712284671       57.29598764972310
H           37.12664105901467       54.60131441005729       56.09803502532323
H           35.63284019291863       53.66677985619164       55.98105736026668
H           37.00353985681414       54.55616908987788       58.55333651423847
H           34.44048604497327       55.49201604750374       57.19106451145163
H           34.81960461463375       55.82744197798694       58.87612969788299
H           36.55493179068166       56.70093649831243       56.52381496912052
H           36.56828692534543       57.58686849999184       59.44199329961804
H           37.74892977450776       56.50888703421125       58.70204225353982
H           37.20671350345410       59.38181662099622       57.83774011575025
H           38.26191898410218       59.28899858404568       60.02978468460037
H           39.45212786443318       58.12266770547287       59.46630604187391
H           40.26366804866076       59.86565281626176       57.80618579437796
H           41.30333451375751       61.29289247980196       59.78922100964544
H           40.49211807596215       60.11409949372212       60.80974527472736
H           39.06158178837544       65.73779993794345       54.05027017748305
H           38.06413584549548       66.39991500531472       56.19124376521030
H           35.95554207792070       67.67657795298631       56.23790097740107
H           34.86046564581294       68.30325425058462       54.11596522203438
H           35.86533408773752       67.64901569713876       51.97123164887180
H           37.43717733613674       63.13722204584383       49.02977719498030
H           36.00336189650387       63.46674862806241       47.05905146131577
H           33.88760525990878       64.70852192618061       47.26631112592354
H           33.21517399266497       65.63046667786682       49.45540800173068
H           34.64427484708338       65.28763892404250       51.42885043860134
H           36.71022957651824       61.98966115633447       54.69962856749363
H           35.47837726675341       62.92842908421170       56.58940060061859
H           33.21698766035070       63.86387933980913       56.25870261053725
H           32.19357323817356       63.81848642190656       54.01158075633634
H           33.42659087769569       62.86087881679290       52.11488164787072
H           35.29756488839664       57.56002460243351       52.81927107472662
H           36.32952567029911       55.55699234208931       53.76976141675701
H           38.62426019953875       54.91127218363268       53.11044884194463
H           39.82612573746633       56.24369487192599       51.41697448778864
H           38.80177345904239       58.28176756780530       50.49744731163489
H           34.39576012971356       58.71670025153832       50.83602443350366
H           36.56982511200978       59.67151831277768       46.83402245444609
H           35.46002763901882       60.84617012862397       44.99413465532361
H           32.99118317278613       60.94165245032617       44.88717523416943
H           31.65439049517062       59.86918093658166       46.66148208062702
H           32.76408415012556       58.71651459682868       48.51723282836975
H           35.98915812400986       57.23483650448904       45.49200110639936
H           38.28615321015946       57.34886240816658       44.62146165256101
H           40.13675061817803       56.33022990126095       45.88778471328874
H           39.67086849609387       55.18942835493052       48.03683848817185
H           37.39489522157122       55.11593932862723       48.91943288336689
H           32.22268927716038       55.03859513746362       46.36262924913207
H           31.41926110342405       56.14578981587663       44.33029547477573
H           32.87226174380607       56.28764760645073       42.33649718867034
H           35.13549876182953       55.32734496397337       42.40286997152270
H           35.94785752827558       54.21938007997870       44.44883642799737
H           37.18350189677674       51.87460693691042       48.15451040193896
H           39.04152449676596       50.93727226773174       46.86739965449300
H           38.58873666822419       49.42576046584676       44.95855507454630
H           36.26051289082746       48.88242395633483       44.35622383947506
H           34.40617597680404       49.79868371900663       45.65840948974152
H           32.82811755091330       50.87729062675467       48.99357063281077
H           32.88374368507181       50.13407801607516       47.40132516764136
H           33.64074499826314       46.77804254241574       47.62962443919312
H           31.86129289860341       45.14283788626012       48.07982774190797
H           30.20728813894429       45.57271575398387       49.86208592836077
H           30.34717581038595       47.65265007690495       51.18154950867694
H           32.11749704013912       49.28412117788689       50.72993306609246
H           35.04714430256863       45.48187175537398       50.43350911624055
H           36.12985601444954       43.94900068907817       48.84274754316422
H           37.83830934129688       44.78415109337529       47.28049979847659
H           38.39630080338160       47.20748428652362       47.26524636461945
H           37.28969452355361       48.72686527066735       48.79839384730945
H           33.36789265824490       48.76865808530554       53.78514769736412
H           32.48631609820831       47.25553285791197       55.50716772709173
H           34.03024906510750       45.87876865087630       56.85606901130388
H           36.45865281088490       45.99858516017573       56.43489711481560
H           37.33483570075374       47.46732884693574       54.68894044140923
H           36.52835133620692       52.92267641952512       52.78835127909775
H           34.66023623800317       54.20818818689430       51.86475746868003
H           32.38128185860193       53.91010375197386       52.76826407542082
H           31.99504575831564       52.30653877839663       54.60413320365834
H           33.86971588524841       51.00580836186209       55.52249911404179
H           38.14544921605818       51.49903020161717       59.07572460592118
H           40.28389203043123       51.85465209986802       60.23962424543936
H           42.02551546602125       53.29522121605807       59.21151606877427
H           41.57448313226379       54.40222650530623       57.07294287933303
H           39.41838648017615       54.09893375754114       55.94062463045191
H           36.62942702577373       53.26731451607993       60.39718040441723
H           35.35257885894326       51.56897629829007       61.62639304966173
H           33.27350837705860       50.64570609736766       60.66471825864604
H           32.49176820563541       51.43680996693388       58.46160902566461
H           33.77012308198227       53.12502364623973       57.23020274991026
H           35.51890469961579       58.19444389245938       55.13284621434966
H           33.89635710139577       60.00603839508229       54.70751778528975
H           32.50430746000403       60.86985000055950       56.53494962317130
H           32.72749759100076       59.91407650231331       58.80390043651204
H           34.32815338894268       58.11572340465955       59.22982606212823
H           37.63866977174590       59.72069833660542       55.62716603028321
H           38.90249926045799       59.25415865368568       53.55808488323704
H           40.65607589102255       57.52972580096196       53.54735180340553
H           41.08437836020344       56.20628741963505       55.58638845180315
H           39.81462204718002       56.64610683923271       57.63163720421345
H           38.45698563382845       61.61906565394359       60.61750996963669
H           37.23658322876925       63.71667474612422       60.27536909436266
H           37.09842874656131       64.72157308840094       58.02619607463975
H           38.21486453855501       63.62017760761434       56.12298843863377
H           39.46867455742052       61.52730816193880       56.47397449544326
H           43.32784682976596       60.90990337781577       61.33711103324417
H           44.29557040643342       60.31594830980366       63.51196553067471
H           44.24114292728577       57.97072629843291       64.29760669943420
H           43.20800998081774       56.23586772963947       62.89019343451255
H           42.21138091175356       56.83530045799194       60.73119743488499
H           39.81581149181425       66.81678083986257       50.29278017892419
H           39.31503226448302       68.05869909171751       51.43942833140251
H           40.21371184812894       66.65030973573339       52.00767212816407
H           41.59908109842301       58.36021813109475       59.16862083878940
H           42.58773358629262       60.66995301015028       57.99844260098730
H           43.95859235363540       60.15200552074896       58.97588069781037
C           44.21472068404342       57.60059696155791       57.99084469970732
C           44.01548490061545       59.40312297962143       56.23123536985904
C           45.32649040469602       59.86451231969151       56.27646792014712
C           45.92225495859923       60.39500262759001       55.14658832936070
C           45.22147145453657       60.48213260848068       53.95531206298516
C           43.90328964413344       60.06583539905545       53.91152626400569
C           43.30738139819346       59.53562612343895       55.04295322012464
H           45.88839396322727       59.79780416987840       57.19827780230062
H           46.94667866919107       60.73199741271021       55.19001376147128
H           45.70317471165955       60.86517120844425       53.06765221861968
H           43.33528299219279       60.14920391273633       52.99553935932133
H           42.27606315108986       59.21074703964914       54.99991028104451
C           43.51061897536716       56.25546333511686       57.81053725874646
H           45.17710490688932       57.55756854830634       57.47748480172337
H           44.41595586997317       57.77281236819675       59.04768741351017
C           44.32608489358341       55.08151018621076       58.27370407934267
C           44.82303737728753       55.01063363208638       59.57059134641609
C           45.55810487334489       53.91315019708799       59.98059573487247
C           45.79138270857965       52.85964248953828       59.11231402160586
C           45.29168533448556       52.91546316858315       57.82399084685981
C           44.57460095899263       54.02301442456888       57.40889240464671
H           44.63482462539579       55.81535386677266       60.26762114180620
H           45.94779727763815       53.87378407599353       60.98767878316657
H           46.36478703790487       52.00421397565877       59.43753538863447
H           45.45881855587881       52.09516398930904       57.14052164285533
H           44.20713891552281       54.06818402404279       56.39410790277875
H           42.40549288518338       58.34843575350285       57.08526908090674
H           42.56821353211757       56.27323258926933       58.36690989483219
H           43.27951060421945       56.12773351827644       56.75036689491278
C           66.41870073821762       50.94688185747017       48.60851299276729
C           65.61516877402251       49.85651852135247       48.29886491841305
C           64.84841533214644       49.29553034383193       49.31417670704133
C           64.86246518724045       49.82147265007913       50.59340673558837
C           65.66896169165769       50.90694655989960       50.88827438499516
C           66.45246961137163       51.46507526871766       49.89237435300656
C           65.63234778951229       49.27398492627189       46.90570723786929
C           66.40943543469193       47.95277307309809       46.92746744303421
C           64.22709766192953       49.05541775336599       46.33410281657957
C           63.44294743206818       50.36433093799999       46.14937848956654
C           64.06358973274382       51.18987216234638       45.05213423769981
C           64.03895719906012       50.76067836114892       43.72924185697237
C           64.62821934200990       51.50993217226707       42.72820938322827
C           65.26457294109608       52.70121657493491       43.03325472871476
C           65.30469826330543       53.13415147624706       44.34679937916468
C           64.70367066619752       52.38679522535765       45.34452030619806
C           61.96866032722135       50.05521767563359       45.85994791026927
C           61.06418074873666       51.30878650298099       45.84186083787977
C           59.92864581729884       51.13843017758539       46.82121936600334
C           59.04957983632206       50.06716870650485       46.70739439989001
C           57.99553818852374       49.91888926595587       47.58832650111376
C           57.81352921653340       50.82831957505100       48.61508472091557
C           58.69037690098897       51.89043721802796       48.75008818059816
C           59.73570566247198       52.04265016264237       47.85589428942601
C           60.52648784632249       51.57575738880848       44.42555276874707
C           59.49242111581379       52.71114700850682       44.36321538152816
C           60.08120119311973       54.02675985675558       44.79319661652053
C           59.50727877484297       54.74694526198743       45.83338490206765
C           60.01030238730795       55.97986109994125       46.20948725581327
C           61.09647561111919       56.51554167461856       45.53850010739125
C           61.68833056350463       55.79980405382609       44.51110233852351
C           61.18713651655695       54.56506546555218       44.14465645011371
C           58.88583656664129       52.80735787640382       42.95184623450280
C           57.52843108298392       53.54132279315423       42.89444547641249
C           56.68349192965727       52.87483181628292       41.83122672726736
C           55.89842938056753       51.78396422422944       42.18925945015297
C           55.14871628226522       51.09970176201117       41.25037573566419
C           55.16424462553167       51.50391260827490       39.92591770677105
C           55.94054480488438       52.58716776058053       39.55289626509393
C           56.69731170408150       53.26135392127574       40.49655218072164
C           57.67653041835842       55.05128611672000       42.68646165475881
C           56.30582438163407       55.74902187606050       42.68166791837206
C           55.69888731354536       55.74938202366734       44.06091480283241
C           56.29796947127769       56.45298372804714       45.09960374050929
C           55.69284521778917       56.55050891306305       46.33878992972593
C           54.49272188541265       55.90201972416933       46.57322106142463
C           53.91632667991285       55.15070956237277       45.56552604493876
C           54.50761221135816       55.08287253255138       44.31602906344778
C           56.40927323058963       57.17173704040573       42.10579778602877
C           55.03340623328030       57.85074284909107       41.93724411505312
C           54.99668568259217       58.71168341372272       40.69857903478727
C           54.11797330388753       58.42446052857284       39.66253529713003
C           54.03498991849235       59.24434562821353       38.54962480977965
C           54.83783930413060       60.36748996314584       38.45495729018910
C           55.73990515169201       60.64865777222417       39.46632779224532
C           55.81884875496749       59.82678017501687       40.57499641989758
C           54.65456392596304       58.70555729244274       43.15615876431038
C           53.17366403474065       59.11655248755127       43.18558795097569
C           53.00709025052781       60.26230502724501       44.15243023242679
C           52.85941705581847       61.55800448716686       43.67068063456733
C           52.67807416691414       62.62662143067023       44.52998051438014