3795
 energy: -5103.691008696031 gnorm: 0.000877098660 xtb: 6.6.1 (8d0f1dd)
C          105.12444584529194       96.00840851152465      118.45875679315350
C          106.30967265557300       96.85550095992068      118.05527847772906
C          103.85516549067763       96.83704592176308      118.63575735974156
C          103.42404037585038       97.51602215523803      117.33799396712649
H          103.05313676289539       96.18935262026908      118.99198551120506
H          104.03821228869890       97.60521295085177      119.38900748669435
C          102.12359039659229       98.28837809456982      117.53447108236979
H          104.20385431507589       98.20779624517660      117.01316653023260
H          103.29921734201237       96.77581074552070      116.54549772173871
C          101.84615828846709       99.28771384119182      116.42904500478710
H          101.28019328124620       97.59567847052186      117.57633511993346
H          102.14375886792411       98.83096271762889      118.48079133128920
N          100.90618246206336      100.18264088203942      116.75479695918034
O          107.18941335146765       96.16433228051226      117.35339314319970
O          106.45286447703396       98.02439572399766      118.33726018297543
H          107.94387239540734       96.73604015607940      117.02508094558307
H          105.38593902345676       95.51811594449917      119.39938744162950
H          104.99181887676686       95.23425927580189      117.70283781391970
C          100.46359618948512      101.24520418280797      115.87682017166891
H          100.55620679236085      100.18608519816091      117.70399904475602
C          100.18369232971970      102.52437786956770      116.65352086943446
H          101.25278481748825      101.41274929105663      115.13957503719263
H           99.55724816711167      100.92885603374796      115.34596055472228
C           99.76676181184051      103.66690100844031      115.73115328461648
H           99.38946655948693      102.33411714295444      117.37770473886800
H          101.08201864699097      102.81274338340842      117.20173052455871
C           99.48067958446094      104.93044239336534      116.53754183720048
H          100.57183909130018      103.86568195878759      115.02203622288151
H           98.88194511060119      103.37397405532077      115.16615036771860
C           99.19409923995566      106.15525534309411      115.67421152002937
H           98.63410423080380      104.75257319995578      117.20290430477517
H          100.35230698090918      105.14512220432074      117.15880087002249
C           97.85028611423503      106.09589920176167      114.94526563842628
H           99.19211699668678      107.04503174556419      116.30945587256572
H           99.98473853526204      106.27758498847749      114.93161994383463
N           97.61379819718368      107.36191736106291      114.28928372365706
H           97.85065474598429      105.29594349568752      114.20145855093394
H           97.02953813124839      105.93281602593125      115.64798580852278
C           96.63862803399566      108.20747666610323      114.64022087763888
H           98.34365920152003      107.65724434153077      113.64507457426460
O          102.41301076499937       99.27234381505663      115.33861282897237
C           96.82694048022690      109.61842194180585      114.11061858463113
C           97.68458679970189      110.39530153602490      115.12188279392728
H           97.32121249041394      109.58560557577253      113.13998743662762
H           95.85535397013406      110.10171308606064      114.00786663063454
C           96.93406121387711      110.61520664658615      116.43348134359299
H           98.60907231419215      109.84596847831415      115.31644172714137
H           97.95694199954671      111.36675259023070      114.70188398417365
C           97.79169745351189      111.26694405722840      117.52044749358834
H           96.07693499890965      111.26300864107453      116.23936276075574
H           96.54693202378046      109.66311212737155      116.80174762280082
C           98.87225110780020      110.34146918212177      118.04423804907343
H           98.24718650666085      112.18000787359367      117.13606001936517
H           97.14760533047864      111.52855225771907      118.35882138646807
N           98.41744324485303      109.39595195129235      118.87488431752321
C           99.26810010419034      108.41611944988932      119.51287636610941
H           97.45257010696420      109.42729572279863      119.18442015184883
O           95.69924785238901      107.89011764633645      115.36589336251477
C           98.56847798399414      107.06817480586889      119.65821560508387
H          100.16971977712541      108.32738828078413      118.89957814517226
H           99.54973250377370      108.76781884955506      120.51292231791612
C           99.52609093723635      106.04547807764419      120.26583322404446
H           97.70005368138405      107.20007835056560      120.30683248225002
H           98.21056760949874      106.72811565622469      118.68585322714300
C           98.83560567769308      104.74855126611082      120.67940287706458
H          100.31151139415363      105.83344474526812      119.53997100950522
H           99.98426647890572      106.49480385542292      121.14912921896955
C           99.78661778092555      103.76362707357102      121.36491043361491
H           98.02891985890003      104.99557564586799      121.37177228719072
H           98.38587345594080      104.27467625466501      119.80553743802511
C          100.70708583909658      103.04525731361443      120.37929457392940
N          101.58151005861623      102.11477229727313      121.06232782637765
H          100.11599311455430      102.46374879183784      119.66915667597166
H          101.31160136359857      103.76568040349689      119.82271001948655
C          101.65048423478700      100.82021348872782      120.74487471872823
H          102.14790781934549      102.48179201839680      121.82355773004274
O          100.05906301274418      110.45075632615196      117.74201299606258
C          102.57752023340247       99.98916977362755      121.61383399897340
C          104.04651867845297      100.26270342457887      121.27630878077383
H          102.39575149768604      100.21470112841382      122.66456274398281
H          102.35014744284396       98.93704168280736      121.43337356753355
C          104.98197816669192       99.28138049590079      121.97837147274844
H          104.19113216517304      100.16872477102321      120.19840885380638
H          104.30137260195643      101.28158631456245      121.57661754693429
C          106.44883195400058       99.53806465012906      121.62080696179586
H          104.86818944305558       99.37239783863812      123.06076214443738
H          104.71645256746261       98.26206254655339      121.69199995133960
C          106.97803119862945      100.75658423950790      122.35718228040867
H          107.04294934211316       98.68294691080077      121.95373578096255
H          106.57221783713862       99.63902197020089      120.54199059152786
N          107.63183533246638      101.65358133691961      121.61341315852748
C          108.18854568520197      102.87441623410184      122.15351299882711
H          107.75692100473496      101.53255124761971      120.61154740494099
H          100.39524056041856      104.29658092983266      122.09700185056741
H           99.20192743213923      103.01119584769039      121.89695592807111
O          101.03084362169584      100.32799199219109      119.80158995725658
O          106.83621682171807      100.87947900800195      123.57230734892381
C          107.77144041994383      104.07928467789095      121.31657830185925
H          107.82562239722195      102.97620583454596      123.17751794262199
H          109.28117722578824      102.79411569039985      122.18504631384390
C          108.23295019449183      105.39036135060771      121.95128493438993
H          108.17643458543245      103.96027280695924      120.30951099759098
H          106.68242183235027      104.07820586075655      121.23646055058887
C          107.92490192842654      106.60112169255386      121.06603709358208
H          107.72781642038514      105.50243507100474      122.91198056745714
H          109.30458319958773      105.34376048176036      122.15339117228660
C          107.78597754015769      107.89087732117741      121.87405060820974
H          108.71686922092123      106.72083257283315      120.32610149526354
H          106.99204944928128      106.42737365308541      120.52659643422260
C          107.42633318149124      109.08083972125843      120.99552884806349
H          107.00152771677951      107.76985385548791      122.62250311212419
H          108.71757980238402      108.09927530197250      122.39926511540473
N          108.51630580765573      109.41460828581288      120.10175025872294
H          106.53653083394046      108.84981383013647      120.39624153630203
H          107.19260989541043      109.95522454717666      121.61284757113883
C          108.48732264187016      110.48770616794749      119.30813384128048
H          109.34393665813407      108.83120549126409      120.13354944438035
C          109.67392175072267      110.60096490632802      118.37255324442857
C          109.28317729155600      110.11459763419550      116.96834313547615
H          109.99415632339823      111.64053174885795      118.30858641681013
H          110.49037232072637      109.99297640263389      118.76012723443785
C          108.49790814801530      111.17554639296559      116.19926775164411
H          110.19065542949123      109.87544246654716      116.41120256240194
H          108.69195706148962      109.19942754143250      117.05049090579760
C          107.94139242965470      110.62989426160567      114.87897474317789
H          107.67851293678896      111.54070691323059      116.81816328020207
H          109.16127970266028      112.01703449493301      115.99040759891943
C          107.58390461241008      111.75716243627879      113.93006185038683
H          108.69494530515595      110.00741294868077      114.39429802598475
H          107.05336826627226      110.02308376835056      115.05818702022253
N          108.64598604701528      112.30587187844597      113.33094771798791
C          108.55255153860594      113.44768887249960      112.44749359119062
H          109.56383853080976      112.12986990909951      113.71778193594089
O          107.55255237470853      111.28747293677657      119.31420180600627
C          109.75062086587195      113.50438398981110      111.50757451999758
H          107.61869467013015      113.35044622930695      111.89205412174289
H          108.50958380188699      114.35629408575974      113.05395416943935
C          109.80540777409290      114.76921067999990      110.64774330280996
H          110.65683037093413      113.44736550202532      112.11316680625075
H          109.73384407686540      112.63076675041796      110.85276801599383
C          110.05615044748161      116.03744555697976      111.46223581044012
H          110.61717056679467      114.64514574913080      109.92846895180377
H          108.88058941224701      114.86108007335194      110.07713323223798
C          110.10833544666465      117.30918521245756      110.61467942382748
H          109.27652196232076      116.15212973987252      112.21579492189491
H          111.01054050050818      115.93422529480925      111.97960074167308
C          108.73442760451989      117.79534812406614      110.16741240916735
H          110.57916293634526      118.09627802927147      111.20545563326965
H          110.73571350270100      117.13319626419752      109.74059932118801
N          108.78215903185225      119.19971092885370      109.80368290667883
H          108.36917718497298      117.20359028370042      109.32038991130963
H          108.00802791953393      117.67987212994439      110.97896224354865
O          106.42606172062659      112.11362525877955      113.70975117750167
C          107.69744992765702      119.89456416913254      109.47098660901253
H          109.69628772076119      119.65225665984541      109.76242533520565
C          107.91739762859766      121.38351033807061      109.26504023165515
C          107.70162536268479      121.79471829841559      107.80783902457524
H          107.18675271506508      121.90270628667750      109.88967280536336
H          108.91930756763560      121.65859147001798      109.58628691388139
C          107.45587830399128      123.29358879514656      107.63079896933780
H          108.57818295248192      121.50675176562471      107.22320504159015
H          106.83804270599035      121.25146182883377      107.41349216610782
C          108.63992008581025      124.16836611907173      108.05358240177907
H          107.25950113924526      123.46964121004387      106.57190284846661
H          106.55511754111322      123.59078903687984      108.16839517227314
C          108.75147985292783      124.51764788880030      109.52615283622038
H          109.57888484253183      123.69457009015454      107.75926032275227
H          108.58824218125000      125.12072491220619      107.51880788050201
N          107.63432052011080      124.93542927484160      110.12654824845436
O          106.58083261488603      119.37947558513660      109.35836489870547
C          107.56926621806359      125.36435293336267      111.50771623941499
H          106.74171774105879      124.91442250791243      109.64766264849560
C          106.60176376556143      126.53284523580588      111.66559961265956
H          107.22038661631603      124.53134470742783      112.13021325064142
H          108.57747928732938      125.63644426148447      111.82489244836049
C          107.12186509738878      127.85415722499644      111.10096895519128
H          105.67648742417094      126.26491951501647      111.15168651734315
H          106.38079155341339      126.65790960499676      112.72638649129397
C          108.18259460058060      128.52077996438788      111.97754857432626
H          107.53022390353347      127.68798066601914      110.10249051777944
H          106.27735080434384      128.53914478094981      110.99901947126739
C          108.44140224010610      129.95484195640526      111.51814878302824
H          107.84803074337339      128.52998395625161      113.01811733291314
H          109.11403785479028      127.95472977987784      111.93231166077121
C          109.42565782719483      130.70199953012829      112.41020863513052
H          108.83917280099544      129.94024710162003      110.50218228157284
H          107.50166024776536      130.50950926939365      111.50369927982193
N          110.76559561504874      130.18241453639595      112.24246751047605
H          109.41341753227138      131.77002535813020      112.15790496186257
H          109.15368755036562      130.60773228728391      113.46614003520835
C          111.65253757566309      130.12511355981772      113.23079460897664
H          110.99564849802243      129.85669072786757      111.30951822545209
O          109.83554680072156      124.47612520897188      110.10992324142678
C          112.99983082942322      129.52065528300710      112.88411562185402
C          112.85849063516902      128.10498489771066      112.32574600677594
H          113.49015011642028      130.15626657420739      112.14471188398690
H          113.60492709074128      129.51166177535188      113.79219601020290
C          112.13300594609925      127.17660114111216      113.29390041392072
H          112.30045237507929      128.14791173983846      111.39030552180705
H          113.85163898458048      127.70489362370269      112.10990119685795
C          111.92527106199725      125.79467970080658      112.68282169837254
H          112.70384225947772      127.08248767229483      114.21792546212750
H          111.16075172806947      127.60470033941769      113.54919368679455
C          111.10192467081885      124.88523289960838      113.57521688662656
H          111.42779196102451      125.87237334845933      111.71449384034975
H          112.89170007862394      125.31047895623787      112.52059563484318
N          110.46787153802576      123.91774993673262      112.91070317911795
C          109.60988423671922      122.94923851377096      113.56045331781026
H          110.43625268022016      123.94728117993435      111.89636766477282
O          111.40854430288434      130.53586199180631      114.36941285416385
C          109.01226508202861      122.02042830761947      112.51478903489354
H          110.19871499511177      122.40069008195090      114.30160953662420
H          108.80643174318890      123.47256304113471      114.09455372998059
C          107.99138209221128      121.04583137633294      113.09525507709139
H          108.52712599422662      122.64075253109314      111.76211960262431
H          109.81166980577203      121.46659968414171      112.02021257587108
C          108.65215611255807      119.90892922420605      113.86502376726180
H          107.30214893726696      121.57862404439078      113.75347141339452
H          107.40749751074594      120.61938603079507      112.27685942450638
C          107.62237551745318      118.93815210849139      114.43356635424533
H          109.32261370575664      119.37037582707552      113.19243840063601
H          109.24593928520166      120.30967721670591      114.68666969634138
C          108.32591673110323      117.72768432692033      115.02484700507786
H          107.03142492210013      119.43680097036135      115.20453642546755
H          106.93940383520886      118.61551483303342      113.64661876945492
N          107.39309767578976      116.79220936843330      115.61858939346753
H          108.88271881443499      117.19929523240404      114.24507847144277
H          109.04779914595271      118.05567726979967      115.78210284230333
C          107.63924923022626      115.48624656410495      115.66793650182835
H          106.48803918066666      117.13912164177967      115.91713750047511
O          111.03851163584675      125.00852435934200      114.79660688625961
C          106.63479722067061      114.64373346994981      116.41107152122699
C          107.24892364120882      114.32090389702684      117.78083071501781
H          105.68665583573943      115.16830597598437      116.51377509162612
H          106.47851951840883      113.71903578273897      115.85352998814136
C          107.15465858344410      115.48523349164081      118.76843316248957
H          106.75883427829622      113.45009201876276      118.21596311550267
H          108.29635399549751      114.05613572471570      117.62133581548724
C          108.18527151333298      115.32318876567976      119.89488343366871
H          107.31968961145989      116.43443384500961      118.25694319766893
H          106.14785585102578      115.49906890785535      119.18984207782546
C          107.68998610261109      115.87859281823158      121.21752043568023
H          108.37591045376146      114.25921820440523      120.04062617871654
H          109.11960972980364      115.81465320748286      119.62533275519129
N          106.82775656046179      115.06570004600117      121.82738645295463
O          108.66948539805539      114.98826068259093      115.19847349846609
C          106.26947556632690      115.28037392271987      123.14122142305763
H          106.38219419541818      114.33136754325103      121.28839513527970
C          105.82533868690727      113.93609333915768      123.70493958739534
H          107.04026958201253      115.73497676455104      123.77199412429241
H          105.41691522870580      115.96694397607178      123.09558349377355
C          105.34947741469342      114.04342258726551      125.14813645415140
H          105.02108423526140      113.54649660524542      123.07821672705877
H          106.66653798335020      113.24465092659666      123.64313463266900
C          104.67614118018830      112.76815128238265      125.64618337080277
H          106.19235520334423      114.28553450432520      125.79553787621097
H          104.63098804455261      114.85858047288588      125.23285990176346
C          105.62654647104155      111.57564560247896      125.70986103022605
H          104.28806342610221      112.96579679501224      126.64676465011783
H          103.83154503044454      112.52807093515733      124.99787345696382
C          104.94935541030210      110.37907991725184      126.35618030772427
H          105.94809676731978      111.29626143838004      124.70658250297480
H          106.51333503444050      111.84220949114817      126.28561241609202
N          105.83298020530395      109.22991931969298      126.40762281943914
H          104.62808349079297      110.63000011966071      127.37504812437138
H          104.05384779116575      110.10326656842393      125.78855420392671
C          105.39316108362341      108.05052735309515      126.85381247383908
H          106.80282311381144      109.38020082583471      126.15100782658597
O          108.08267317275605      116.93954457991984      121.69775334843747
C          106.41234102410147      106.92829163228356      126.85562440347445
C          106.32553329637477      106.07167437845467      125.58557796136807
H          107.41370883562703      107.35322637563003      126.92968788101457
H          106.22248178512548      106.29548431125180      127.72515715560354
C          105.03301729849343      105.25778700091297      125.47642050830268
H          106.42791444489862      106.71984232474983      124.71305233724638
H          107.17670562181165      105.38608766552883      125.58789682196745
C          105.16172499984441      104.20408054821011      124.37226714554576
H          104.82512383832083      104.77445671911977      126.43193358439163
H          104.19558512268000      105.92407972713299      125.26335685718854
C          103.92220713621967      103.36092930290317      124.14561848093614
H          105.40220021597467      104.69075912795111      123.42574857241894
H          105.97271236968166      103.51323566470340      124.61678425033018
N          103.45744349772070      102.70895651840181      125.20685225456408
C          102.24832790650447      101.91883352539369      125.18613959332367
H          103.89997520848517      102.79864888084113      126.11832052400533
O          104.23393226655611      107.88795374358185      127.23025729849024
C          101.34779773651206      102.26707891195514      126.36973924295344
H          101.73824094845635      102.11203025027230      124.23951402442309
H          102.50643815613572      100.85354625008198      125.23079440280414
C          101.04309681587681      103.76095526250070      126.48209810265973
H          100.41987864950276      101.70161344742712      126.27521305743888
H          101.85111722253035      101.95387254794548      127.28579620331904
C          100.33233727188237      104.34841329478772      125.26384797977826
H          100.41293943604229      103.90798582739956      127.36216565650399
H          101.97837929267270      104.29880948063264      126.64797693602671
C           99.93035306463462      105.80043034679117      125.51321814312622
H          100.98784749040867      104.30291027918148      124.39383232697520
H           99.43924149061735      103.75920198118449      125.04630781630703
C           99.08096858377026      106.37928371759334      124.38457572429620
H           99.35169852056219      105.86099657510275      126.43823949720792
H          100.82262687125598      106.41679548150499      125.64244050497824
N           98.54825470761355      107.67249872270007      124.75384935441167
H           99.66831049893482      106.51789288541761      123.47523899703708
H           98.24905293742387      105.70084023910857      124.16321461302702
C           98.71575322851592      108.79711463583774      124.04819621417812
H           98.17453809755649      107.75064277321192      125.68915036232262
O          103.41048242876388      103.27040999583438      123.02558874129791
C           98.07485354407271      110.01559668573633      124.68833133628533
C           96.54698898987823      110.00504612206954      124.55994794715150
H           98.32966663306607      110.02044935968244      125.74905095616269
H           98.48302525182342      110.91149947698212      124.21977451493400
C           96.03710962857801      109.90453735892137      123.12252438592846
H           96.14513512670541      109.16399260724059      125.12763624222006
H           96.16191079788757      110.92334205113130      125.00851124900542
C           96.56486110837969      111.02775933602970      122.22538299129742
H           96.32939378531883      108.94792256245435      122.68509828149425
H           94.94517958133532      109.94034298217430      123.13645419618589
C           95.85428861630072      111.00532453038849      120.88587982901775
H           96.43069616560921      111.99924172270691      122.70111645671308
H           97.62614328134840      110.85398326859543      122.04603320038225
N           95.21810736295495      112.13563183112709      120.56011294863282
O           99.31657797454578      108.84199816433879      122.97920664268419
C           94.45746277958692      112.29370203012975      119.33861472636221
H           95.39137887668932      112.98498448614920      121.09098645351919
C           94.91728388244550      113.50239254802979      118.52710905475081
H           94.57817625293771      111.37227211659940      118.76128820373711
H           93.39710489101037      112.40292706227051      119.59372148551212
C           94.19420331445586      113.56704421375274      117.18421823858401
H           94.73499963792338      114.41267281235633      119.10133266738410
H           95.99207945220491      113.43765910499064      118.34914734912147
C           94.80729185165264      114.62270784470452      116.26732588749992
H           94.25996095662136      112.58669270052778      116.70914875300322
H           93.13610971324565      113.78518735442860      117.34456657365880
C           94.18300821103185      114.64248636366149      114.87225735214965
H           94.67828209186219      115.60457596088555      116.72838522681941
H           95.88194875523533      114.44180280395750      116.18809439847996
C           94.52631016855368      113.40553254245708      114.03001058002344
H           93.09663067216468      114.72891661043833      114.96177420618869
H           94.54520428034355      115.52781069807695      114.34090726247577
N           94.07531694599035      113.47774114915036      112.64756254839037
H           95.61157036260389      113.26964753278951      114.01721769360176
H           94.08225183731970      112.51012784042348      114.47077114769398
H           93.06207802068617      113.51918968224689      112.62385743725378
H           94.41701789510878      114.33880800957851      112.23105494107566
O           95.84773385308051      110.00014490653697      120.17389209450296
C          108.20593514186264      108.77496838218657      100.66754387863442
C          108.40053930823153      110.27467194392409      100.72211132589928
C          107.29563334563311      108.26395604340354      101.79235140633595
C          105.86138278371178      108.77702971288220      101.68362019067619
H          107.29854840052552      107.17378278441551      101.73455930489200
H          107.71776296796016      108.55470299661502      102.75723889648869
C          104.88873199129819      107.99455216237845      102.57584308453602
H          105.82568228224741      109.83352093360733      101.95467842165046
H          105.52590196267886      108.69052113778433      100.64876775623306
C          105.19371386725643      108.19721617107977      104.05031892497932
H          103.88305929763459      108.38360977155692      102.39921201499308
H          104.91493584030610      106.94161542531931      102.30595037653883
N          105.66720873144352      107.17561047138679      104.76531813391554
O          107.49258755492822      110.93166835711277      100.04853654218861
O          109.31506991472551      110.80677791246758      101.32439769880382
H          107.63126029104241      111.95182232863935      100.05219457860510
H          109.18107734689889      108.29497033917158      100.75823775104736
H          107.76276523617260      108.52382722982549       99.70408525472943
C          105.95595676036034      105.82509151947544      104.33416182196329
H          105.90807400986068      107.39178306608538      105.73829337274947
C          106.26298000630511      104.95506984554687      105.54749741079640
H          105.09318724947080      105.41036345149527      103.80225088846332
H          106.81219748002361      105.82022413844111      103.64806284849578
C          106.53486449971300      103.50566924999164      105.15460446997039
H          107.12956705906673      105.36321303933910      106.07020044463511
H          105.41711878906382      104.99566338550741      106.23536577047459
C          106.75599470658914      102.64104286884503      106.39209638509506
H          105.68928847703754      103.11563752703950      104.58422664840256
H          107.41359537923408      103.46644631570071      104.51025762710815
C          107.06149996081840      101.17919608628301      106.06507924074153
H          107.56987591109248      103.06148708615147      106.98361998704284
H          105.85743904282732      102.67409000284677      107.01156337768842
C          108.44021833435428      100.95232240282635      105.45452228862101
H          106.98345406092724      100.59391510875133      106.98214426919202
H          106.31658133786607      100.79995515457129      105.36413008017058
N          109.50632474375881      101.36579144131075      106.34729026749980
H          108.56601125930727       99.88742076664086      105.22271842369722
H          108.54696431483140      101.49910929421158      104.51153583381375