      -----------------------------------------------------------      
     |                   =====================                   |     
     |                           x T B                           |     
     |                   =====================                   |     
     |                         S. Grimme                         |     
     |          Mulliken Center for Theoretical Chemistry        |     
     |                    University of Bonn                     |     
      -----------------------------------------------------------      

   * xtb version 6.6.1 (8d0f1dd) compiled by 'stahn@M-Bot' on 2023-08-01

   xtb is free software: you can redistribute it and/or modify it under
   the terms of the GNU Lesser General Public License as published by
   the Free Software Foundation, either version 3 of the License, or
   (at your option) any later version.
   
   xtb is distributed in the hope that it will be useful,
   but WITHOUT ANY WARRANTY; without even the implied warranty of
   MERCHANTABILITY or FITNESS FOR A PARTICULAR PURPOSE.  See the
   GNU Lesser General Public License for more details.
   
   Cite this work as:
   * C. Bannwarth, E. Caldeweyher, S. Ehlert, A. Hansen, P. Pracht,
     J. Seibert, S. Spicher, S. Grimme, WIREs Comput. Mol. Sci., 2020, 11,
     e01493. DOI: 10.1002/wcms.1493
   
   for GFN2-xTB:
   * C. Bannwarth, S. Ehlert and S. Grimme., J. Chem. Theory Comput., 2019,
     15, 1652-1671. DOI: 10.1021/acs.jctc.8b01176
   for GFN1-xTB:
   * S. Grimme, C. Bannwarth, P. Shushkov, J. Chem. Theory Comput., 2017,
     13, 1989-2009. DOI: 10.1021/acs.jctc.7b00118
   for GFN0-xTB:
   * P. Pracht, E. Caldeweyher, S. Ehlert, S. Grimme, ChemRxiv, 2019, preprint.
     DOI: 10.26434/chemrxiv.8326202.v1
   for GFN-FF:
   * S. Spicher and S. Grimme, Angew. Chem. Int. Ed., 2020, 59, 15665-15673.
     DOI: 10.1002/anie.202004239
   
   for ALPB and GBSA implicit solvation:
   * S. Ehlert, M. Stahn, S. Spicher, S. Grimme, J. Chem. Theory Comput.,
     2021, 17, 4250-4261. DOI: 10.1021/acs.jctc.1c00471
   
   for DFT-D4:
   * E. Caldeweyher, C. Bannwarth and S. Grimme, J. Chem. Phys., 2017,
     147, 034112. DOI: 10.1063/1.4993215
   * E. Caldeweyher, S. Ehlert, A. Hansen, H. Neugebauer, S. Spicher,
     C. Bannwarth and S. Grimme, J. Chem. Phys., 2019, 150, 154122.
     DOI: 10.1063/1.5090222
   * E. Caldeweyher, J.-M. Mewes, S. Ehlert and S. Grimme, Phys. Chem. Chem. Phys.
     2020, 22, 8499-8512. DOI: 10.1039/D0CP00502A
   
   for sTDA-xTB:
   * S. Grimme and C. Bannwarth, J. Chem. Phys., 2016, 145, 054103.
     DOI: 10.1063/1.4959605
   
   in the mass-spec context:
   * V. Asgeirsson, C. Bauer and S. Grimme, Chem. Sci., 2017, 8, 4879.
     DOI: 10.1039/c7sc00601b
   * J. Koopman and S. Grimme, ACS Omega 2019, 4, 12, 15120-15133.
     DOI: 10.1021/acsomega.9b02011
   
   for metadynamics refer to:
   * S. Grimme, J. Chem. Theory Comput., 2019, 155, 2847-2862
     DOI: 10.1021/acs.jctc.9b00143
   
   for SPH calculations refer to:
   * S. Spicher and S. Grimme, J. Chem. Theory Comput., 2021, 17, 1701-1714
     DOI: 10.1021/acs.jctc.0c01306
   
   with help from (in alphabetical order)
   P. Atkinson, C. Bannwarth, F. Bohle, G. Brandenburg, E. Caldeweyher
   M. Checinski, S. Dohm, S. Ehlert, S. Ehrlich, I. Gerasimov, C. Hölzer
   A. Katbashev, J. Koopman, C. Lavigne, S. Lehtola, F. März, M. Müller,
   F. Musil, H. Neugebauer, J. Pisarek, C. Plett, P. Pracht, F. Pultar,
   J. Seibert, P. Shushkov, S. Spicher, M. Stahn, M. Steiner, T. Strunk,
   J. Stückrath, T. Rose, and J. Unsleber
   
 * started run on 2024/06/17 at 15:17:27.345     

           -------------------------------------------------
          |                Calculation Setup                |
           -------------------------------------------------

          program call               : /home/abt-grimme/AK-bin/xtb input.xyz --input input.inp --opt --gbsa water
          hostname                   : boar059.thch.uni-bonn.de
          coordinate file            : input.xyz
          omp threads                :                     8

   ID    Z sym.   atoms
    1    6 C      1-120, 363-482, 725-844, 1087-1206, 1449-1568, 1811-1930,
                  2173-2292, 2535-2654, 2897-3016
    2    1 H      121-362, 483-724, 845-1086, 1207-1448, 1569-1810,
                  1931-2172, 2293-2534, 2655-2896, 3017-3258

molecular fragmentation (1/2 indicates fragments):
111111111111111111111111111111111111111111111111111111111111111111111111
111111111111111111111111111111111111111111111111111111111111111111111111
111111111111111111111111111111111111111111111111111111111111111111111111
111111111111111111111111111111111111111111111111111111111111111111111111
111111111111111111111111111111111111111111111111111111111111111111111111
112222222222222222222222222222222222222222222222222222222222222222222222
222222222222222222222222222222222222222222222222222222222222222222222222
222222222222222222222222222222222222222222222222222222222222222222222222
222222222222222222222222222222222222222222222222222222222222222222222222
222222222222222222222222222222222222222222222222222222222222222222222222
222222222222222222222222222222222222222222222222222222222222222222222222
222222222222222222222222222222222222222222222222222222222222222222222222
222222222222222222222222222222222222222222222222222222222222222222222222
222222222222222222222222222222222222222222222222222222222222222222222222
222222222222222222222222222222222222222222222222222222222222222222222222
222222222222222222222222222222222222222222222222222222222222222222222222
222222222222222222222222222222222222222222222222222222222222222222222222
222222222222222222222222222222222222222222222222222222222222222222222222
222222222222222222222222222222222222222222222222222222222222222222222222
222222222222222222222222222222222222222222222222222222222222222222222222
222222222222222222222222222222222222222222222222222222222222222222222222
222222222222222222222222222222222222222222222222222222222222222222222222
222222222222222222222222222222222222222222222222222222222222222222222222
222222222222222222222222222222222222222222222222222222222222222222222222
222222222222222222222222222222222222222222222222222222222222222222222222
222222222222222222222222222222222222222222222222222222222222222222222222
222222222222222222222222222222222222222222222222222222222222222222222222
222222222222222222222222222222222222222222222222222222222222222222222222
222222222222222222222222222222222222222222222222222222222222222222222222
222222222222222222222222222222222222222222222222222222222222222222222222
222222222222222222222222222222222222222222222222222222222222222222222222
222222222222222222222222222222222222222222222222222222222222222222222222
222222222222222222222222222222222222222222222222222222222222222222222222
222222222222222222222222222222222222222222222222222222222222222222222222
222222222222222222222222222222222222222222222222222222222222222222222222
222222222222222222222222222222222222222222222222222222222222222222222222
222222222222222222222222222222222222222222222222222222222222222222222222
222222222222222222222222222222222222222222222222222222222222222222222222
222222222222222222222222222222222222222222222222222222222222222222222222
222222222222222222222222222222222222222222222222222222222222222222222222
222222222222222222222222222222222222222222222222222222222222222222222222
222222222222222222222222222222222222222222222222222222222222222222222222
222222222222222222222222222222222222222222222222222222222222222222222222
222222222222222222222222222222222222222222222222222222222222222222222222
222222222222222222222222222222222222222222222222222222222222222222222222
222222222222222222
# atoms in fragment 1/2:   362  2896
 fragment masses (1/2) :     1685.21    13481.68
CMA distance (Bohr)    :  13.340
constraining FC (au)   :  0.0500

           -------------------------------------------------
          |                 G F N 2 - x T B                 |
           -------------------------------------------------

        Reference                      10.1021/acs.jctc.8b01176
      * Hamiltonian:
        H0-scaling (s, p, d)           1.850000    2.230000    2.230000
        zeta-weighting                 0.500000
      * Dispersion:
        s8                             2.700000
        a1                             0.520000
        a2                             5.000000
        s9                             5.000000
      * Repulsion:
        kExp                           1.500000    1.000000
        rExp                           1.000000
      * Coulomb:
        alpha                          2.000000
        third order                    shell-resolved
        anisotropic                    true
        a3                             3.000000
        a5                             4.000000
        cn-shift                       1.200000
        cn-exp                         4.000000
        max-rad                        5.000000

      * Solvation model:               GBSA
        Solvent                        water
        Parameter file                 internal GFN2-xTB/GBSA
        Dielectric constant                8.0200E+01
        Reference state                gsolv [1 M gas/solution]
        Free energy shift                  1.8574E-03 Eh       1.1656E+00 kcal/mol
        Temperature                        2.9815E+02 K
        Density                            1.0000E+00 kg/L
        Solvent mass                       1.8000E+01 g/mol
        Interaction kernel             Still
        Born radius scaling (c1)           1.5524E+00
        Born radii integrator          GBOBC
        Born offset                        2.4628E-02 a0       4.6540E-02 AA
        H-bond correction              true
        Ion screening                  false
        Surface tension                    1.0000E-05 Eh       1.5569E+01 dyn/cm
        Grid points                               230 per atom
q/qsh data taken from xtbrestart
CAMM data taken from xtbrestart

          ...................................................
          :                      SETUP                      :
          :.................................................:
          :  # basis functions                6498          :
          :  # atomic orbitals                6498          :
          :  # shells                         4338          :
          :  # electrons                      6498          :
          :  max. iterations                   250          :
          :  Hamiltonian                  GFN2-xTB          :
          :  restarted?                       true          :
          :  GBSA solvation                   true          :
          :  PC potential                    false          :
          :  electronic temp.          300.0000000     K    :
          :  accuracy                    1.0000000          :
          :  -> integral cutoff          0.2500000E+02      :
          :  -> integral neglect         0.1000000E-07      :
          :  -> SCF convergence          0.1000000E-05 Eh   :
          :  -> wf. convergence          0.1000000E-03 e    :
          :  Broyden damping             0.4000000          :
          ...................................................

 iter      E             dE          RMSdq      gap      omega  full diag
   1  -3472.1529157 -0.347215E+04  0.740E-05   10.95       0.0  T
   2  -3472.1529158 -0.395403E-08  0.582E-05   10.95      30.1  T
   3  -3472.1529158 -0.598266E-08  0.293E-05   10.95      59.8  T

   *** convergence criteria satisfied after 3 iterations ***

         #    Occupation            Energy/Eh            Energy/eV
      -------------------------------------------------------------
         1        2.0000           -0.6169686             -16.7886
       ...           ...                  ...                  ...
      3243        2.0000           -0.3869467             -10.5294
      3244        2.0000           -0.3865059             -10.5174
      3245        2.0000           -0.3862713             -10.5110
      3246        2.0000           -0.3861469             -10.5076
      3247        2.0000           -0.3857701             -10.4973
      3248        2.0000           -0.3848392             -10.4720
      3249        2.0000           -0.3846761             -10.4676 (HOMO)
      3250                          0.0178143               0.4848 (LUMO)
      3251                          0.0185037               0.5035
      3252                          0.0192619               0.5241
      3253                          0.0202840               0.5520
      3254                          0.0222341               0.6050
       ...                                ...                  ...
      6498                          0.3708188              10.0905
      -------------------------------------------------------------
                  HL-Gap            0.4024904 Eh           10.9523 eV
             Fermi-level           -0.1834309 Eh           -4.9914 eV

 SCC (total)                   0 d,  0 h,  7 min,  5.809 sec
 SCC setup                      ...        0 min,  1.685 sec (  0.396%)
 Dispersion                     ...        0 min,  3.610 sec (  0.848%)
 classical contributions        ...        0 min,  0.138 sec (  0.033%)
 integral evaluation            ...        0 min,  5.831 sec (  1.369%)
 iterations                     ...        2 min, 51.961 sec ( 40.385%)
 molecular gradient             ...        3 min, 54.864 sec ( 55.157%)
 printout                       ...        0 min,  7.718 sec (  1.813%)

         :::::::::::::::::::::::::::::::::::::::::::::::::::::
         ::                     SUMMARY                     ::
         :::::::::::::::::::::::::::::::::::::::::::::::::::::
         :: total energy           -3426.736073874949 Eh    ::
         :: total w/o Gsasa/hb     -3426.643631202809 Eh    ::
         :: gradient norm              0.633012809760 Eh/a0 ::
         :: HOMO-LUMO gap             10.952320994331 eV    ::
         ::.................................................::
         :: SCC energy             -3472.152915759820 Eh    ::
         :: -> isotropic ES            0.282582089881 Eh    ::
         :: -> anisotropic ES          1.277468910138 Eh    ::
         :: -> anisotropic XC          2.135065420326 Eh    ::
         :: -> dispersion             -4.221587926691 Eh    ::
         :: -> Gsolv                  -0.027723028475 Eh    ::
         ::    -> Gelec                0.064719643666 Eh    ::
         ::    -> Gsasa               -0.090234851889 Eh    ::
         ::    -> Ghb                 -0.004065263378 Eh    ::
         ::    -> Gshift               0.001857443127 Eh    ::
         :: repulsion energy          44.732426827360 Eh    ::
         :: add. restraining           0.000000000000 Eh    ::
         :: total charge              -0.000000000010 e     ::
         :::::::::::::::::::::::::::::::::::::::::::::::::::::

      ----------------------------------------------------------- 
     |              Fast Inertial Relaxation Engine              |
      ----------------------------------------------------------- 

          ...................................................
          :                      SETUP                      :
          :.................................................:
          :   energy convergence        0.5000000E-05 Eh    :
          :   grad. convergence         0.1000000E-02 Eh/a0 :
          :   optimization log               true           :
          :   writing optlog all                1     steps :
          :   Hessian reset                    20     steps :
          :   time step scaling                 5     steps :
          :   maximium step len.        1.0000000     a0    :
          :   initial time step         0.2500000     fs    :
          :   maximum time step         1.2500000     fs    :
          :   power reset thr           0.0000000     au    :
          :   alpha parameter           0.1000000           :
          :   BFGS update                   false           :
          :   preconditioning               false           :
          ...................................................

........................................................................
.............................. CYCLE    1 ..............................
........................................................................

 iter      E             dE          RMSdq      gap      omega  full diag
   1  -3472.3873050 -0.347239E+04  0.744E-03   10.96       0.0  T
   2  -3472.3873493 -0.443407E-04  0.391E-03   10.96       1.0  T
   3  -3472.3873498 -0.419666E-06  0.182E-03   10.96       1.0  T
   4  -3472.3873499 -0.146380E-06  0.221E-04   10.96       7.9  T
   5  -3472.3873499 -0.356108E-07  0.139E-04   10.96      12.6  T
     SCC iter.                  ...        4 min, 32.809 sec
     gradient                   ...        3 min, 54.966 sec
 * total energy  : -3426.7816349 Eh     change    :  -0.4556105E-01 Eh
   gradient norm :     0.5993377 Eh/a0  converged?    E=F G=F D=F
   time step     :     0.2500000 fs     power     :   0.2351291E-05
   step length   :     0.0741878 a0     speed     :   0.7178064E-02

........................................................................
.............................. CYCLE    2 ..............................
........................................................................

 iter      E             dE          RMSdq      gap      omega  full diag
   1  -3472.7326827 -0.347273E+04  0.109E-02   10.96       0.0  T
   2  -3472.7327776 -0.949018E-04  0.572E-03   10.96       1.0  T
   3  -3472.7327785 -0.961570E-06  0.266E-03   10.96       1.0  T
   4  -3472.7327789 -0.355429E-06  0.340E-04   10.96       5.2  T
   5  -3472.7327790 -0.835917E-07  0.221E-04   10.96       7.9  T
     SCC iter.                  ...        4 min, 33.632 sec
     gradient                   ...        3 min, 54.230 sec
 * total energy  : -3426.8443019 Eh     change    :  -0.6266696E-01 Eh
   gradient norm :     0.5506830 Eh/a0  converged?    E=F G=F D=F
   time step     :     0.2500000 fs     power     :   0.3181042E-05
   step length   :     0.1092120 a0     speed     :   0.1056684E-01

........................................................................
.............................. CYCLE    3 ..............................
........................................................................

 iter      E             dE          RMSdq      gap      omega  full diag
   1  -3473.1799029 -0.347318E+04  0.140E-02   10.96       0.0  T
   2  -3473.1800573 -0.154387E-03  0.734E-03   10.96       1.0  T
   3  -3473.1800590 -0.165298E-05  0.339E-03   10.96       1.0  T
   4  -3473.1800596 -0.606210E-06  0.446E-04   10.96       3.9  T
   5  -3473.1800597 -0.139641E-06  0.291E-04   10.96       6.0  T
     SCC iter.                  ...        4 min, 27.664 sec
     gradient                   ...        3 min, 54.127 sec
 * total energy  : -3426.9175555 Eh     change    :  -0.7325361E-01 Eh
   gradient norm :     0.4899095 Eh/a0  converged?    E=F G=F D=F
   time step     :     0.2500000 fs     power     :   0.3646964E-05
   step length   :     0.1413767 a0     speed     :   0.1367896E-01

........................................................................
.............................. CYCLE    4 ..............................
........................................................................

 iter      E             dE          RMSdq      gap      omega  full diag
   1  -3473.7173596 -0.347372E+04  0.166E-02   10.96       0.0  T
   2  -3473.7175724 -0.212788E-03  0.869E-03   10.96       1.0  T
   3  -3473.7175749 -0.244568E-05  0.397E-03   10.96       1.0  T
   4  -3473.7175757 -0.870230E-06  0.539E-04   10.96       3.3  T
   5  -3473.7175759 -0.194221E-06  0.351E-04   10.96       5.0  T
     SCC iter.                  ...        4 min, 29.053 sec
     gradient                   ...        3 min, 55.925 sec
 * total energy  : -3426.9940630 Eh     change    :  -0.7650746E-01 Eh
   gradient norm :     0.4214403 Eh/a0  converged?    E=F G=F D=F
   time step     :     0.2500000 fs     power     :   0.3719105E-05
   step length   :     0.1698291 a0     speed     :   0.1643188E-01

........................................................................
.............................. CYCLE    5 ..............................
........................................................................

 iter      E             dE          RMSdq      gap      omega  full diag
   1  -3474.3310903 -0.347433E+04  0.185E-02   10.96       0.0  T
   2  -3474.3313497 -0.259338E-03  0.973E-03   10.96       1.0  T
   3  -3474.3313530 -0.328641E-05  0.438E-03   10.96       1.0  T
   4  -3474.3313541 -0.111356E-05  0.618E-04   10.96       2.8  T
   5  -3474.3313543 -0.237005E-06  0.400E-04   10.96       4.4  T
   6  -3474.3313544 -0.128085E-06  0.168E-04   10.96      10.4  T
     SCC iter.                  ...        5 min, 27.894 sec
     gradient                   ...        3 min, 54.590 sec
 * total energy  : -3427.0667202 Eh     change    :  -0.7265726E-01 Eh
   gradient norm :     0.3520489 Eh/a0  converged?    E=F G=F D=F
   time step     :     0.2500000 fs     power     :   0.3426846E-05
   step length   :     0.1938355 a0     speed     :   0.1875463E-01

........................................................................
.............................. CYCLE    6 ..............................
........................................................................

 iter      E             dE          RMSdq      gap      omega  full diag
   1  -3475.0782995 -0.347508E+04  0.220E-02   10.96       0.0  T
   2  -3475.0786468 -0.347338E-03  0.116E-02   10.96       1.0  T
   3  -3475.0786518 -0.499676E-05  0.506E-03   10.96       1.0  T
   4  -3475.0786533 -0.152849E-05  0.743E-04   10.95       2.4  T
   5  -3475.0786536 -0.304679E-06  0.470E-04   10.95       3.7  T
   6  -3475.0786538 -0.148447E-06  0.181E-04   10.95       9.7  T
     SCC iter.                  ...        5 min, 21.102 sec
     gradient                   ...        3 min, 54.268 sec
 * total energy  : -3427.1356807 Eh     change    :  -0.6896047E-01 Eh
   gradient norm :     0.2853670 Eh/a0  converged?    E=F G=F D=F
   time step     :     0.2750000 fs     power     :   0.2777865E-05
   step length   :     0.2361631 a0     speed     :   0.2077277E-01

........................................................................
.............................. CYCLE    7 ..............................
........................................................................

 iter      E             dE          RMSdq      gap      omega  full diag
   1  -3475.9532559 -0.347595E+04  0.251E-02   10.96       0.0  T
   2  -3475.9536640 -0.408121E-03  0.132E-02   10.95       1.0  T
   3  -3475.9536713 -0.732272E-05  0.549E-03   10.95       1.0  T
   4  -3475.9536733 -0.200175E-05  0.877E-04   10.95       2.0  T
   5  -3475.9536737 -0.350588E-06  0.545E-04   10.95       3.2  T
   6  -3475.9536739 -0.170859E-06  0.191E-04   10.95       9.2  T
     SCC iter.                  ...        5 min, 21.526 sec
     gradient                   ...        3 min, 56.094 sec
 * total energy  : -3427.1927961 Eh     change    :  -0.5711542E-01 Eh
   gradient norm :     0.2420164 Eh/a0  converged?    E=F G=F D=F
   time step     :     0.3025000 fs     power     :   0.1871443E-05
   step length   :     0.2781715 a0     speed     :   0.2224346E-01

........................................................................
.............................. CYCLE    8 ..............................
........................................................................

 iter      E             dE          RMSdq      gap      omega  full diag
   1  -3476.9189906 -0.347692E+04  0.274E-02   10.95       0.0  T
   2  -3476.9193814 -0.390759E-03  0.145E-02   10.95       1.0  T
   3  -3476.9193913 -0.993918E-05  0.541E-03   10.95       1.0  T
   4  -3476.9193936 -0.227262E-05  0.985E-04   10.94       1.8  T
   5  -3476.9193939 -0.324564E-06  0.595E-04   10.94       2.9  T
   6  -3476.9193941 -0.163894E-06  0.180E-04   10.94       9.7  T
     SCC iter.                  ...        5 min, 20.863 sec
     gradient                   ...        3 min, 54.463 sec
 * total energy  : -3427.2327038 Eh     change    :  -0.3990770E-01 Eh
   gradient norm :     0.2378729 Eh/a0  converged?    E=F G=F D=F
   time step     :     0.3327500 fs     power     :   0.9550165E-06
   step length   :     0.3138344 a0     speed     :   0.2281380E-01

........................................................................
.............................. CYCLE    9 ..............................
........................................................................

 iter      E             dE          RMSdq      gap      omega  full diag
   1  -3477.8986635 -0.347790E+04  0.290E-02   10.95       0.0  T
   2  -3477.8989417 -0.278120E-03  0.157E-02   10.94       1.0  T
   3  -3477.8989538 -0.121127E-04  0.456E-03   10.94       1.0  T
   4  -3477.8989558 -0.206160E-05  0.104E-03   10.94       1.7  T
   5  -3477.8989560 -0.214869E-06  0.594E-04   10.94       3.0  T
   6  -3477.8989562 -0.123060E-06  0.143E-04   10.94      12.3  T
     SCC iter.                  ...        5 min, 23.088 sec
     gradient                   ...        3 min, 54.594 sec
 * total energy  : -3427.2562930 Eh     change    :  -0.2358924E-01 Eh
   gradient norm :     0.2536118 Eh/a0  converged?    E=F G=F D=F
   time step     :     0.3660250 fs     power     :   0.2957537E-06
   step length   :     0.3374342 a0     speed     :   0.2229941E-01

........................................................................
.............................. CYCLE   10 ..............................
........................................................................

 iter      E             dE          RMSdq      gap      omega  full diag
   1  -3478.7987011 -0.347880E+04  0.308E-02   10.94       0.0  T
   2  -3478.7988326 -0.131471E-03  0.174E-02   10.94       1.0  T
   3  -3478.7988457 -0.131220E-04  0.297E-03   10.94       1.0  T
   4  -3478.7988472 -0.151334E-05  0.104E-03   10.94       1.7  T
   5  -3478.7988473 -0.797959E-07  0.524E-04   10.94       3.3  T
   6  -3478.7988474 -0.738510E-07  0.866E-05   10.94      20.2  T
     SCC iter.                  ...        5 min, 17.380 sec
     gradient                   ...        3 min, 54.871 sec
 * total energy  : -3427.2686970 Eh     change    :  -0.1240394E-01 Eh
   gradient norm :     0.2546692 Eh/a0  converged?    E=F G=F D=F
   time step     :     0.4026275 fs     power     :  -0.7304698E-07
   step length   :     0.3504681 a0     speed     :   0.2105524E-01

........................................................................
.............................. CYCLE   11 ..............................
........................................................................
 * reset velocities

 iter      E             dE          RMSdq      gap      omega  full diag
   1  -3478.7815752 -0.347878E+04  0.116E-03   10.94       0.0  T
   2  -3478.7815760 -0.803704E-06  0.666E-04   10.94       2.6  T
   3  -3478.7815760 -0.471346E-08  0.269E-04   10.94       6.5  T
     SCC iter.                  ...        2 min, 39.315 sec
     gradient                   ...        3 min, 54.785 sec
 * total energy  : -3427.2711269 Eh     change    :  -0.2429887E-02 Eh
   gradient norm :     0.2475509 Eh/a0  converged?    E=F G=F D=F
   time step     :     0.2013138 fs     power     :   0.1578962E-06
   step length   :     0.0096768 a0     speed     :   0.1162719E-02

........................................................................
.............................. CYCLE   12 ..............................
........................................................................

 iter      E             dE          RMSdq      gap      omega  full diag
   1  -3478.7474771 -0.347875E+04  0.228E-03   10.94       0.0  T
   2  -3478.7474802 -0.310630E-05  0.131E-03   10.94       1.3  T
   3  -3478.7474802 -0.176910E-07  0.528E-04   10.94       3.3  T
   4  -3478.7474803 -0.798855E-08  0.432E-05   10.94      40.5  T
     SCC iter.                  ...        3 min, 40.655 sec
     gradient                   ...        3 min, 55.404 sec
 * total energy  : -3427.2757176 Eh     change    :  -0.4590721E-02 Eh
   gradient norm :     0.2336014 Eh/a0  converged?    E=F G=F D=F
   time step     :     0.2013138 fs     power     :   0.2938029E-06
   step length   :     0.0190831 a0     speed     :   0.2292928E-02

........................................................................
.............................. CYCLE   13 ..............................
........................................................................

 iter      E             dE          RMSdq      gap      omega  full diag
   1  -3478.6974423 -0.347870E+04  0.333E-03   10.94       0.0  T
   2  -3478.6974490 -0.672742E-05  0.192E-03   10.94       1.0  T
   3  -3478.6974490 -0.442797E-07  0.778E-04   10.94       2.3  T
   4  -3478.6974491 -0.218965E-07  0.728E-05   10.94      24.1  T
     SCC iter.                  ...        3 min, 35.107 sec
     gradient                   ...        3 min, 55.589 sec
 * total energy  : -3427.2819635 Eh     change    :  -0.6245863E-02 Eh
   gradient norm :     0.2132802 Eh/a0  converged?    E=F G=F D=F
   time step     :     0.2013138 fs     power     :   0.3928697E-06
   step length   :     0.0279586 a0     speed     :   0.3359369E-02

........................................................................
.............................. CYCLE   14 ..............................
........................................................................

 iter      E             dE          RMSdq      gap      omega  full diag
   1  -3478.6328041 -0.347863E+04  0.428E-03   10.94       0.0  T
   2  -3478.6328153 -0.111979E-04  0.247E-03   10.94       1.0  T
   3  -3478.6328153 -0.771265E-07  0.100E-03   10.94       1.7  T
   4  -3478.6328154 -0.393575E-07  0.976E-05   10.94      18.0  T
   5  -3478.6328154 -0.111454E-07  0.651E-05   10.94      26.9  T
     SCC iter.                  ...        4 min, 30.427 sec
     gradient                   ...        3 min, 55.627 sec
 * total energy  : -3427.2891810 Eh     change    :  -0.7217505E-02 Eh
   gradient norm :     0.1873152 Eh/a0  converged?    E=F G=F D=F
   time step     :     0.2013138 fs     power     :   0.4445539E-06
   step length   :     0.0360593 a0     speed     :   0.4332702E-02

........................................................................
.............................. CYCLE   15 ..............................
........................................................................

 iter      E             dE          RMSdq      gap      omega  full diag
   1  -3478.5553467 -0.347856E+04  0.510E-03   10.94       0.0  T
   2  -3478.5553627 -0.160281E-04  0.294E-03   10.94       1.0  T
   3  -3478.5553628 -0.104369E-06  0.120E-03   10.94       1.5  T
   4  -3478.5553629 -0.518180E-07  0.112E-04   10.94      15.7  T
   5  -3478.5553629 -0.148380E-07  0.732E-05   10.94      23.9  T
     SCC iter.                  ...        4 min, 29.570 sec
     gradient                   ...        3 min, 54.426 sec
 * total energy  : -3427.2965894 Eh     change    :  -0.7408434E-02 Eh
   gradient norm :     0.1567485 Eh/a0  converged?    E=F G=F D=F
   time step     :     0.2013138 fs     power     :   0.4439833E-06
   step length   :     0.0431648 a0     speed     :   0.5186466E-02

........................................................................
.............................. CYCLE   16 ..............................
........................................................................

 iter      E             dE          RMSdq      gap      omega  full diag
   1  -3478.4673143 -0.347847E+04  0.576E-03   10.94       0.0  T
   2  -3478.4673349 -0.206473E-04  0.332E-03   10.94       1.0  T
   3  -3478.4673351 -0.133201E-06  0.136E-03   10.94       1.3  T
   4  -3478.4673351 -0.659911E-07  0.126E-04   10.94      13.9  T
   5  -3478.4673352 -0.190416E-07  0.823E-05   10.94      21.3  T
     SCC iter.                  ...        4 min, 29.417 sec
     gradient                   ...        3 min, 54.422 sec
 * total energy  : -3427.3034045 Eh     change    :  -0.6815092E-02 Eh
   gradient norm :     0.1230099 Eh/a0  converged?    E=F G=F D=F
   time step     :     0.2013138 fs     power     :   0.3925062E-06
   step length   :     0.0490845 a0     speed     :   0.5897747E-02

........................................................................
.............................. CYCLE   17 ..............................
........................................................................

 iter      E             dE          RMSdq      gap      omega  full diag
   1  -3478.3610096 -0.347836E+04  0.691E-03   10.94       0.0  T
   2  -3478.3610396 -0.300770E-04  0.399E-03   10.94       1.0  T
   3  -3478.3610398 -0.190460E-06  0.165E-03   10.94       1.1  T
   4  -3478.3610399 -0.933596E-07  0.151E-04   10.94      11.6  T
   5  -3478.3610400 -0.275109E-07  0.970E-05   10.94      18.1  T
     SCC iter.                  ...        4 min, 29.494 sec
     gradient                   ...        3 min, 54.894 sec
 * total energy  : -3427.3094208 Eh     change    :  -0.6016285E-02 Eh
   gradient norm :     0.0849392 Eh/a0  converged?    E=F G=F D=F
   time step     :     0.2214451 fs     power     :   0.2860374E-06
   step length   :     0.0595245 a0     speed     :   0.6501968E-02

........................................................................
.............................. CYCLE   18 ..............................
........................................................................

 iter      E             dE          RMSdq      gap      omega  full diag
   1  -3478.2383419 -0.347824E+04  0.792E-03   10.94       0.0  T
   2  -3478.2383821 -0.401999E-04  0.458E-03   10.94       1.0  T
   3  -3478.2383824 -0.252655E-06  0.191E-03   10.94       1.0  T
   4  -3478.2383825 -0.122056E-06  0.174E-04   10.95      10.1  T
   5  -3478.2383825 -0.365744E-07  0.110E-04   10.95      15.9  T
     SCC iter.                  ...        4 min, 32.289 sec
     gradient                   ...        3 min, 54.841 sec
 * total energy  : -3427.3134625 Eh     change    :  -0.4041736E-02 Eh
   gradient norm :     0.0518874 Eh/a0  converged?    E=F G=F D=F
   time step     :     0.2435896 fs     power     :   0.1304797E-06
   step length   :     0.0696741 a0     speed     :   0.6918750E-02

........................................................................
.............................. CYCLE   19 ..............................
........................................................................

 iter      E             dE          RMSdq      gap      omega  full diag
   1  -3478.1093457 -0.347811E+04  0.832E-03   10.94       0.0  T
   2  -3478.1093910 -0.453193E-04  0.483E-03   10.95       1.0  T
   3  -3478.1093913 -0.287087E-06  0.203E-03   10.95       1.0  T
   4  -3478.1093915 -0.134390E-06  0.184E-04   10.95       9.5  T
   5  -3478.1093915 -0.414298E-07  0.113E-04   10.95      15.5  T
     SCC iter.                  ...        4 min, 29.530 sec
     gradient                   ...        3 min, 54.554 sec
 * total energy  : -3427.3145700 Eh     change    :  -0.1107538E-02 Eh
   gradient norm :     0.0561154 Eh/a0  converged?    E=F G=F D=F
   time step     :     0.2679486 fs     power     :  -0.3655037E-07
   step length   :     0.0768640 a0     speed     :   0.6938837E-02

........................................................................
.............................. CYCLE   20 ..............................
........................................................................
 * reset velocities

 iter      E             dE          RMSdq      gap      omega  full diag
   1  -3478.1106176 -0.347811E+04  0.118E-04   10.95       0.0  T
   2  -3478.1106176 -0.534601E-08  0.759E-05   10.95      23.1  T
   3  -3478.1106176 -0.314139E-08  0.328E-05   10.95      53.4  T
     SCC iter.                  ...        2 min, 44.081 sec
     gradient                   ...        3 min, 53.828 sec
 * total energy  : -3427.3146229 Eh     change    :  -0.5283784E-04 Eh
   gradient norm :     0.0557790 Eh/a0  converged?    E=F G=F D=T
   time step     :     0.1339743 fs     power     :   0.5217107E-08
   step length   :     0.0009444 a0     speed     :   0.1705017E-03
 * RMSD in coord.:     0.0348514 a0     energy gain  -0.5785490E+00 Eh

........................................................................
.............................. CYCLE   21 ..............................
........................................................................

 iter      E             dE          RMSdq      gap      omega  full diag
   1  -3478.1171085 -0.347812E+04  0.545E-04   10.95       0.0  T
   2  -3478.1171085 -0.794312E-07  0.310E-04   10.95       5.7  T
   3  -3478.1171085 -0.742602E-09  0.812E-05   10.95      21.6  T
     SCC iter.                  ...        2 min, 40.672 sec
     gradient                   ...        3 min, 54.073 sec
 * total energy  : -3427.3148994 Eh     change    :  -0.2764763E-03 Eh
   gradient norm :     0.0541631 Eh/a0  converged?    E=F G=F D=F
   time step     :     0.2500000 fs     power     :   0.1445404E-07
   step length   :     0.0050308 a0     speed     :   0.4867529E-03

........................................................................
.............................. CYCLE   22 ..............................
........................................................................

 iter      E             dE          RMSdq      gap      omega  full diag
   1  -3478.1275096 -0.347813E+04  0.889E-04   10.95       0.0  T
   2  -3478.1275098 -0.202902E-06  0.506E-04   10.95       3.5  T
   3  -3478.1275098 -0.340788E-08  0.130E-04   10.95      13.5  T
     SCC iter.                  ...        2 min, 43.363 sec
     gradient                   ...        3 min, 55.507 sec
 * total energy  : -3427.3153330 Eh     change    :  -0.4336835E-03 Eh
   gradient norm :     0.0517152 Eh/a0  converged?    E=F G=F D=F
   time step     :     0.2500000 fs     power     :   0.2245413E-07
   step length   :     0.0082034 a0     speed     :   0.7937261E-03

........................................................................
.............................. CYCLE   23 ..............................
........................................................................

 iter      E             dE          RMSdq      gap      omega  full diag
   1  -3478.1413363 -0.347814E+04  0.120E-03   10.95       0.0  T
   2  -3478.1413367 -0.354769E-06  0.681E-04   10.95       2.6  T
   3  -3478.1413367 -0.775208E-08  0.172E-04   10.95      10.2  T
     SCC iter.                  ...        2 min, 45.571 sec
     gradient                   ...        3 min, 54.991 sec
 * total energy  : -3427.3158944 Eh     change    :  -0.5613311E-03 Eh
   gradient norm :     0.0487397 Eh/a0  converged?    E=F G=F D=F
   time step     :     0.2500000 fs     power     :   0.2879254E-07
   step length   :     0.0112267 a0     speed     :   0.1086245E-02

........................................................................
.............................. CYCLE   24 ..............................
........................................................................

 iter      E             dE          RMSdq      gap      omega  full diag
   1  -3478.1579083 -0.347816E+04  0.146E-03   10.95       0.0  T
   2  -3478.1579088 -0.499761E-06  0.833E-04   10.95       2.1  T
   3  -3478.1579088 -0.127939E-07  0.204E-04   10.95       8.6  T
     SCC iter.                  ...        2 min, 44.502 sec
     gradient                   ...        3 min, 54.665 sec
 * total energy  : -3427.3165499 Eh     change    :  -0.6555511E-03 Eh
   gradient norm :     0.0456527 Eh/a0  converged?    E=F G=F D=F
   time step     :     0.2500000 fs     power     :   0.3335581E-07
   step length   :     0.0140581 a0     speed     :   0.1360198E-02

........................................................................
.............................. CYCLE   25 ..............................
........................................................................

 iter      E             dE          RMSdq      gap      omega  full diag
   1  -3478.1763545 -0.347818E+04  0.167E-03   10.95       0.0  T
   2  -3478.1763551 -0.600104E-06  0.953E-04   10.95       1.8  T
   3  -3478.1763551 -0.180503E-07  0.222E-04   10.95       7.9  T
     SCC iter.                  ...        2 min, 48.046 sec
     gradient                   ...        3 min, 55.573 sec
 * total energy  : -3427.3172689 Eh     change    :  -0.7189847E-03 Eh
   gradient norm :     0.0429224 Eh/a0  converged?    E=F G=F D=F
   time step     :     0.2500000 fs     power     :   0.3637881E-07
   step length   :     0.0166689 a0     speed     :   0.1612810E-02

........................................................................
.............................. CYCLE   26 ..............................
........................................................................

 iter      E             dE          RMSdq      gap      omega  full diag
   1  -3478.1977398 -0.347820E+04  0.202E-03   10.95       0.0  T
   2  -3478.1977406 -0.767574E-06  0.115E-03   10.95       1.5  T
   3  -3478.1977406 -0.266068E-07  0.249E-04   10.95       7.0  T
   4  -3478.1977406 -0.105797E-07  0.583E-05   10.95      30.1  T
     SCC iter.                  ...        3 min, 34.627 sec
     gradient                   ...        3 min, 54.690 sec
 * total energy  : -3427.3181124 Eh     change    :  -0.8434785E-03 Eh
   gradient norm :     0.0407899 Eh/a0  converged?    E=F G=F D=F
   time step     :     0.2750000 fs     power     :   0.3852547E-07
   step length   :     0.0212203 a0     speed     :   0.1866529E-02

........................................................................
.............................. CYCLE   27 ..............................
........................................................................

 iter      E             dE          RMSdq      gap      omega  full diag
   1  -3478.2209465 -0.347822E+04  0.234E-03   10.95       0.0  T
   2  -3478.2209473 -0.845800E-06  0.134E-03   10.95       1.3  T
   3  -3478.2209474 -0.335563E-07  0.257E-04   10.95       6.8  T
   4  -3478.2209474 -0.140813E-07  0.651E-05   10.95      26.9  T
     SCC iter.                  ...        3 min, 32.796 sec
     gradient                   ...        3 min, 54.663 sec
 * total energy  : -3427.3190874 Eh     change    :  -0.9749819E-03 Eh
   gradient norm :     0.0397274 Eh/a0  converged?    E=F G=F D=F
   time step     :     0.3025000 fs     power     :   0.4040627E-07
   step length   :     0.0264863 a0     speed     :   0.2117927E-02

........................................................................
.............................. CYCLE   28 ..............................
........................................................................

 iter      E             dE          RMSdq      gap      omega  full diag
   1  -3478.2440282 -0.347824E+04  0.262E-03   10.95       0.0  T
   2  -3478.2440289 -0.735689E-06  0.150E-03   10.95       1.2  T
   3  -3478.2440290 -0.421542E-07  0.234E-04   10.95       7.5  T
   4  -3478.2440290 -0.171440E-07  0.716E-05   10.95      24.5  T
     SCC iter.                  ...        3 min, 34.280 sec
     gradient                   ...        3 min, 55.086 sec
 * total energy  : -3427.3202227 Eh     change    :  -0.1135343E-02 Eh
   gradient norm :     0.0396927 Eh/a0  converged?    E=F G=F D=F
   time step     :     0.3327500 fs     power     :   0.4301669E-07
   step length   :     0.0325647 a0     speed     :   0.2367250E-02

........................................................................
.............................. CYCLE   29 ..............................
........................................................................

 iter      E             dE          RMSdq      gap      omega  full diag
   1  -3478.2643772 -0.347826E+04  0.283E-03   10.95       0.0  T
   2  -3478.2643777 -0.475565E-06  0.163E-03   10.95       1.1  T
   3  -3478.2643778 -0.486561E-07  0.187E-04   10.95       9.4  T
   4  -3478.2643778 -0.203636E-07  0.756E-05   10.95      23.2  T
     SCC iter.                  ...        3 min, 35.972 sec
     gradient                   ...        3 min, 54.382 sec
 * total energy  : -3427.3215764 Eh     change    :  -0.1353688E-02 Eh
   gradient norm :     0.0398259 Eh/a0  converged?    E=F G=F D=F
   time step     :     0.3660250 fs     power     :   0.4710518E-07
   step length   :     0.0396817 a0     speed     :   0.2622376E-02

........................................................................
.............................. CYCLE   30 ..............................
........................................................................

 iter      E             dE          RMSdq      gap      omega  full diag
   1  -3478.2792481 -0.347828E+04  0.304E-03   10.95       0.0  T
   2  -3478.2792484 -0.284670E-06  0.178E-03   10.95       1.0  T
   3  -3478.2792485 -0.513169E-07  0.153E-04   10.95      11.5  T
   4  -3478.2792485 -0.249861E-07  0.765E-05   10.95      22.9  T
     SCC iter.                  ...        3 min, 41.339 sec
     gradient                   ...        3 min, 54.867 sec
 * total energy  : -3427.3232200 Eh     change    :  -0.1643648E-02 Eh
   gradient norm :     0.0388049 Eh/a0  converged?    E=F G=F D=F
   time step     :     0.4026275 fs     power     :   0.5229388E-07
   step length   :     0.0482350 a0     speed     :   0.2897838E-02

........................................................................
.............................. CYCLE   31 ..............................
........................................................................

 iter      E             dE          RMSdq      gap      omega  full diag
   1  -3478.2866463 -0.347829E+04  0.335E-03   10.95       0.0  T
   2  -3478.2866468 -0.525326E-06  0.198E-03   10.95       1.0  T
   3  -3478.2866469 -0.515238E-07  0.168E-04   10.95      10.4  T
   4  -3478.2866469 -0.305840E-07  0.729E-05   10.95      24.0  T
     SCC iter.                  ...        3 min, 34.290 sec
     gradient                   ...        3 min, 55.432 sec
 * total energy  : -3427.3251912 Eh     change    :  -0.1971138E-02 Eh
   gradient norm :     0.0356926 Eh/a0  converged?    E=F G=F D=F
   time step     :     0.4428903 fs     power     :   0.5661749E-07
   step length   :     0.0586967 a0     speed     :   0.3205772E-02

........................................................................
.............................. CYCLE   32 ..............................
........................................................................

 iter      E             dE          RMSdq      gap      omega  full diag
   1  -3478.2868379 -0.347829E+04  0.382E-03   10.95       0.0  T
   2  -3478.2868393 -0.139173E-05  0.229E-03   10.95       1.0  T
   3  -3478.2868394 -0.596433E-07  0.248E-04   10.95       7.1  T
   4  -3478.2868394 -0.353425E-07  0.750E-05   10.95      23.4  T
     SCC iter.                  ...        3 min, 35.036 sec
     gradient                   ...        3 min, 55.999 sec
 * total energy  : -3427.3274363 Eh     change    :  -0.2245134E-02 Eh
   gradient norm :     0.0311185 Eh/a0  converged?    E=F G=F D=F
   time step     :     0.4871793 fs     power     :   0.5738018E-07
   step length   :     0.0713919 a0     speed     :   0.3544664E-02

........................................................................
.............................. CYCLE   33 ..............................
........................................................................

 iter      E             dE          RMSdq      gap      omega  full diag
   1  -3478.2846202 -0.347828E+04  0.439E-03   10.95       0.0  T
   2  -3478.2846225 -0.227828E-05  0.265E-03   10.95       1.0  T
   3  -3478.2846226 -0.736036E-07  0.316E-04   10.95       5.5  T
   4  -3478.2846226 -0.391947E-07  0.794E-05   10.95      22.1  T
     SCC iter.                  ...        3 min, 37.579 sec
     gradient                   ...        3 min, 56.239 sec
 * total energy  : -3427.3298202 Eh     change    :  -0.2383873E-02 Eh
   gradient norm :     0.0280786 Eh/a0  converged?    E=F G=F D=F
   time step     :     0.5358972 fs     power     :   0.5392164E-07
   step length   :     0.0862420 a0     speed     :   0.3892712E-02

........................................................................
.............................. CYCLE   34 ..............................
........................................................................

 iter      E             dE          RMSdq      gap      omega  full diag
   1  -3478.2912354 -0.347829E+04  0.498E-03   10.95       0.0  T
   2  -3478.2912372 -0.183204E-05  0.300E-03   10.95       1.0  T
   3  -3478.2912373 -0.937557E-07  0.243E-04   10.95       7.2  T
   4  -3478.2912374 -0.386335E-07  0.836E-05   10.95      21.0  T
     SCC iter.                  ...        3 min, 35.051 sec
     gradient                   ...        3 min, 55.781 sec
 * total energy  : -3427.3322694 Eh     change    :  -0.2449242E-02 Eh
   gradient norm :     0.0283721 Eh/a0  converged?    E=F G=F D=F
   time step     :     0.5894869 fs     power     :   0.4999463E-07
   step length   :     0.1025107 a0     speed     :   0.4206396E-02

........................................................................
.............................. CYCLE   35 ..............................
........................................................................

 iter      E             dE          RMSdq      gap      omega  full diag
   1  -3478.3200395 -0.347832E+04  0.574E-03   10.95       0.0  T
   2  -3478.3200400 -0.519520E-06  0.340E-03   10.95       1.0  T
   3  -3478.3200402 -0.132456E-06  0.167E-04   10.95      10.5  T
   4  -3478.3200402 -0.260361E-07  0.914E-05   10.95      19.2  T
     SCC iter.                  ...        3 min, 43.470 sec
     gradient                   ...        3 min, 56.236 sec
 * total energy  : -3427.3348814 Eh     change    :  -0.2612001E-02 Eh
   gradient norm :     0.0277519 Eh/a0  converged?    E=F G=F D=F
   time step     :     0.6484356 fs     power     :   0.4898711E-07
   step length   :     0.1196748 a0     speed     :   0.4464276E-02

........................................................................
.............................. CYCLE   36 ..............................
........................................................................

 iter      E             dE          RMSdq      gap      omega  full diag
   1  -3478.3770311 -0.347838E+04  0.688E-03   10.95       0.0  T
   2  -3478.3770323 -0.116625E-05  0.399E-03   10.95       1.0  T
   3  -3478.3770325 -0.180464E-06  0.230E-04   10.95       7.6  T
   4  -3478.3770325 -0.210739E-07  0.103E-04   10.95      17.0  T
     SCC iter.                  ...        3 min, 39.214 sec
     gradient                   ...        3 min, 56.520 sec
 * total energy  : -3427.3376898 Eh     change    :  -0.2808346E-02 Eh
   gradient norm :     0.0237522 Eh/a0  converged?    E=F G=F D=F
   time step     :     0.7132792 fs     power     :   0.4692725E-07
   step length   :     0.1389569 a0     speed     :   0.4712329E-02

........................................................................
.............................. CYCLE   37 ..............................
........................................................................

 iter      E             dE          RMSdq      gap      omega  full diag
   1  -3478.4504414 -0.347845E+04  0.778E-03   10.95       0.0  T
   2  -3478.4504442 -0.283329E-05  0.447E-03   10.95       1.0  T
   3  -3478.4504444 -0.202326E-06  0.370E-04   10.95       4.7  T
   4  -3478.4504444 -0.308000E-07  0.109E-04   10.95      16.0  T
     SCC iter.                  ...        3 min, 36.867 sec
     gradient                   ...        3 min, 54.939 sec
 * total energy  : -3427.3404846 Eh     change    :  -0.2794858E-02 Eh
   gradient norm :     0.0233270 Eh/a0  converged?    E=F G=F D=F
   time step     :     0.7846071 fs     power     :   0.4077019E-07
   step length   :     0.1610759 a0     speed     :   0.4965848E-02

........................................................................
.............................. CYCLE   38 ..............................
........................................................................

 iter      E             dE          RMSdq      gap      omega  full diag
   1  -3478.5056239 -0.347851E+04  0.746E-03   10.95       0.0  T
   2  -3478.5056248 -0.854204E-06  0.434E-03   10.96       1.0  T
   3  -3478.5056250 -0.186880E-06  0.201E-04   10.96       8.7  T
   4  -3478.5056250 -0.196119E-07  0.969E-05   10.95      18.1  T
     SCC iter.                  ...        3 min, 31.260 sec
     gradient                   ...        3 min, 56.013 sec
 * total energy  : -3427.3433363 Eh     change    :  -0.2851656E-02 Eh
   gradient norm :     0.0252806 Eh/a0  converged?    E=F G=F D=F
   time step     :     0.8630678 fs     power     :   0.3903596E-07
   step length   :     0.1836540 a0     speed     :   0.5147194E-02

........................................................................
.............................. CYCLE   39 ..............................
........................................................................

 iter      E             dE          RMSdq      gap      omega  full diag
   1  -3478.5191249 -0.347852E+04  0.691E-03   10.96       0.0  T
   2  -3478.5191273 -0.236332E-05  0.414E-03   10.96       1.0  T
   3  -3478.5191275 -0.216371E-06  0.242E-04   10.96       7.2  T
   4  -3478.5191275 -0.277605E-07  0.117E-04   10.96      15.0  T
     SCC iter.                  ...        3 min, 32.578 sec
     gradient                   ...        3 min, 56.348 sec
 * total energy  : -3427.3465176 Eh     change    :  -0.3181333E-02 Eh
   gradient norm :     0.0222915 Eh/a0  converged?    E=F G=F D=F
   time step     :     0.9493746 fs     power     :   0.3950251E-07
   step length   :     0.2082564 a0     speed     :   0.5306106E-02

........................................................................
.............................. CYCLE   40 ..............................
........................................................................

 iter      E             dE          RMSdq      gap      omega  full diag
   1  -3478.5110022 -0.347851E+04  0.696E-03   10.96       0.0  T
   2  -3478.5110073 -0.514421E-05  0.419E-03   10.96       1.0  T
   3  -3478.5110076 -0.300190E-06  0.427E-04   10.97       4.1  T
   4  -3478.5110077 -0.548957E-07  0.159E-04   10.97      11.0  T
     SCC iter.                  ...        3 min, 31.539 sec
     gradient                   ...        3 min, 55.729 sec
 * total energy  : -3427.3498816 Eh     change    :  -0.3363935E-02 Eh
   gradient norm :     0.0243987 Eh/a0  converged?    E=F G=F D=F
   time step     :     1.0443120 fs     power     :   0.3730729E-07
   step length   :     0.2375996 a0     speed     :   0.5503394E-02

........................................................................
.............................. CYCLE   41 ..............................
........................................................................

 iter      E             dE          RMSdq      gap      omega  full diag
   1  -3478.5367327 -0.347854E+04  0.782E-03   10.97       0.0  T
   2  -3478.5367336 -0.952699E-06  0.458E-03   10.97       1.0  T
   3  -3478.5367339 -0.307798E-06  0.254E-04   10.97       6.9  T
   4  -3478.5367340 -0.364794E-07  0.150E-04   10.97      11.7  T
     SCC iter.                  ...        3 min, 33.081 sec
     gradient                   ...        3 min, 55.596 sec
 * total energy  : -3427.3537736 Eh     change    :  -0.3892007E-02 Eh
   gradient norm :     0.0222817 Eh/a0  converged?    E=F G=F D=F
   time step     :     1.1487432 fs     power     :   0.4098372E-07
   step length   :     0.2694097 a0     speed     :   0.5672902E-02

........................................................................
.............................. CYCLE   42 ..............................
........................................................................

 iter      E             dE          RMSdq      gap      omega  full diag
   1  -3478.5906942 -0.347859E+04  0.918E-03   10.98       0.0  T
   2  -3478.5906978 -0.363199E-05  0.533E-03   10.98       1.0  T
   3  -3478.5906981 -0.299996E-06  0.385E-04   10.98       4.6  T
   4  -3478.5906982 -0.433129E-07  0.133E-04   10.98      13.2  T
     SCC iter.                  ...        3 min, 34.744 sec
     gradient                   ...        3 min, 56.714 sec
 * total energy  : -3427.3580145 Eh     change    :  -0.4240888E-02 Eh
   gradient norm :     0.0224366 Eh/a0  converged?    E=F G=F D=F
   time step     :     1.2500000 fs     power     :   0.3893429E-07
   step length   :     0.3057926 a0     speed     :   0.5917414E-02
 * RMSD in coord.:     0.0352302 a0     energy gain  -0.4339158E-01 Eh

........................................................................
.............................. CYCLE   43 ..............................
........................................................................

 iter      E             dE          RMSdq      gap      omega  full diag
   1  -3478.5941543 -0.347859E+04  0.152E-03   10.98       0.0  T
   2  -3478.5941543 -0.449295E-07  0.894E-04   10.98       2.0  T
   3  -3478.5941544 -0.125842E-07  0.547E-05   10.98      32.1  T
     SCC iter.                  ...        2 min, 44.994 sec
     gradient                   ...        3 min, 55.074 sec
 * total energy  : -3427.3588268 Eh     change    :  -0.8123284E-03 Eh
   gradient norm :     0.0222034 Eh/a0  converged?    E=F G=F D=F
   time step     :     0.2500000 fs     power     :   0.4234516E-07
   step length   :     0.0593480 a0     speed     :   0.5742239E-02

........................................................................
.............................. CYCLE   44 ..............................
........................................................................

 iter      E             dE          RMSdq      gap      omega  full diag
   1  -3478.5910777 -0.347859E+04  0.148E-03   10.98       0.0  T
   2  -3478.5910779 -0.188684E-06  0.873E-04   10.98       2.0  T
   3  -3478.5910779 -0.131181E-07  0.869E-05   10.98      20.2  T
     SCC iter.                  ...        2 min, 49.122 sec
     gradient                   ...        3 min, 55.285 sec
 * total energy  : -3427.3596864 Eh     change    :  -0.8596384E-03 Eh
   gradient norm :     0.0205142 Eh/a0  converged?    E=F G=F D=F
   time step     :     0.2500000 fs     power     :   0.4461663E-07
   step length   :     0.0580803 a0     speed     :   0.5619577E-02

........................................................................
.............................. CYCLE   45 ..............................
........................................................................

 iter      E             dE          RMSdq      gap      omega  full diag
   1  -3478.5833719 -0.347858E+04  0.162E-03   10.99       0.0  T
   2  -3478.5833723 -0.424432E-06  0.950E-04   10.99       1.8  T
   3  -3478.5833724 -0.153909E-07  0.154E-04   10.99      11.3  T
     SCC iter.                  ...        2 min, 43.310 sec
     gradient                   ...        3 min, 55.136 sec
 * total energy  : -3427.3605576 Eh     change    :  -0.8711333E-03 Eh
   gradient norm :     0.0184473 Eh/a0  converged?    E=F G=F D=F
   time step     :     0.2500000 fs     power     :   0.4468754E-07
   step length   :     0.0574332 a0     speed     :   0.5556969E-02

........................................................................
.............................. CYCLE   46 ..............................
........................................................................

 iter      E             dE          RMSdq      gap      omega  full diag
   1  -3478.5740878 -0.347857E+04  0.175E-03   10.99       0.0  T
   2  -3478.5740883 -0.522948E-06  0.102E-03   10.99       1.7  T
   3  -3478.5740883 -0.168029E-07  0.175E-04   10.99      10.0  T
   4  -3478.5740883 -0.563386E-08  0.378E-05   10.99      46.4  T
     SCC iter.                  ...        3 min, 36.681 sec
     gradient                   ...        3 min, 55.535 sec
 * total energy  : -3427.3614067 Eh     change    :  -0.8491165E-03 Eh
   gradient norm :     0.0173915 Eh/a0  converged?    E=F G=F D=F
   time step     :     0.2500000 fs     power     :   0.4322645E-07
   step length   :     0.0572629 a0     speed     :   0.5540490E-02

........................................................................
.............................. CYCLE   47 ..............................
........................................................................

 iter      E             dE          RMSdq      gap      omega  full diag
   1  -3478.5668516 -0.347857E+04  0.178E-03   10.99       0.0  T
   2  -3478.5668519 -0.383444E-06  0.104E-03   10.99       1.7  T
   3  -3478.5668519 -0.149084E-07  0.139E-04   10.99      12.6  T
   4  -3478.5668520 -0.570481E-08  0.330E-05   10.99      53.1  T
     SCC iter.                  ...        3 min, 32.933 sec
     gradient                   ...        3 min, 55.855 sec
 * total energy  : -3427.3622267 Eh     change    :  -0.8199763E-03 Eh
   gradient norm :     0.0175265 Eh/a0  converged?    E=F G=F D=F
   time step     :     0.2500000 fs     power     :   0.4191256E-07
   step length   :     0.0571846 a0     speed     :   0.5532920E-02

........................................................................
.............................. CYCLE   48 ..............................
........................................................................

 iter      E             dE          RMSdq      gap      omega  full diag
   1  -3478.5642104 -0.347856E+04  0.193E-03   10.99       0.0  T
   2  -3478.5642106 -0.179735E-06  0.113E-03   10.99       1.6  T
   3  -3478.5642106 -0.158134E-07  0.810E-05   10.99      21.6  T
   4  -3478.5642106 -0.543514E-08  0.289E-05   10.99      60.7  T
     SCC iter.                  ...        3 min, 40.675 sec
     gradient                   ...        3 min, 55.953 sec
 * total energy  : -3427.3631130 Eh     change    :  -0.8863481E-03 Eh
   gradient norm :     0.0176516 Eh/a0  converged?    E=F G=F D=F
   time step     :     0.2750000 fs     power     :   0.4144305E-07
   step length   :     0.0627196 a0     speed     :   0.5516782E-02

........................................................................
.............................. CYCLE   49 ..............................
........................................................................

 iter      E             dE          RMSdq      gap      omega  full diag
   1  -3478.5685352 -0.347857E+04  0.213E-03   10.99       0.0  T
   2  -3478.5685353 -0.763998E-07  0.124E-03   10.99       1.4  T
   3  -3478.5685353 -0.191685E-07  0.631E-05   10.99      27.8  T
   4  -3478.5685353 -0.485034E-08  0.297E-05   10.99      58.9  T
     SCC iter.                  ...        3 min, 35.974 sec
     gradient                   ...        3 min, 55.128 sec
 * total energy  : -3427.3640813 Eh     change    :  -0.9682641E-03 Eh
   gradient norm :     0.0165927 Eh/a0  converged?    E=F G=F D=F
   time step     :     0.3025000 fs     power     :   0.4114413E-07
   step length   :     0.0688367 a0     speed     :   0.5504396E-02

........................................................................
.............................. CYCLE   50 ..............................
........................................................................

 iter      E             dE          RMSdq      gap      omega  full diag
   1  -3478.5802520 -0.347858E+04  0.241E-03   10.99       0.0  T
   2  -3478.5802522 -0.250991E-06  0.140E-03   10.99       1.2  T
   3  -3478.5802522 -0.252935E-07  0.974E-05   10.99      18.0  T
   4  -3478.5802522 -0.516047E-08  0.363E-05   10.99      48.2  T
     SCC iter.                  ...        3 min, 29.685 sec
     gradient                   ...        3 min, 55.462 sec
 * total energy  : -3427.3651182 Eh     change    :  -0.1036913E-02 Eh
   gradient norm :     0.0145693 Eh/a0  converged?    E=F G=F D=F
   time step     :     0.3327500 fs     power     :   0.3953204E-07
   step length   :     0.0759872 a0     speed     :   0.5523793E-02

........................................................................
.............................. CYCLE   51 ..............................
........................................................................

 iter      E             dE          RMSdq      gap      omega  full diag
   1  -3478.5963391 -0.347860E+04  0.264E-03   10.99       0.0  T
   2  -3478.5963396 -0.497113E-06  0.154E-03   10.99       1.1  T
   3  -3478.5963396 -0.317646E-07  0.146E-04   10.99      12.0  T
   4  -3478.5963396 -0.639466E-08  0.433E-05   10.99      40.4  T
     SCC iter.                  ...        3 min, 34.563 sec
     gradient                   ...        3 min, 54.550 sec
 * total energy  : -3427.3661849 Eh     change    :  -0.1066773E-02 Eh
   gradient norm :     0.0136858 Eh/a0  converged?    E=F G=F D=F
   time step     :     0.3660250 fs     power     :   0.3639500E-07
   step length   :     0.0844925 a0     speed     :   0.5583706E-02

........................................................................
.............................. CYCLE   52 ..............................
........................................................................

 iter      E             dE          RMSdq      gap      omega  full diag
   1  -3478.6092015 -0.347861E+04  0.265E-03   10.99       0.0  T
   2  -3478.6092019 -0.326062E-06  0.155E-03   10.99       1.1  T
   3  -3478.6092019 -0.344849E-07  0.110E-04   10.99      16.0  T
   4  -3478.6092019 -0.594264E-08  0.429E-05   10.99      40.8  T
     SCC iter.                  ...        3 min, 36.335 sec
     gradient                   ...        3 min, 56.721 sec
 * total energy  : -3427.3672739 Eh     change    :  -0.1088976E-02 Eh
   gradient norm :     0.0144461 Eh/a0  converged?    E=F G=F D=F
   time step     :     0.4026275 fs     power     :   0.3391081E-07
   step length   :     0.0937301 a0     speed     :   0.5631067E-02

........................................................................
.............................. CYCLE   53 ..............................
........................................................................

 iter      E             dE          RMSdq      gap      omega  full diag
   1  -3478.6116887 -0.347861E+04  0.258E-03   11.00       0.0  T
   2  -3478.6116888 -0.119033E-06  0.152E-03   11.00       1.2  T
   3  -3478.6116889 -0.365853E-07  0.793E-05   11.00      22.1  T
   4  -3478.6116889 -0.519640E-08  0.426E-05   11.00      41.1  T
     SCC iter.                  ...        3 min, 36.992 sec
     gradient                   ...        3 min, 55.740 sec
 * total energy  : -3427.3684246 Eh     change    :  -0.1150635E-02 Eh
   gradient norm :     0.0140603 Eh/a0  converged?    E=F G=F D=F
   time step     :     0.4428903 fs     power     :   0.3286699E-07
   step length   :     0.1030866 a0     speed     :   0.5630165E-02

........................................................................
.............................. CYCLE   54 ..............................
........................................................................

 iter      E             dE          RMSdq      gap      omega  full diag
   1  -3478.6022452 -0.347860E+04  0.269E-03   11.00       0.0  T
   2  -3478.6022457 -0.557769E-06  0.158E-03   11.00       1.1  T
   3  -3478.6022458 -0.453483E-07  0.144E-04   11.00      12.2  T
   4  -3478.6022458 -0.682803E-08  0.515E-05   11.00      34.0  T
     SCC iter.                  ...        3 min, 35.755 sec
     gradient                   ...        3 min, 55.219 sec
 * total energy  : -3427.3696403 Eh     change    :  -0.1215711E-02 Eh
   gradient norm :     0.0125746 Eh/a0  converged?    E=F G=F D=F
   time step     :     0.4871793 fs     power     :   0.3116168E-07
   step length   :     0.1135264 a0     speed     :   0.5636678E-02

........................................................................
.............................. CYCLE   55 ..............................
........................................................................

 iter      E             dE          RMSdq      gap      omega  full diag
   1  -3478.5890227 -0.347859E+04  0.272E-03   11.00       0.0  T
   2  -3478.5890236 -0.856080E-06  0.160E-03   11.00       1.1  T
   3  -3478.5890236 -0.545206E-07  0.201E-04   11.00       8.7  T
   4  -3478.5890236 -0.871842E-08  0.620E-05   11.00      28.3  T
     SCC iter.                  ...        3 min, 32.580 sec
     gradient                   ...        3 min, 56.545 sec
 * total energy  : -3427.3708894 Eh     change    :  -0.1249134E-02 Eh
   gradient norm :     0.0132780 Eh/a0  converged?    E=F G=F D=F
   time step     :     0.5358972 fs     power     :   0.2892659E-07
   step length   :     0.1256032 a0     speed     :   0.5669363E-02

........................................................................
.............................. CYCLE   56 ..............................
........................................................................

 iter      E             dE          RMSdq      gap      omega  full diag
   1  -3478.5871806 -0.347859E+04  0.261E-03   11.00       0.0  T
   2  -3478.5871808 -0.275387E-06  0.153E-03   11.00       1.1  T
   3  -3478.5871809 -0.508726E-07  0.121E-04   11.00      14.5  T
   4  -3478.5871809 -0.889486E-08  0.613E-05   11.00      28.6  T
     SCC iter.                  ...        3 min, 36.909 sec
     gradient                   ...        3 min, 55.376 sec
 * total energy  : -3427.3722210 Eh     change    :  -0.1331570E-02 Eh
   gradient norm :     0.0135841 Eh/a0  converged?    E=F G=F D=F
   time step     :     0.5894869 fs     power     :   0.2858787E-07
   step length   :     0.1379145 a0     speed     :   0.5659146E-02

........................................................................
.............................. CYCLE   57 ..............................
........................................................................

 iter      E             dE          RMSdq      gap      omega  full diag
   1  -3478.6033991 -0.347860E+04  0.300E-03   11.01       0.0  T
   2  -3478.6033996 -0.462655E-06  0.174E-03   11.01       1.0  T
   3  -3478.6033996 -0.447976E-07  0.167E-04   11.01      10.5  T
   4  -3478.6033996 -0.126029E-07  0.590E-05   11.01      29.7  T
     SCC iter.                  ...        3 min, 32.665 sec
     gradient                   ...        3 min, 56.565 sec
 * total energy  : -3427.3736695 Eh     change    :  -0.1448500E-02 Eh
   gradient norm :     0.0121414 Eh/a0  converged?    E=F G=F D=F
   time step     :     0.6484356 fs     power     :   0.2797127E-07
   step length   :     0.1515320 a0     speed     :   0.5652657E-02

........................................................................
.............................. CYCLE   58 ..............................
........................................................................

 iter      E             dE          RMSdq      gap      omega  full diag
   1  -3478.6272526 -0.347863E+04  0.334E-03   11.01       0.0  T
   2  -3478.6272532 -0.590866E-06  0.194E-03   11.01       1.0  T
   3  -3478.6272533 -0.464720E-07  0.182E-04   11.01       9.6  T
   4  -3478.6272533 -0.118253E-07  0.597E-05   11.01      29.3  T
     SCC iter.                  ...        3 min, 31.761 sec
     gradient                   ...        3 min, 55.715 sec
 * total energy  : -3427.3751991 Eh     change    :  -0.1529666E-02 Eh
   gradient norm :     0.0129794 Eh/a0  converged?    E=F G=F D=F
   time step     :     0.7132792 fs     power     :   0.2675913E-07
   step length   :     0.1676954 a0     speed     :   0.5686916E-02

........................................................................
.............................. CYCLE   59 ..............................
........................................................................

 iter      E             dE          RMSdq      gap      omega  full diag
   1  -3478.6388935 -0.347864E+04  0.331E-03   11.01       0.0  T
   2  -3478.6388939 -0.316538E-06  0.197E-03   11.01       1.0  T
   3  -3478.6388939 -0.569944E-07  0.124E-04   11.01      14.1  T
   4  -3478.6388939 -0.975160E-08  0.678E-05   11.01      25.8  T
     SCC iter.                  ...        3 min, 32.303 sec
     gradient                   ...        3 min, 55.866 sec
 * total energy  : -3427.3768694 Eh     change    :  -0.1670287E-02 Eh
   gradient norm :     0.0118253 Eh/a0  converged?    E=F G=F D=F
   time step     :     0.7846071 fs     power     :   0.2686559E-07
   step length   :     0.1846953 a0     speed     :   0.5694016E-02

........................................................................
.............................. CYCLE   60 ..............................
........................................................................

 iter      E             dE          RMSdq      gap      omega  full diag
   1  -3478.6406503 -0.347864E+04  0.365E-03   11.02       0.0  T
   2  -3478.6406517 -0.138203E-05  0.221E-03   11.02       1.0  T
   3  -3478.6406518 -0.700065E-07  0.224E-04   11.02       7.8  T
   4  -3478.6406518 -0.163850E-07  0.778E-05   11.02      22.5  T
     SCC iter.                  ...        3 min, 34.131 sec
     gradient                   ...        3 min, 55.867 sec
 * total energy  : -3427.3786382 Eh     change    :  -0.1768752E-02 Eh
   gradient norm :     0.0115232 Eh/a0  converged?    E=F G=F D=F
   time step     :     0.8630678 fs     power     :   0.2513153E-07
   step length   :     0.2050550 a0     speed     :   0.5746992E-02

........................................................................
.............................. CYCLE   61 ..............................
........................................................................

 iter      E             dE          RMSdq      gap      omega  full diag
   1  -3478.6652013 -0.347867E+04  0.444E-03   11.02       0.0  T
   2  -3478.6652016 -0.301935E-06  0.262E-03   11.02       1.0  T
   3  -3478.6652017 -0.705190E-07  0.130E-04   11.02      13.5  T
   4  -3478.6652017 -0.100972E-07  0.675E-05   11.02      26.0  T
     SCC iter.                  ...        3 min, 34.245 sec
     gradient                   ...        3 min, 54.687 sec
 * total energy  : -3427.3804956 Eh     change    :  -0.1857466E-02 Eh
   gradient norm :     0.0102584 Eh/a0  converged?    E=F G=F D=F
   time step     :     0.9493746 fs     power     :   0.2424865E-07
   step length   :     0.2271990 a0     speed     :   0.5788738E-02

........................................................................
.............................. CYCLE   62 ..............................
........................................................................

 iter      E             dE          RMSdq      gap      omega  full diag
   1  -3478.7111828 -0.347871E+04  0.584E-03   11.03       0.0  T
   2  -3478.7111841 -0.129293E-05  0.338E-03   11.03       1.0  T
   3  -3478.7111842 -0.958844E-07  0.248E-04   11.03       7.1  T
   4  -3478.7111842 -0.167020E-07  0.767E-05   11.03      22.8  T
     SCC iter.                  ...        3 min, 35.643 sec
     gradient                   ...        3 min, 55.546 sec
 * total energy  : -3427.3823645 Eh     change    :  -0.1868891E-02 Eh
   gradient norm :     0.0106452 Eh/a0  converged?    E=F G=F D=F
   time step     :     1.0443120 fs     power     :   0.2115134E-07
   step length   :     0.2530916 a0     speed     :   0.5862226E-02

........................................................................
.............................. CYCLE   63 ..............................
........................................................................

 iter      E             dE          RMSdq      gap      omega  full diag
   1  -3478.7186731 -0.347872E+04  0.532E-03   11.04       0.0  T
   2  -3478.7186746 -0.147181E-05  0.317E-03   11.04       1.0  T
   3  -3478.7186747 -0.777450E-07  0.213E-04   11.04       8.2  T
   4  -3478.7186747 -0.319465E-07  0.758E-05   11.04      23.1  T
     SCC iter.                  ...        3 min, 33.511 sec
     gradient                   ...        3 min, 54.927 sec
 * total energy  : -3427.3842229 Eh     change    :  -0.1858405E-02 Eh
   gradient norm :     0.0087412 Eh/a0  converged?    E=F G=F D=F
   time step     :     1.1487432 fs     power     :   0.1903755E-07
   step length   :     0.2789189 a0     speed     :   0.5873136E-02

........................................................................
.............................. CYCLE   64 ..............................
........................................................................

 iter      E             dE          RMSdq      gap      omega  full diag
   1  -3478.7264036 -0.347873E+04  0.556E-03   11.04       0.0  T
   2  -3478.7264045 -0.915009E-06  0.330E-03   11.04       1.0  T
   3  -3478.7264046 -0.857194E-07  0.176E-04   11.04       9.9  T
   4  -3478.7264046 -0.255759E-07  0.791E-05   11.04      22.2  T
     SCC iter.                  ...        3 min, 38.494 sec
     gradient                   ...        3 min, 56.037 sec
 * total energy  : -3427.3859977 Eh     change    :  -0.1774730E-02 Eh
   gradient norm :     0.0097149 Eh/a0  converged?    E=F G=F D=F
   time step     :     1.2500000 fs     power     :   0.1667887E-07
   step length   :     0.3051192 a0     speed     :   0.5904385E-02

........................................................................
.............................. CYCLE   65 ..............................
........................................................................

 iter      E             dE          RMSdq      gap      omega  full diag
   1  -3478.7653103 -0.347877E+04  0.601E-03   11.05       0.0  T
   2  -3478.7653119 -0.162882E-05  0.349E-03   11.05       1.0  T
   3  -3478.7653120 -0.724158E-07  0.277E-04   11.05       6.3  T
   4  -3478.7653120 -0.308196E-07  0.746E-05   11.05      23.5  T
     SCC iter.                  ...        3 min, 36.318 sec
     gradient                   ...        3 min, 55.611 sec
 * total energy  : -3427.3875977 Eh     change    :  -0.1600021E-02 Eh
   gradient norm :     0.0104583 Eh/a0  converged?    E=F G=F D=F
   time step     :     1.2500000 fs     power     :   0.1457863E-07
   step length   :     0.3024789 a0     speed     :   0.5853292E-02

........................................................................
.............................. CYCLE   66 ..............................
........................................................................

 iter      E             dE          RMSdq      gap      omega  full diag
   1  -3478.7582340 -0.347876E+04  0.460E-03   11.06       0.0  T
   2  -3478.7582358 -0.180764E-05  0.275E-03   11.06       1.0  T
   3  -3478.7582359 -0.827540E-07  0.257E-04   11.06       6.8  T
   4  -3478.7582359 -0.218597E-07  0.847E-05   11.06      20.7  T
     SCC iter.                  ...        3 min, 34.972 sec
     gradient                   ...        3 min, 55.628 sec
[...]
  3011   6 C     3012   6 C                                       1.5270052
  3012   6 C     3013   6 C                                       1.5257309
  3013   6 C     3014   6 C                                       1.5262668
  3014   6 C     3015   6 C                                       1.5253999
  3015   6 C     3016   6 C                                       1.5228774
  3015   6 C     3017   1 H                                       1.0913336
  3015   6 C     3018   1 H                                       1.0932154
  3014   6 C     3019   1 H                                       1.0929459
  3014   6 C     3020   1 H                                       1.0912630
  3013   6 C     3021   1 H                                       1.0924871
  3013   6 C     3022   1 H                                       1.0933535
  3012   6 C     3023   1 H                                       1.0914288
  3012   6 C     3024   1 H                                       1.0923105
  3011   6 C     3025   1 H                                       1.0930025
  3011   6 C     3026   1 H                                       1.0931155
  3010   6 C     3027   1 H                                       1.0907916
  3010   6 C     3028   1 H                                       1.0932653
  3009   6 C     3029   1 H                                       1.0932956
  3009   6 C     3030   1 H                                       1.0912033
  3008   6 C     3031   1 H                                       1.0928068
  3008   6 C     3032   1 H                                       1.0935146
  3007   6 C     3033   1 H                                       1.0928734
  3007   6 C     3034   1 H                                       1.0894388
  3006   6 C     3035   1 H                                       1.0929817
  3006   6 C     3036   1 H                                       1.0934763
  3005   6 C     3037   1 H                                       1.0937967
  3005   6 C     3038   1 H                                       1.0930197
  3004   6 C     3039   1 H                                       1.0915085
  3004   6 C     3040   1 H                                       1.0934063
  3003   6 C     3041   1 H                                       1.0919441
  3003   6 C     3042   1 H                                       1.0930491
  3002   6 C     3043   1 H                                       1.0930407
  3002   6 C     3044   1 H                                       1.0935035
  3001   6 C     3045   1 H                                       1.0932371
  3001   6 C     3046   1 H                                       1.0927229
  3000   6 C     3047   1 H                                       1.0935540
  3000   6 C     3048   1 H                                       1.0916450
  2999   6 C     3049   1 H                                       1.0927230
  2999   6 C     3050   1 H                                       1.0920696
  2998   6 C     3051   1 H                                       1.0920841
  2998   6 C     3052   1 H                                       1.0940730
  2997   6 C     3053   1 H                                       1.0917521
  2997   6 C     3054   1 H                                       1.0923825
  2996   6 C     3055   1 H                                       1.0937931
  2996   6 C     3056   1 H                                       1.0922517
  2995   6 C     3057   1 H                                       1.0931855
  2995   6 C     3058   1 H                                       1.0933479
  2994   6 C     3059   1 H                                       1.0920477
  2994   6 C     3060   1 H                                       1.0919288
  2993   6 C     3061   1 H                                       1.0935934
  2993   6 C     3062   1 H                                       1.0899868
  2992   6 C     3063   1 H                                       1.0933038
  2992   6 C     3064   1 H                                       1.0938657
  2991   6 C     3065   1 H                                       1.0936898
  2991   6 C     3066   1 H                                       1.0929497
  2990   6 C     3067   1 H                                       1.0906935
  2990   6 C     3068   1 H                                       1.0923398
  2989   6 C     3069   1 H                                       1.0931656
  2989   6 C     3070   1 H                                       1.0917222
  2988   6 C     3071   1 H                                       1.0926213
  2988   6 C     3072   1 H                                       1.0937236
  2987   6 C     3073   1 H                                       1.0938292
  2987   6 C     3074   1 H                                       1.0918614
  2986   6 C     3075   1 H                                       1.0932313
  2986   6 C     3076   1 H                                       1.0922896
  2985   6 C     3077   1 H                                       1.0931943
  2985   6 C     3078   1 H                                       1.0930984
  2984   6 C     3079   1 H                                       1.0930515
  2984   6 C     3080   1 H                                       1.0915752
  2983   6 C     3081   1 H                                       1.0912910
  2983   6 C     3082   1 H                                       1.0937637
  2982   6 C     3083   1 H                                       1.0936704
  2982   6 C     3084   1 H                                       1.0935383
  2981   6 C     3085   1 H                                       1.0937128
  2981   6 C     3086   1 H                                       1.0900768
  2980   6 C     3087   1 H                                       1.0907732
  2980   6 C     3088   1 H                                       1.0936353
  2979   6 C     3089   1 H                                       1.0933395
  2979   6 C     3090   1 H                                       1.0934287
  2978   6 C     3091   1 H                                       1.0916223
  2978   6 C     3092   1 H                                       1.0926805
  2977   6 C     3093   1 H                                       1.0924401
  2977   6 C     3094   1 H                                       1.0932305
  2976   6 C     3095   1 H                                       1.0931169
  2976   6 C     3096   1 H                                       1.0906964
  2975   6 C     3097   1 H                                       1.0914778
  2975   6 C     3098   1 H                                       1.0936810
  2974   6 C     3099   1 H                                       1.0933370
  2974   6 C     3100   1 H                                       1.0938392
  2973   6 C     3101   1 H                                       1.0937411
  2973   6 C     3102   1 H                                       1.0893582
  2972   6 C     3103   1 H                                       1.0910205
  2972   6 C     3104   1 H                                       1.0933552
  2971   6 C     3105   1 H                                       1.0935696
  2971   6 C     3106   1 H                                       1.0925419
  2970   6 C     3107   1 H                                       1.0913020
  2970   6 C     3108   1 H                                       1.0931476
  2969   6 C     3109   1 H                                       1.0933229
  2969   6 C     3110   1 H                                       1.0925823
  2968   6 C     3111   1 H                                       1.0930475
  2968   6 C     3112   1 H                                       1.0934313
  2967   6 C     3113   1 H                                       1.0935022
  2967   6 C     3114   1 H                                       1.0912781
  2966   6 C     3115   1 H                                       1.0929921
  2966   6 C     3116   1 H                                       1.0939870
  2965   6 C     3117   1 H                                       1.0937437
  2965   6 C     3118   1 H                                       1.0933088
  2964   6 C     3119   1 H                                       1.0913976
  2964   6 C     3120   1 H                                       1.0930268
  2963   6 C     3121   1 H                                       1.0929159
  2963   6 C     3122   1 H                                       1.0935748
  2962   6 C     3123   1 H                                       1.0931683
  2962   6 C     3124   1 H                                       1.0927767
  2961   6 C     3125   1 H                                       1.0935600
  2961   6 C     3126   1 H                                       1.0934396
  2960   6 C     3127   1 H                                       1.0913475
  2960   6 C     3128   1 H                                       1.0930525
  2959   6 C     3129   1 H                                       1.0941667
  2959   6 C     3130   1 H                                       1.0936903
  2958   6 C     3131   1 H                                       1.0920275
  2958   6 C     3132   1 H                                       1.0939139
  2957   6 C     3133   1 H                                       1.0905342
  2957   6 C     3134   1 H                                       1.0904431
  2956   6 C     3135   1 H                                       1.0931718
  2956   6 C     3136   1 H                                       1.0940876
  2955   6 C     3137   1 H                                       1.0933435
  2955   6 C     3138   1 H                                       1.0923557
  2954   6 C     3139   1 H                                       1.0917430
  2954   6 C     3140   1 H                                       1.0930804
  2953   6 C     3141   1 H                                       1.0945018
  2953   6 C     3142   1 H                                       1.0936705
  2952   6 C     3143   1 H                                       1.0919838
  2952   6 C     3144   1 H                                       1.0916226
  2951   6 C     3145   1 H                                       1.0921133
  2951   6 C     3146   1 H                                       1.0933298
  2950   6 C     3147   1 H                                       1.0935095
  2950   6 C     3148   1 H                                       1.0935954
  2949   6 C     3149   1 H                                       1.0922062
  2949   6 C     3150   1 H                                       1.0914996
  2948   6 C     3151   1 H                                       1.0910613
  2948   6 C     3152   1 H                                       1.0922915
  2947   6 C     3153   1 H                                       1.0930079
  2947   6 C     3154   1 H                                       1.0934100
  2946   6 C     3155   1 H                                       1.0931165
  2946   6 C     3156   1 H                                       1.0920908
  2945   6 C     3157   1 H                                       1.0935077
  2945   6 C     3158   1 H                                       1.0924834
  2944   6 C     3159   1 H                                       1.0924586
  2944   6 C     3160   1 H                                       1.0931164
  2943   6 C     3161   1 H                                       1.0913103
  2943   6 C     3162   1 H                                       1.0922852
  2942   6 C     3163   1 H                                       1.0933885
  2942   6 C     3164   1 H                                       1.0936921
  2941   6 C     3165   1 H                                       1.0927146
  2941   6 C     3166   1 H                                       1.0928097
  2940   6 C     3167   1 H                                       1.0916286
  2940   6 C     3168   1 H                                       1.0904346
  2939   6 C     3169   1 H                                       1.0931327
  2939   6 C     3170   1 H                                       1.0933520
  2938   6 C     3171   1 H                                       1.0933025
  2938   6 C     3172   1 H                                       1.0903108
  2937   6 C     3173   1 H                                       1.0927445
  2937   6 C     3174   1 H                                       1.0943424
  2936   6 C     3175   1 H                                       1.0942179
  2936   6 C     3176   1 H                                       1.0931508
  2935   6 C     3177   1 H                                       1.0905496
  2935   6 C     3178   1 H                                       1.0929733
  2934   6 C     3179   1 H                                       1.0934625
  2934   6 C     3180   1 H                                       1.0931882
  2933   6 C     3181   1 H                                       1.0926565
  2933   6 C     3182   1 H                                       1.0934754
  2932   6 C     3183   1 H                                       1.0934270
  2932   6 C     3184   1 H                                       1.0904587
  2931   6 C     3185   1 H                                       1.0925254
  2931   6 C     3186   1 H                                       1.0936908
  2930   6 C     3187   1 H                                       1.0934568
  2930   6 C     3188   1 H                                       1.0937895
  2929   6 C     3189   1 H                                       1.0911349
  2929   6 C     3190   1 H                                       1.0914280
  2928   6 C     3191   1 H                                       1.0918324
  2928   6 C     3192   1 H                                       1.0946247
  2927   6 C     3193   1 H                                       1.0938638
  2927   6 C     3194   1 H                                       1.0939790
  2926   6 C     3195   1 H                                       1.0933912
  2926   6 C     3196   1 H                                       1.0915359
  2925   6 C     3197   1 H                                       1.0917392
  2925   6 C     3198   1 H                                       1.0929334
  2924   6 C     3199   1 H                                       1.0914345
  2924   6 C     3200   1 H                                       1.0929774
  2923   6 C     3201   1 H                                       1.0915491
  2923   6 C     3202   1 H                                       1.0916477
  2922   6 C     3203   1 H                                       1.0929860
  2922   6 C     3204   1 H                                       1.0924577
  2921   6 C     3205   1 H                                       1.0933191
  2921   6 C     3206   1 H                                       1.0939378
  2920   6 C     3207   1 H                                       1.0916514
  2920   6 C     3208   1 H                                       1.0926956
  2919   6 C     3209   1 H                                       1.0920574
  2919   6 C     3210   1 H                                       1.0922451
  2918   6 C     3211   1 H                                       1.0931232
  2918   6 C     3212   1 H                                       1.0935996
  2917   6 C     3213   1 H                                       1.0938417
  2917   6 C     3214   1 H                                       1.0922278
  2916   6 C     3215   1 H                                       1.0913148
  2916   6 C     3216   1 H                                       1.0930587
  2915   6 C     3217   1 H                                       1.0918093
  2915   6 C     3218   1 H                                       1.0930421
  2914   6 C     3219   1 H                                       1.0929769
  2914   6 C     3220   1 H                                       1.0931083
  2913   6 C     3221   1 H                                       1.0927612
  2913   6 C     3222   1 H                                       1.0939380
  2912   6 C     3223   1 H                                       1.0911160
  2912   6 C     3224   1 H                                       1.0917762
  2911   6 C     3225   1 H                                       1.0936576
  2911   6 C     3226   1 H                                       1.0911529
  2910   6 C     3227   1 H                                       1.0933569
  2910   6 C     3228   1 H                                       1.0936191
  2909   6 C     3229   1 H                                       1.0917949
  2909   6 C     3230   1 H                                       1.0935128
  2908   6 C     3231   1 H                                       1.0932132
  2908   6 C     3232   1 H                                       1.0908792
  2907   6 C     3233   1 H                                       1.0923345
  2907   6 C     3234   1 H                                       1.0929878
  2906   6 C     3235   1 H                                       1.0929860
  2906   6 C     3236   1 H                                       1.0909195
  2905   6 C     3237   1 H                                       1.0927737
  2905   6 C     3238   1 H                                       1.0932425
  2904   6 C     3239   1 H                                       1.0933602
  2904   6 C     3240   1 H                                       1.0928471
  2903   6 C     3241   1 H                                       1.0911963
  2903   6 C     3242   1 H                                       1.0930515
  2902   6 C     3243   1 H                                       1.0934051
  2902   6 C     3244   1 H                                       1.0931462
  2901   6 C     3245   1 H                                       1.0927679
  2901   6 C     3246   1 H                                       1.0933417
  2900   6 C     3247   1 H                                       1.0933274
  2900   6 C     3248   1 H                                       1.0932564
  2899   6 C     3249   1 H                                       1.0923218
  2899   6 C     3250   1 H                                       1.0924933
  2898   6 C     3251   1 H                                       1.0930765
  2898   6 C     3252   1 H                                       1.0929015
  2897   6 C     3253   1 H                                       1.0871875
  2897   6 C     3254   1 H                                       1.0874715
  2897   6 C     3255   1 H                                       1.0875842
  3016   6 C     3256   1 H                                       1.0876373
  3016   6 C     3257   1 H                                       1.0876754
  3016   6 C     3258   1 H                                       1.0875058

 * 2 distinct bonds (by element types)

   Z      Z             #   av. dist./Å        max./Å        min./Å
   1 H    6 C        2178     1.0925319     1.0947197     1.0864500
   6 C    6 C        1071     1.5274001     1.5365473     1.5219011


optimized geometry written to: xtbopt.xyz


           -------------------------------------------------
          | TOTAL ENERGY            -3427.458162315484 Eh   |
          | GRADIENT NORM               0.000745733520 Eh/α |
          | HOMO-LUMO GAP              11.303492051634 eV   |
           -------------------------------------------------

------------------------------------------------------------------------
 * finished run on 2024/06/20 at 18:26:19.218     
------------------------------------------------------------------------
 total:
 * wall-time:     3 d,  3 h,  8 min, 51.871 sec
 *  cpu-time:    16 d,  1 h,  4 min, 57.080 sec
 * ratio c/w:     5.124 speedup
 SCF:
 * wall-time:     0 d,  0 h,  7 min,  5.951 sec
 *  cpu-time:     0 d,  0 h, 36 min, 19.560 sec
 * ratio c/w:     5.117 speedup
 ANC optimizer:
 * wall-time:     3 d,  3 h,  1 min,  4.396 sec
 *  cpu-time:    16 d,  0 h, 27 min, 40.740 sec
 * ratio c/w:     5.125 speedup

