3258
 energy: -3427.535895521377 gnorm: 0.000657470517 xtb: 6.6.1 (8d0f1dd)
C          109.55578579868143      121.15034730632257      124.12466359456067
C          108.42011295009446      120.27432182454113      123.61180986142192
C          107.13527509057364      121.07297940850989      123.40494324359918
C          105.93752244012337      120.20072335818496      123.02585052634973
C          106.07268431488053      119.57759337305069      121.63849636725064
C          104.82210359241145      118.82452027359037      121.18327366749698
C          104.64295793103702      117.48148555030970      121.88828631273435
C          103.30228061567692      116.81348691230882      121.58077207649696
C          103.14257931054919      116.39680579581855      120.12128509308239
C          101.81109117352163      115.69257317921459      119.87514115170599
C          101.60463693825760      115.35195054409616      118.40224204536379
C          100.31756027920355      114.56582099688612      118.16933026348090
C          100.08774925089742      114.26209518311133      116.69066238664962
C           98.96263228139362      113.25227558569200      116.47866699202956
C           98.80146468059064      112.86657598572936      115.01001486289194
C           97.88868947221465      111.65637480380106      114.82735375366646
C           97.78952587671134      111.22494677524381      113.36572731103894
C           97.19442755906735      109.82660627756124      113.21462887718133
C           97.16145445967365      109.37769075452744      111.75373162109237
C           96.95733728667717      107.87206591823339      111.57537058591454
C           98.18212943833443      107.06057425896194      111.99283503625290
C           98.04396445802324      105.57178498130078      111.68265373873278
C           99.20218066379631      104.77415948337959      112.27719382385851
C           99.09877693341532      103.27590437658435      111.99579458043409
C          100.08037503285830      102.45666548643860      112.83615534269236
C          101.54606557724158      102.62667388588322      112.41804237842329
C          102.50916818628782      102.64833553268384      113.60699889090222
C          102.47287945023878      103.97982924372111      114.35351936294462
C          103.46120152994187      104.03105408361537      115.51507895665443
C          103.46033952866993      105.39963281724533      116.19137654117054
C          104.42367177284477      105.48580267585878      117.37114370518013
C          104.46950487305625      106.88876712464661      117.96876314080205
C          105.42815386664189      106.99082427370665      119.15267942153184
C          105.50028294928767      108.41827615701466      119.68989953068032
C          106.51892127452072      108.61013716395020      120.81393976462574
C          106.05066829677709      108.07671605576297      122.16582370546995
C          107.13695805961683      108.14612619116532      123.24173346445338
C          107.54984802597701      109.57065697537691      123.60489043528348
C          108.66107126524803      109.60424045353577      124.65154331572944
C          109.16271212634581      111.02403549093552      124.91098794841314
C          110.36497876635330      111.04643867864583      125.85173304525493
C          110.99582726123363      112.43310028235621      125.95860768886189
C          112.17528764777919      112.48216101958683      126.93202012008041
C          113.42139015307046      111.77227445660816      126.40735282071192
C          114.55037524484541      111.75039259586649      127.43470818267346
C          115.72963147850514      110.89865478562457      126.97103264919403
C          116.81697366977569      110.77857839851697      128.03724035623014
C          117.83380317121149      109.69011806957427      127.70058606930220
C          118.86406793253556      109.49543617871971      128.81250837999633
C          119.59500270266352      108.15484634854256      128.72358649488399
C          120.46317870343643      108.02280832147699      127.47534915502807
C          121.24399487496538      106.70882738404440      127.41938356071832
C          120.37115439702599      105.48978909589997      127.12568307789623
C          121.20305503677353      104.21075059535504      127.07075093101918
C          120.39487494746395      102.97009256978113      126.68525835916601
C          120.06475058499362      102.89860219257496      125.19525031695544
C          119.42760314225610      101.56235998845854      124.82007246256248
C          119.26800059144833      101.38636424400421      123.31110614741469
C          118.81115229441876       99.97395942880671      122.95447472914738
C          118.75133135708940       99.73132323211253      121.44867832861081
C          118.34349779513403       98.29564669042797      121.12640487514994
C          118.30752667731183       98.02082209910162      119.62545896565744
C          117.87251771444173       96.58795351289777      119.32468358744987
C          117.91954564400726       96.22876936610301      117.83914009979361
C          116.88843435349956       96.97683809345638      116.99866129810509
C          116.95574062652598       96.58264990648244      115.52547293428759
C          116.00915178842831       97.41452433456040      114.66449492813184
C          116.22363209366620       97.17721597956337      113.17211660825146
C          115.36990831509127       98.10885822497278      112.31621936526226
C          115.78637587299737       98.09711653740688      110.84831645866474
C          114.95098142094423       99.06434713175254      110.01390735468736
C          115.50275258669886       99.24450020674261      108.60166101629956
C          114.54781274010209       99.98942866089452      107.67107168790379
C          114.23709819805531      101.42259111551070      108.09229625596183
C          113.27509176336703      102.08214580432843      107.10730396140198
C          112.90152088699190      103.50699773544429      107.50112043716815
C          111.92253958286423      104.13245788262414      106.51125087914083
C          111.53596366492731      105.55524618745486      106.90018722372636
C          110.54692858543126      106.18281878623918      105.92196282573444
C          110.15484798400394      107.59635522812009      106.34100479457226
C          109.14928344122988      108.24149875003133      105.39160218392232
C          108.76334908037799      109.64576069292193      105.84799578540139
C          107.74293650264737      110.30980382528131      104.92813794625690
C          107.36308756613580      111.70658654706189      105.41331102101647
C          106.32421865517620      112.37516198685225      104.51751814190811
C          105.89477424173870      113.74098036620234      105.04792370812912
C          104.81672032439782      114.38684657064898      104.18021520967248
C          104.20625681329699      115.62000840427393      104.83950758500409
C          103.10048004016191      116.25796890451348      104.00047736379315
C          102.32649129644933      117.30150575258212      104.80117948066855
C          101.20771700789928      117.97051262402117      104.00552476140166
C          100.36865102042248      118.88070514127465      104.90095412807150
C           99.11570171598424      119.44142551905176      104.22784374190060
C           99.38744939549611      120.55224100705550      103.21736797535829
C           98.08206256644912      121.14050260246047      102.68483920711611
C           98.26877485228155      122.38971526796186      101.82481287305072
C           99.05120657588827      122.13299188923818      100.53883177873207
C           99.01392337272090      123.34564185492310       99.60977813764087
C           99.99405609080867      123.25135155536515       98.44024492630997
C           99.68656072316296      122.10933330901037       97.47507783720276
C          100.63488790635695      122.07767696216575       96.27544586706020
C          102.03102167846963      121.56453916414274       96.62290359436881
C          102.93894333178423      121.56081764490251       95.39612354630846
C          104.29030710448963      120.88799567963818       95.63520170832889
C          105.19049791704199      121.65783772240154       96.60013071335759
C          106.61202597032025      121.09799496850709       96.67212651982247
C          106.69036910965993      119.71412316575264       97.31335944989902
C          108.09326870434877      119.11964206866038       97.23516366931906
C          108.15945271120108      117.72695799078576       97.85682363924010
C          109.49915595991038      117.04432814586475       97.59603092134351
C          109.60629774475690      115.68611149683376       98.28349858103127
C          110.91251005839615      114.97301439865075       97.94460484496781
C          111.05881706255225      113.64461112188167       98.68148847485624
C          112.34532373507403      112.91618879057522       98.30231183939979
C          112.53119663340215      111.61631678578946       99.07954217795169
C          113.82385920573194      110.89746034036858       98.70129064439659
C          114.02703997599221      109.61539636580800       99.50402934641595
C          115.33808815794261      108.91331903506000       99.15971814647726
C          115.53905933639437      107.63980190496211       99.97712441367368
C          116.86161683521047      106.95364895879757       99.66081797846604
H          115.50980984462453      107.89060625140354      101.04011429863091
H          114.71645012116880      106.94897599858893       99.77460284729368
H          115.34990667116740      108.66567626153078       98.09435203720271
H          116.17160893615812      109.59543405212816       99.34717967338317
H          114.02320075297067      109.85890870867247      100.56931491541889
H          113.19306127168784      108.93415097771326       99.31567969750506
H          113.80667561679738      110.65798963943904       97.63405894568352
H          114.67057870239451      111.56678806168078       98.87261644430940
H          112.54768002787036      111.84010945421775      100.14906457642667
H          111.68121975756496      110.95525490813463       98.89199227750154
H          112.33536471258574      112.69855583450477       97.23113051350369
H          113.19864610450068      113.57144662114062       98.49264917736163
H          111.05606369685786      113.83123671253117       99.75841273035155
H          110.20089759250314      113.00661613290421       98.45489628119350
H          110.95589436956683      114.79317987300543       96.86743228283633
H          111.75267282152896      115.62243362914018       98.20479191698651
H          109.54206353741269      115.82677921973752       99.36550801431241
H          108.76287815322688      115.05844245539264       97.98426648898274
H          109.62686595791052      116.91119206613433       96.51753694173873
H          110.30885227564059      117.69051813060733       97.94286195982826
H          107.99111829825738      117.80331635447799       98.93394752319199
H          107.35594137064982      117.10892361736272       97.44669888198270
H          108.39428932419540      119.05808229907390       96.18797018506768
H          108.80085497191604      119.77872200177175       97.74350433897635
H          106.38332517490154      119.78309385443694       98.35963524266225
H          105.99977159895649      119.03644081202361       96.80756695072343
H          107.02427835289105      121.05023886453880       95.65984471292356
H          107.23527965261070      121.78959983790712       97.24558953814766
H          105.24108495533054      122.69967582638279       96.27224118946883
H          104.75147702370330      121.64975077321344       97.59895900265377
H          104.11637330298818      119.87820452002846       96.01331337074362
H          104.80884494953236      120.79692367165813       94.67538247866824
H          102.42523950570929      121.03343420465383       94.58918928202318
H          103.09850157376829      122.58878450377794       95.06558434201182
H          102.46993623999892      122.19213662742349       97.39858242431603
H          101.95020481368316      120.54800826187926       97.01609859362958
H          100.20815683570630      121.43078719057240       95.50370122189986
H          100.71224407345048      123.08138893078085       95.84908196475428
H           99.75313824204646      121.15496478867713       98.00050886142533
H           98.65980599366756      122.22310318819159       97.11577778157879
H           99.96950999492141      124.19465111368353       97.88713638859500
H          101.00405339338073      123.13047081327421       98.83520356337587
H           97.99936031317476      123.47750440229117       99.22355836594397
H           99.25879631489086      124.23978070083930      100.19096902450822
H          100.08891112250748      121.90595871027524      100.78410883245962
H           98.62569416269349      121.26557347792023      100.03064150578871
H           97.28064392244251      122.78055820500462      101.56367005607015
H           98.77980148719945      123.15860585780369      102.40998209501937
H           97.55711064087082      120.38073755688954      102.10137999023436
H           97.44299310681312      121.40126829682235      103.53365060310122
H           99.96345397179208      121.34241682362320      103.70534723813117
H           99.97991455863810      120.16226564970343      102.38891858909084
H           98.57901825347231      118.62754886046028      103.73321648301490
H           98.46067536703069      119.84601295692613      105.00445331367445
H          100.05692287594512      118.30259666699381      105.77589009014503
H          100.98672010574678      119.70669618660810      105.26249528022551
H          101.63573788830740      118.54445425971825      103.18078657867827
H          100.56280264240091      117.20052789661001      103.57298584798581
H          101.88579330481578      116.81175962373906      105.67359805464010
H          103.01734491391674      118.06368467138162      105.16883866919245
H          103.53182189099954      116.71941715712734      103.10800857939537
H          102.40835834151338      115.48174486151271      103.66574031068353
H          103.78559288076939      115.32733623349809      105.80491764298114
H          104.98677037454297      116.35873905437478      105.03442901576790
H          105.24484806662679      114.66308753244331      103.21289895889845
H          104.02447073985931      113.65733909044637      103.99612412486839
H          105.50788431691367      113.62170625447943      106.06412088310528
H          106.76292926359362      114.40141676258963      105.10417298390519
H          106.73523909787428      112.49068302755185      103.51102051139193
H          105.44635804007117      111.72879380174388      104.44048141269404
H          106.96482392705325      111.63581116034402      106.42984243775120
H          108.25892558289581      112.32901729310889      105.45496385867993
H          108.15755116178489      110.37834221821821      103.91883244834196
H          106.84589154670763      109.68850559708279      104.87030545798196
H          108.34992386130587      109.59088455101352      106.85944359534669
H          109.66067724751412      110.26561218516154      105.89446368615596
H          109.57993940106307      108.29194230979505      104.38819589116241
H          108.25371491017437      107.61875994137155      105.33001128054104
H          109.72612958963721      107.56322561413978      107.34701761403940
H          111.05170195118704      108.21695653417694      106.38814537039798
H          110.99233132623483      106.20988865596979      104.92449381695288
H          109.65184615275294      105.55956212087293      105.86063435298414
H          111.09400068098523      105.54349071698006      107.90078049037842
H          112.43535225041371      106.17226026639881      106.94741677748952
H          112.37079327679859      104.13884303946132      105.51517437847535
H          111.02252160349386      103.51530013421853      106.45813984097333
H          112.45257181325910      103.49874894948775      108.49857970559241
H          113.80458466601148      104.11839807957146      107.55482465432829
H          113.72501673886789      102.09031229258352      106.11218604996679
H          112.36450321893811      101.48033767340489      107.04727611988380
H          113.78606623716576      101.42431962443710      109.08675433593588
H          115.16411237047522      101.99768881546801      108.14804473739460
H          114.98010645976363      100.00602221968090      106.66758369421636
H          113.60949751064332       99.43176988024727      107.61432051625319
H          116.45470934333527       99.77882028654716      108.64856368799468
H          115.70093285537425       98.25850773678215      108.17196788045838
H          113.92592215069983       98.69228741716657      109.95915540890806
H          114.92096613041126      100.03094660489869      110.52047252909605
H          116.84076996270358       98.37580884632531      110.77876984846114
H          115.69067260828574       97.08553939843374      110.44623497584261
H          114.31853933322934       97.82558435675411      112.40288910559862
H          115.46999001892245       99.12861514540933      112.69818623558101
H          117.27699722547290       97.34796836915913      112.93746995582940
H          115.99860446042197       96.13655638231928      112.92541872304955
H          114.97422877989175       97.18786174519505      114.93014389830473
H          116.18212156305889       98.47302778583480      114.87662711816657
H          117.97664405747476       96.73011469755231      115.16722368091301
H          116.71892714886033       95.52107199171034      115.41552018291227
H          115.88788050495479       96.77113524821110      117.38601937101271
H          117.06474680617161       98.05054642644623      117.07851338679612
H          118.92014636598041       96.43863925175418      117.45043083258200
H          117.74845304804009       95.15371208416072      117.73091252256597
H          118.53403950338948       95.90680767170454      119.86773240292945
H          116.85875077686170       96.42970692562118      119.70110440308042
H          117.62034890182674       98.72556897219340      119.15477056099229
H          119.30239035331154       98.19211589411761      119.20653842646800
H          119.04691652277043       97.60697416515087      121.60316007563158
H          117.35638850094814       98.09712672634687      121.55378660613758
H          118.03828445744355      100.42266891339467      120.99522010941401
H          119.73256078874118       99.93307892786872      121.01127192256011
H          119.50333644811272       99.25494665852251      123.40193766643341
H          117.82602634788299       99.79114221073033      123.38999425390404
H          118.54884663780109      102.11416618703780      122.92866170046460
H          120.22618439600480      101.58439101734442      122.82391873694675
H          120.05793074581744      100.75386569445659      125.20152024659085
H          118.45245659580146      101.47204938860199      125.30467697975796
H          119.39423698410087      103.71363172426791      124.91940654764265
H          120.98819732495444      103.02201604984499      124.62381944223021
H          120.97550584620048      102.08204739387705      126.95030445723400
H          119.47105587337948      102.94249183240565      127.26745585731969
H          122.02014104013784      104.34042054530762      126.35617463099841
H          121.65419477224866      104.04840987223622      128.05347615392913
H          119.61045611354032      105.37995207520970      127.90059628086692
H          119.86236162992434      105.63859363496954      126.17295957738386
H          122.00247150594845      106.78591824249699      126.63553971148613
H          121.76815998041221      106.56007576578983      128.36727153469099
H          119.83739010446023      108.10125082464430      126.58504604865124
H          121.17307578930162      108.85309288905982      127.45915621752103
H          120.22879602408771      108.03923915139907      129.60729778031907
H          118.85475386676286      107.35245305419184      128.74350860321809
H          119.59030708105438      110.31137800780789      128.78915036481237
H          118.35106764579554      109.54066376928540      129.77734108453060
H          117.30016691252634      108.74962551471711      127.54524905099484
H          118.33825933359125      109.94170079650304      126.76654111629132
H          117.32748281372666      111.73712688007352      128.15827424958778
H          116.34658933993599      110.53549893303014      128.99352741058897
H          115.36271304328491      109.89761434826865      126.72983366070974
H          116.15280417626559      111.32343578689148      126.05706210056444
H          114.88768202257316      112.77053830911099      127.63554681843610
H          114.16900911296473      111.34091600401644      128.37387106232910
H          113.16906749645882      110.74293424405739      126.14732095682371
H          113.76741078514253      112.26978929130877      125.49923497221626
H          112.42576140223217      113.52684724528683      127.13675660356743
H          111.87389602267739      112.02822561396827      127.87982660615737
H          111.33266424370960      112.75682737185330      124.97074418120454
H          110.23147299682047      113.14001217806057      126.29058767911035
H          110.05246755050653      110.72008032886859      126.84693578178553
H          111.10682646802459      110.33435518420053      125.48532671962192
H          109.45135445319350      111.47503810469449      123.95826301198623
H          108.35586625528543      111.63108200447410      125.33039983640757
H          108.30520977388078      109.16321435012935      125.58679652274357
H          109.49719174476935      108.99540585671825      124.29844351705570
H          107.90552153858134      110.08499779180872      122.71192360385982
H          106.67927039389495      110.11496097131644      123.97911277676540
H          106.77273999637055      107.64600989547183      124.14416091314914
H          108.01621684671667      107.59701941279651      122.89527495024583
H          105.17544661916391      108.64270946381700      122.49723928342425
H          105.74660291302585      107.03346053474993      122.04971029463915
H          107.45224681555004      108.11550980346287      120.53835843231533
H          106.72313496311381      109.67850308401462      120.91150361464825
H          105.77008625734518      109.08100489438075      118.86278645184935
H          104.51123850934684      108.72582068190960      120.03926394428966
H          105.10072861330777      106.30821026571630      119.93939858469697
H          106.42497591809752      106.67547543140570      118.83595585523395
H          104.78206639948840      107.59421208917217      117.19358198315614
H          103.46482760527381      107.17940705571597      118.28745215995446
H          104.11453442650419      104.77784058331925      118.14274478841087
H          105.42582982634788      105.20351078123133      117.04020973832245
H          103.72564699813132      106.16103928550552      115.45228713939179
H          102.44989884007171      105.62702068470031      116.54164736459903
H          103.19843925699250      103.26004046026954      116.24335927818746
H          104.46553695490559      103.80836415257087      115.14796201112263
H          102.70624434598639      104.78476127871619      113.65105357733846
H          101.46575074807015      104.16549206184663      114.73318754055498
H          102.26303084393703      101.83222320080567      114.29164676836767
H          103.52555260918251      102.47859360956137      113.24598255163507
H          101.82399908412857      101.81477830182584      111.74209959884851
H          101.66304204128572      103.56045684722658      111.86564807359210
H           99.96239038731314      102.75621843631922      113.87938915327392
H           99.80739203392301      101.40014316192611      112.77611867223993
H           98.08259872126351      102.94598291140650      112.22943006556119
H           99.26959414395191      103.08406887033144      110.93369626925316
H          100.14167723154230      105.16559064170437      111.88353826443512
H           99.21218679496283      104.92851799821010      113.35948372885318
H           97.10142685020526      105.20225518484493      112.09594595179708
H           98.00850650231000      105.42152229324932      110.60042531195968
H           99.06407777702977      107.45244693857143      111.47933205292263
H           98.34757382364855      107.17556674303562      113.06586460463582
H           96.08862293109030      107.54581464533028      112.15284771548831
H           96.74547354478014      107.66948548958426      110.52187532667497
H           96.36321377257951      109.91292935452304      111.23389668752733
H           98.10398945472373      109.65405355263519      111.27911583646112
H           97.80271549380686      109.13250911878620      113.79727473218445
H           96.18422238498606      109.80381425915748      113.63134605162476
H           97.19140657226330      111.94685470707114      112.80525350064427
H           98.79263350453142      111.22119079867990      112.93352240275381
H           98.29241561796613      110.82548271109233      115.41165959663032
H           96.89200352785784      111.87653666844558      115.21840620083499
H           98.40851289186837      113.71556061676360      114.44524115076177
H           99.78520384971067      112.62389300467912      114.60196636632210
H           99.18258339717278      112.35110903852610      117.05818684732675
H           98.02376435297256      113.65742385842012      116.86467163003569
H           99.85657931589823      115.18728327763360      116.15706934151838
H          101.00901797843487      113.85744452772478      116.26569424933378
H          100.37011465470506      113.62438407904789      118.72419721193623
H           99.46840333156064      115.12776625379718      118.56692970764672
H          101.57691994487435      116.27451892019516      117.82003847454239
H          102.45367360454645      114.76417219470648      118.04719328845967
H          101.76958106511519      114.77642937599620      120.47081090003748
H          100.99359112106374      116.33491420165286      120.21433176888500
H          103.19787749210936      117.27419182787854      119.47583566606299
H          103.96233631354978      115.72938037232247      119.84611900952284
H          103.20057037760441      115.92347627114782      122.20790799489127
H          102.49257097501801      117.49717825021420      121.85152970790077
H          105.45562933106741      116.81153267401645      121.59646801056579
H          104.70775628851938      117.63376039716930      122.96812095631249
H          103.94005428696727      119.44644804818503      121.36153335815219
H          104.89890185102122      118.65066833174200      120.10868507968178
H          106.28216751930046      120.37799522289491      120.92397351938737
H          106.91918385361024      118.89075247743858      121.62452341544090
H          105.81928133154584      119.41811643910567      123.77831841856298
H          105.03444231129366      120.81775232316370      123.04792339347104
H          106.90144467450770      121.60556158859241      124.33124144927081
H          107.29727314156352      121.82499357215671      122.62782558847849
H          108.72498850197701      119.81636725328704      122.67050674381490
H          108.23086901176565      119.47175982724647      124.32809525879046
H          109.76744806671253      121.95156695773876      123.41927475651394
H          109.29432790490144      121.60041821805686      125.08063438290002
H          110.46029285991922      120.56132998645190      124.25786968998000
H          117.69650095332597      107.61894216140270       99.87122428404004
H          116.98300444936515      106.05529915744530      100.26222101266784
H          116.90745642941631      106.67078635718045       98.61068849865309
C          107.17850241592321      125.23440240767832      118.63380950921227
C          107.02776112140796      124.14256631487767      119.68608805617866
C          105.65867712652474      123.46200701981316      119.65387227403164
C          105.42314787098110      122.63115123456130      118.39431763653515
C          104.14106866756991      121.80665330912932      118.48892805878667
C          103.94667792034581      120.90938486570192      117.26707515339048
C          102.92605721534221      119.79496726020223      117.49409962748540
C          101.47278417861381      120.25927187675538      117.55237626523562
C          100.54386790518745      119.07753838626967      117.82308739357627
C           99.06274649725873      119.44293466868044      117.79895945263662
C           98.18833798769023      118.22511913083476      118.09695978993325
C           96.69890034736424      118.54269692466829      117.99523241328713
C           95.79763219832161      117.40120281609252      118.47086197858775
C           95.88942850457452      116.11227496298267      117.65113047775598
C           95.46449274938989      116.28686224964153      116.19411859398585
C           95.30717822911643      114.94232843277607      115.48501556046250
C           95.06203165495050      115.06784516284272      113.98089694483026
C           93.71799650691082      115.70454569423343      113.63638428784161
C           93.50010420340546      115.81386358094748      112.12885836514178
C           92.14335232345009      116.42841771112137      111.79358306772446
C           91.92497792610106      116.58909137342894      110.29065580110601