3258
 energy: -3427.522027618644 gnorm: 0.000969388172 xtb: 6.6.1 (8d0f1dd)
C          127.34500830740249      127.11183873277018      103.58439113446052
C          127.40313598083735      126.39649792255935      104.92840521133932
C          126.00932755608758      126.11899553586358      105.48569629414814
C          126.05929624286959      125.40226017577329      106.83288982572071
C          124.65937570770912      125.12163319441322      107.37189753669195
C          124.65193510448155      124.30778086790241      108.66560992239337
C          125.23167441353695      125.06368713969627      109.85937716919044
C          124.97756783719555      124.36352469593436      111.19532347302622
C          125.65167506614686      122.99697610366749      111.30311931547311
C          125.53789713989033      122.41399666107048      112.71047160753072
C          126.12941798534240      121.00923181139143      112.79826058226399
C          125.98953113309956      120.40466978616588      114.19315314581164
C          126.53226420096743      118.97830089597068      114.26047223118036
C          126.33224408714608      118.36027526242401      115.64174833642998
C          126.90076513985640      116.94674093684331      115.77193767185936
C          126.20839428756355      115.91667796293743      114.87952908729312
C          126.61047352967238      114.49168932106946      115.25476585694611
C          125.97442364380557      113.43851434185179      114.34881084507057
C          126.30825812510729      112.02324224075542      114.82071022045001
C          125.93964246296312      110.93179776707099      113.81522908590442
C          124.44363481452613      110.85267256539279      113.52277898785067
C          124.06292703855260      109.62923493429443      112.68706884126945
C          124.78184913986108      109.56746103499300      111.33618007421411
C          124.01677024389893      108.72244758458778      110.31982858877646
C          124.71897790503995      108.60820289085719      108.96666676436622
C          123.79620569316158      107.95502744878874      107.94151250687065
C          124.39720779318283      107.84426916888908      106.54207042008890
C          123.40180390107591      107.26838838914551      105.52941446261006
C          122.32022672304808      108.26426386593330      105.10794191991390
C          121.15121453922065      107.58218126860675      104.40070258064540
C          120.00243575645257      108.54354646048677      104.10196052522873
C          118.77230024026177      107.81462524924433      103.56481525051232
C          117.58598380505879      108.75183206033506      103.34853209734599
C          116.33049575169885      108.00249359283245      102.90779901689213
C          115.10624362491231      108.91208934236869      102.82923320882875
C          113.83384156905942      108.13749711773801      102.49299346656124
C          112.58518193116778      109.01712007071485      102.52691000782522
C          111.33613185595223      108.24455765781981      102.10947350254050
C          110.06419268535220      109.08994342480659      102.18512241243562
C          108.87058548189434      108.42539107298035      101.49599409361873
C          108.36897063242785      107.17294911107608      102.21804684685269
C          107.61130019642764      106.21109088332287      101.29981005626937
C          108.51323181117381      105.45331590733466      100.32336122267226
C          109.36919449950770      104.39185264208653      101.01030772442746
C          110.37645021394931      103.72127533592644      100.07698778778274
C          111.45380276376008      104.67364565230913       99.56018329868640
C          112.59951372173325      103.92416078782084       98.88362618903480
C          113.58113192810698      104.87788424730203       98.20899790781584
C          114.75652730178446      104.14886868513911       97.56361257490127
C          115.64680022248636      105.10725858821098       96.77630270808254
C          116.88198016000132      104.41306394512984       96.20730211117969
C          117.67074297664784      105.28689192211480       95.23097359046277
C          118.19710797462126      106.57160915082143       95.86660062559271
C          119.17800913899922      107.30998682103578       94.95945868182095
C          119.68153703888935      108.60511106636211       95.59444867656586
C          120.72063366003746      109.30109384134700       94.71972786066196
C          121.39140615193710      110.49298511950559       95.40179553333543
C          120.46675248551199      111.68964017752525       95.61371945243938
C          121.24184267181576      112.90819651891123       96.11092652162435
C          120.36218673400143      114.14807126233875       96.24926328175063
C          121.17192258051115      115.37555824015814       96.66029999223682
C          120.30867957687286      116.62921321722314       96.77522670229571
C          121.12448748567719      117.85971036900776       97.16466902571435
C          120.25408172926564      119.10943436331499       97.27140301203417
C          121.06136411025949      120.34894390287171       97.64980584904777
C          120.19628396550563      121.60641220235968       97.69219976140208
C          120.99302711544215      122.84441416455803       98.09884254253555
C          120.14431393094354      124.11253300330657       98.02697135445291
C          120.91733126669379      125.38613789674403       98.37601509992750
C          121.29055862276974      125.46644591134910       99.85398446905640
C          121.93306413594563      126.80046894505818      100.22711476747148
C          122.40245880137961      126.84575740798888      101.68293323321434
C          121.25550963298591      126.81967294119792      102.69138720228457
C          121.76138482761141      126.83055881529728      104.13181922852841
C          120.62166084328500      126.71168350279206      105.14208505190757
C          121.14122636724856      126.50247661799582      106.56200034784975
C          120.01887159756303      126.24642619250065      107.56490374536325
C          120.55943434435470      125.82754935038156      108.93063091762777
C          119.43625073110690      125.52608747447012      109.92024704007896
C          119.93641001820696      125.09241903725139      111.29938471406324
C          120.56685320304703      123.70112371101209      111.30411130640056
C          120.90480328215168      123.23157751087147      112.71680241850770
C          121.39172544829462      121.78440922590177      112.74948985019930
C          121.60028965695669      121.29089843815709      114.17924913358686
C          121.86899311548336      119.78894724038402      114.26306844687645
C          122.06131171484293      119.34668756174443      115.71171056837593
C          122.29122931294978      117.84445937906406      115.86571977768833
C          122.58965091306685      117.49011786205226      117.32216588910435
C          122.91609986395598      116.01667481635947      117.56328252027544
C          121.77380249416093      115.04789793770583      117.25645005263509
C          120.48575227082917      115.29729913696868      118.04208183430841
C          120.63989692375721      115.14959089377092      119.55575915321238
C          119.28263322019613      115.01840940713977      120.24713116723865
C          119.41307864235948      114.89952513107572      121.76567868505975
C          118.13693626184008      114.40641788318766      122.45102140503464
C          116.97456516043749      115.39575430780729      122.40140971958655
C          115.73612057872205      114.84419265576393      123.10821870318178
C          114.55625241232983      115.81218213856607      123.05134427386838
C          113.26218930397292      115.19746056294983      123.58376002816435
C          112.06547675255646      116.12244768937326      123.36493710469722
C          110.72028087037596      115.43107025529723      123.58096515405892
C          109.55548369811176      116.32813582485431      123.16435364084818
C          108.19871528267487      115.64160983125873      123.30258061406107
C          107.05064146363912      116.53270552816207      122.82993138947874
C          105.68446564238378      115.88584417707433      123.04957466391544
C          104.52996095970059      116.78979347156677      122.61785146591581
C          103.17610239249220      116.20555003528909      123.01995619613606
C          101.98867639060022      117.09833608760970      122.64716423501204
C          101.59829171956888      116.98113908885030      121.17603792191456
C          100.48918122511164      117.95367299156722      120.77873478378864
C          100.03484804417066      117.72061445014197      119.33821490551375
C           99.21011100059974      118.87544661456180      118.77360358117360
C           98.90899114442286      118.67252160125656      117.29011380521911
C           98.33371406613900      119.91716156851966      116.61963461922994
C           98.09060670287988      119.67851351722351      115.13143683113138
C           97.68426786903845      120.94345204552427      114.37981033051996
C           97.54312196210002      120.67751224700245      112.88305071761120
C           97.11340251939052      121.91091662430473      112.09475286790166
C           97.00861443188366      121.61592617298969      110.59992860149588
C           96.54476485742197      122.83127965394463      109.80737604878746
H           97.98367149592255      121.29184264004418      110.22814135153061
H           96.30878596859981      120.79142680163972      110.44373243640513
H           96.14509626210074      122.25861347459227      112.46297723145798
H           97.83470693083009      122.71611571903388      112.25474445335780
H           98.49837110098322      120.31875679523071      112.49221703612113
H           96.80942883954243      119.88351805140223      112.72848900301851
H           96.73735134694834      121.31735622721659      114.77640943101228
H           98.43645188256852      121.72005892770629      114.54090917169344
H           99.00497823083506      119.28038351374126      114.68588709857248
H           97.31062120739227      118.92412819832580      115.00886201532795
H           97.39937384575140      120.20083380875714      117.10764647462916
H           99.03425181348585      120.74759420754380      116.74190698386295
H           99.83326572050946      118.39459682352707      116.77918861776959
H           98.21042084910559      117.84256264213852      117.16720532695872
H           98.27816988322584      118.98020889232305      119.33345413268621
H           99.77046949827029      119.80613060668155      118.89657051110518
H          100.91863008516103      117.59084102169345      118.71094428303675
H           99.45639787478325      116.79664962994951      119.28344989368209
H           99.63940785796277      117.84384556648695      121.45660608586967
H          100.85936487809639      118.97665385813373      120.88266206849050
H          102.47308723066476      117.17730033045828      120.55399327829556
H          101.26861293879723      115.95987686145573      120.97447818770972
H          101.12696217039847      116.82110254926187      123.25984004895130
H          102.23190001106288      118.13784457572133      122.88001703186686
H          103.05127824969934      115.22740441301902      122.54991119099637
H          103.17803612766154      116.05501025437438      124.10272433665131
H          104.64677952273884      117.76976437908391      123.08790559192508
H          104.56830649233831      116.93358780648249      121.53668654986515
H          105.63268776396765      114.94675298754503      122.49431488623931
H          105.57292312731693      115.64718131828299      124.11000837995556
H          107.08717178941846      117.48065096629024      123.37303823756382
H          107.17969480553840      116.75560152351129      121.76868763610008
H          108.20179831748212      114.71922672300261      122.71791272873405
H          108.03758173913673      115.36861120312770      124.34742166885435
H          109.56446567521117      117.23691923705324      123.77127542013362
H          109.69571909283241      116.62641999359658      122.12327119646561
H          110.69122134077296      114.51483997058624      122.98715748441384
H          110.61222293350588      115.14647750313269      124.62940592031262
H          112.14454577502845      116.98724331611069      124.02757669367453
H          112.09791675126731      116.49496670447152      122.33918806762213
H          113.08110631521484      114.25491008114518      123.06307082109058
H          113.36793720015977      114.96699691973673      124.64556818274717
H          114.79643019328562      116.71305318372744      123.62005877424633
H          114.39838516160098      116.11173205674095      122.01285578216130
H          115.44648732992304      113.90271202656137      122.63312740890171
H          115.97795020579798      114.61962255983759      124.14921890116048
H          117.27531656692683      116.33472646824816      122.87122897368251
H          116.72148346570918      115.61250409770382      121.36144601024365
H          117.82590188609831      113.46873342823075      121.98370100232481
H          118.36353559958333      114.18900218330413      123.49754833092328
H          120.21384643362562      114.18944369557067      121.98973871679316
H          119.70507097895424      115.86488648025109      122.18556964551706
H          118.66734656396230      115.88420823598481      119.99287966425180
H          118.77631635996032      114.12989212646066      119.86257860515920
H          121.23698244578355      114.26038300855103      119.77354326069315
H          121.17341968242646      116.01006790953991      119.96467129754656
H          120.09903830656292      116.29057529313229      117.81036046736284
H          119.74217302073522      114.57533593175833      117.69971207696565
H          121.54343068931836      115.09287213250376      116.18973126960680
H          122.12473999948674      114.03435258866249      117.47109615436439
H          123.77602946033363      115.73851104593852      116.94902182315516
H          123.21211602298143      115.89666121606624      118.60760535933377
H          123.44577012239465      118.08380609402163      117.65553544748812
H          121.73808903915820      117.77811789432812      117.93967243343268
H          121.40413434028487      117.30870946889949      115.52395710793672
H          123.12762594509539      117.53614054632786      115.23332102610846
H          122.91626380217212      119.88298717212727      116.13336596447542
H          121.17949580577729      119.63147963581363      116.29032936921914
H          121.03010474477163      119.24340826256584      113.82279494825872
H          122.76210503505129      119.54149076975902      113.68484642043387
H          122.43639235046429      121.83212135095580      114.62973913134870
H          120.70942393721545      121.52471052015518      114.76755268561453
H          120.65480210238213      121.14814205085624      112.25305653056785
H          122.32714817584740      121.70084763784004      112.19135969408583
H          121.66829569664672      123.88402499073139      113.14746450394759
H          120.01141394097962      123.31539097731185      113.33943982529281
H          119.86358659079627      122.99385524232459      110.85654392677823
H          121.47358629543554      123.70000976318570      110.69605700508529
H          120.66015830467529      125.82219747192281      111.66957484509464
H          119.08881777524780      125.08827958014217      111.99016533720412
H          118.82160657703574      126.42260352975634      110.03525084033630
H          118.79553230299864      124.74084782819391      109.51026434911087
H          121.18380001943095      124.94194798688477      108.80119414389316
H          121.19158221279925      126.62289671021958      109.33188541529444
H          119.40725537328964      127.14561846368025      107.66943199363497
H          119.37192581255732      125.45307781060789      107.18121576679445
H          121.81674018782894      125.64480247087305      106.56273056158328
H          121.71787111010683      127.37625976970391      106.87293195266504
H          119.99695453928346      127.60666897886267      105.10257731545933
H          119.99054769866196      125.86188179515270      104.86815928140220
H          122.44752390615483      125.99167808573343      104.27110610217821
H          122.32324323460861      127.74801247078521      104.31942750978656
H          120.60458906287587      127.68094124886619      102.52420463091424
H          120.65893004897849      125.91835893951142      102.54316857540977
H          123.06322738635352      125.99576443104139      101.87151529941603
H          122.98693657158671      127.75584335119522      101.83819955760002
H          122.79346536320284      126.97140859735036       99.57516594891001
H          121.22046265560842      127.60972450201329      100.05072407724957
H          120.38397954126032      125.32573799757736      100.44439497640231
H          121.98466470371969      124.66111084125608      100.10106148039554
H          121.82157319249866      125.44092768145249       97.76528054997939
H          120.29785833044104      126.25098788870932       98.12477272945276
H          119.75039836980415      124.20931899709409       97.01201784618092
H          119.29039187442233      124.01389067116025       98.70164583842019
H          121.37001664462871      122.70574404411903       99.11343214972592
H          121.85451104807734      122.95168109705965       97.43523566894656
H          119.75450417736894      121.76900375849885       96.70608392765352
H          119.37493065762294      121.45763234241325       98.39795347428002
H          121.52449765119198      120.19476504192218       98.62795796762158
H          121.86532721675810      120.49122166606358       96.92395268744150
H          119.75852255447386      119.28443898103183       96.31336532839661
H          119.47527322834358      118.94196305079370       98.01949203023557
H          121.61603889254576      117.68047596420317       98.12354277820403
H          121.90530350713357      118.02541206351303       96.41888316578218
H          119.81361726443035      116.81367940959170       95.81871478973015
H          119.52619424212895      116.46614319449483       97.52098230902374
H          121.65703297263785      115.18018810546990       97.61911240743808
H          121.96019290205335      115.54939533428961       95.92406922291339
H          119.86924041869072      114.34674195193989       95.29435544682430
H          119.58159368831227      113.96183806345164       96.99032166467552
H          121.69976855371908      112.67779087460161       97.07606299393339
H          122.05174023310498      113.12472342774856       95.40994259700878
H          119.97771139715073      111.93777966425048       94.66848697793151
H          119.68668937006809      111.43674223170154       96.33447937575569
H          121.79732603653622      110.17477644030092       96.36434657357707
H          122.23092497941319      110.81555509497464       94.78031453643460
H          121.49460948463114      108.57476266170599       94.45610943303768
H          120.25261646821492      109.63005825687328       93.78891470688158
H          118.83596080933370      109.27286441550251       95.76871313388251
H          120.13069878110691      108.37942519213651       96.56502012147244
H          120.02934925524738      106.65811325795991       94.74579320465206
H          118.69292019222910      107.53811114389606       94.00733112735793
H          117.36202909339382      107.23465229936879       96.09998046866613
H          118.69867524483648      106.32083888164684       96.80366436989485
H          118.51705918663188      104.70763572594008       94.85227672193579
H          117.03774037396320      105.53823200952107       94.37656738909426
H          117.53467129302376      104.11553742994532       97.03128770947205
H          116.57018366955191      103.50360011575827       95.68641854026365
H          115.06782408057722      105.54190548959130       95.95748106532919
H          115.95518351486879      105.92096967476550       97.43496251635877
H          115.34780206094592      103.65828464492297       98.34023944346129
H          114.37901462526835      103.37193180199769       96.89328184804165
H          113.05266737561415      105.45325871779218       97.44442604113844
H          113.96238159980000      105.59007759061024       98.94564901176850
H          113.12932787556028      103.31869362418566       99.62298233796605
H          112.19024425288055      103.24442453166922       98.13313980570314
H          111.01898404843394      105.36878861342167       98.83973358449197
H          111.84785924839055      105.26232927706380      100.39324698256759
H          110.86447560388069      102.91026325710266      100.62261378302574
H          109.84934732033253      103.27559331475277       99.22930966279155
H          109.91916198133340      104.84429792885705      101.83568500244995
H          108.71198596539415      103.62608180380394      101.43177189318173
H          107.89020488291335      104.97126381862306       99.56571236174378
H          109.16118736997457      106.16525517607364       99.81281567672318
H          107.07464838529644      105.48308404670583      101.91314106965787
H          106.86785248944869      106.77498530971403      100.73085582840368
H          109.21165097270564      106.64364413426469      102.65971753227571
H          107.70909704661766      107.47232154281231      103.03482225669953
H          108.05212798688440      109.14610586905366      101.42258005521838
H          109.16730184392104      108.16826685577162      100.47852119759652
H          109.81982736111689      109.29575502763615      103.22897909426027
H          110.25219303108486      110.05029221915686      101.69823112742824
H          111.46676299805674      107.88856754971135      101.08497752266351
H          111.23759011131754      107.36903474144081      102.75402252147282
H          112.44782155006116      109.41560558891746      103.53549111726424
H          112.72529341970548      109.86952967882148      101.85819475438973
H          113.93409044529773      107.69248373536547      101.50033938615192
H          113.71291316073051      107.31718440778927      103.20634255380266
H          114.97609575013804      109.42038873643116      103.78674695169364
H          115.27218701382105      109.68013302095989      102.07110655066013
H          116.50332054659422      107.54018399223457      101.93320531297250
H          116.13051359336764      107.19987081324662      103.62218871878052
H          117.37569850381026      109.27938435398086      104.28183742447956
H          117.84569440189098      109.50110957923285      102.59846642257055
H          119.02340439138058      107.32170650910430      102.62206327808941
H          118.48481444776554      107.03451690709866      104.27537932634293
H          119.72896421827036      109.06925136056373      105.01978205824558
H          120.32844817298583      109.29331591282366      103.37884520256900
H          121.50124800292431      107.12835580739726      103.47115778825942
H          120.77567469441537      106.77595237677259      105.03609893759209
H          121.93594904972085      108.77843461138387      105.98972365654269
H          122.75773572708204      109.02139032236602      104.45445270530269
H          123.93859631817749      106.93813762540125      104.63690780723587
H          122.93023163850924      106.38521976582047      105.96974749859227
H          124.73024275872899      108.82812176008170      106.20441688579670
H          125.27379057618781      107.19325005302017      106.58906368811215
H          123.52703602121305      106.95527870142317      108.29159467605452
H          122.88020862406358      108.54482527132410      107.89489674919623
H          125.00101932844666      109.60161032465309      108.61369171096291
H          125.63090145018477      108.01953497760407      109.07230261763536
H          123.86230416531252      107.72027533835744      110.72222886012781
H          123.03101414679250      109.17122976355422      110.16769273455215
H          124.88805724500973      110.57978479126074      110.94443500225918
H          125.78432871793751      109.15594479952746      111.46962123068863
H          124.27538502872055      108.72126468718459      113.25715420093613
H          122.98385789213746      109.66068301291304      112.51278210731486
H          123.89336039615606      110.81666829324884      114.46673330092051
H          124.12962416856715      111.75293658436587      112.99142479107620
H          126.47878085237996      111.11203898350854      112.88440343639900
H          126.27267802159803      109.96933586316437      114.21210964262804
H          127.38343485193641      111.96456683619667      115.01274867612462
H          125.79779482126686      111.83232756019169      115.76798955008600
H          124.89183631304738      113.57832861890716      114.34312464672391
H          126.33253810654057      113.57743391156083      113.32615211144109
H          127.69867526662163      114.40151916157180      115.20331198460691
H          126.31482734439339      114.29763205809176      116.28925603569162
H          125.12497903827305      116.02109004046423      114.97695642053060
H          126.46425717809996      116.09826240339609      113.83446135523594
H          127.96863321067100      116.96194373254767      115.54114022143163
H          126.79447504108641      116.63123711533869      116.81335789045610
H          126.81532169658898      118.99895298554023      116.38585593696723
H          125.26560569535860      118.33810147949275      115.87198938538609
H          126.01986100834407      118.36913472459052      113.51370932667787
H          127.59766725903495      118.98345499006177      114.01752458169634
H          126.52027089115562      121.03017370080799      114.91492930870993
H          124.93448398499375      120.39885256610826      114.47555135536805
H          125.61608723568663      120.36544514787566      112.08018327446193
H          127.18579128908152      121.04078580646841      112.52011461893500
H          126.05050563968599      123.06954198888126      113.41849547842889
H          124.48526007543980      122.37774201317002      113.00014248484403
H          125.18893619862175      122.30658713485482      110.59597418491600
H          126.70697953470325      123.09097544314423      111.03566937694400
H          125.35032180916501      125.00380470160914      111.99906510909557
H          123.90122145295457      124.24615907042107      111.34333768401228
H          126.30731384514627      125.19232259147743      109.72616840315587
H          124.77981352468457      126.05829044409191      109.89753850118269
H          123.61928843618480      124.03295349137369      108.89590445967447
H          125.21659838074851      123.38728854760149      108.50723721609116
H          124.13992420294518      126.06801741714251      107.53755646532079
H          124.10195468636601      124.57090339201046      106.60861792869349
H          126.59728566932549      124.45799395154653      106.72012971101016
H          126.61317278279753      126.01792993598686      107.54350657733191
H          125.47132571708552      127.06319139864365      105.59928147017780
H          125.45083955848553      125.50934815971208      104.77062404908692
H          127.94090805574889      125.45206124592096      104.81337734478282
H          127.96095557430405      127.00832171996248      105.64123849649185
H          126.82623419021053      128.06314946377711      103.68154271879514
H          128.34711025493712      127.30433377381536      103.20815269885966
H          126.81339888084602      126.50683031789922      102.85296836004606
H           97.24020393482500      123.65821459768399      109.93469670334494
H           96.48112469666157      122.59623308581513      108.74726490678059
H           95.56329410027330      123.15583306488125      110.14617905409158
C          111.03658214728655      105.53488801360010      109.87602876622944
C          109.65312885912839      106.11651906748601      110.13124231840270
C          108.58363165144281      105.03838655151050      110.27955159358405
C          107.20024132915513      105.63693464117239      110.52085524847918
C          106.13255429910512      104.56669770306729      110.73768437017289
C          104.73953893669824      105.17351174229232      110.88039406151009
C          103.66562822905404      104.13326212683565      111.19285393527261
C          102.27603753222218      104.76444424426676      111.23204828184575
C          101.19070481899438      103.80473906660309      111.71462456648948
C           99.81000442385212      104.45310222794541      111.63974908350157
C           98.70942134172478      103.62296823004426      112.29685109150925
C           97.35999236417086      104.32844135512798      112.18961359213728
C           96.22250648330188      103.63523838041989      112.93613409758264
C           95.00707817232700      104.55584414308315      113.02589473350751
C           93.79517166070150      103.91547231669270      113.69916782345339
C           92.69185499551077      104.95116849461668      113.90926966861184
C           91.38833890496682      104.38564739765518      114.47146285097926
C           90.66114179353279      103.48546844253984      113.47554192717949
C           89.23698214124207      103.15742619710883      113.92128655135400
C           88.57261602230695      102.06823241474403      113.07570332717789
C           88.51618451704365      102.40903813093071      111.58817544081799