      -----------------------------------------------------------      
     |                   =====================                   |     
     |                           x T B                           |     
     |                   =====================                   |     
     |                         S. Grimme                         |     
     |          Mulliken Center for Theoretical Chemistry        |     
     |                    University of Bonn                     |     
      -----------------------------------------------------------      

   * xtb version 6.6.1 (8d0f1dd) compiled by 'stahn@M-Bot' on 2023-08-01

   xtb is free software: you can redistribute it and/or modify it under
   the terms of the GNU Lesser General Public License as published by
   the Free Software Foundation, either version 3 of the License, or
   (at your option) any later version.
   
   xtb is distributed in the hope that it will be useful,
   but WITHOUT ANY WARRANTY; without even the implied warranty of
   MERCHANTABILITY or FITNESS FOR A PARTICULAR PURPOSE.  See the
   GNU Lesser General Public License for more details.
   
   Cite this work as:
   * C. Bannwarth, E. Caldeweyher, S. Ehlert, A. Hansen, P. Pracht,
     J. Seibert, S. Spicher, S. Grimme, WIREs Comput. Mol. Sci., 2020, 11,
     e01493. DOI: 10.1002/wcms.1493
   
   for GFN2-xTB:
   * C. Bannwarth, S. Ehlert and S. Grimme., J. Chem. Theory Comput., 2019,
     15, 1652-1671. DOI: 10.1021/acs.jctc.8b01176
   for GFN1-xTB:
   * S. Grimme, C. Bannwarth, P. Shushkov, J. Chem. Theory Comput., 2017,
     13, 1989-2009. DOI: 10.1021/acs.jctc.7b00118
   for GFN0-xTB:
   * P. Pracht, E. Caldeweyher, S. Ehlert, S. Grimme, ChemRxiv, 2019, preprint.
     DOI: 10.26434/chemrxiv.8326202.v1
   for GFN-FF:
   * S. Spicher and S. Grimme, Angew. Chem. Int. Ed., 2020, 59, 15665-15673.
     DOI: 10.1002/anie.202004239
   
   for ALPB and GBSA implicit solvation:
   * S. Ehlert, M. Stahn, S. Spicher, S. Grimme, J. Chem. Theory Comput.,
     2021, 17, 4250-4261. DOI: 10.1021/acs.jctc.1c00471
   
   for DFT-D4:
   * E. Caldeweyher, C. Bannwarth and S. Grimme, J. Chem. Phys., 2017,
     147, 034112. DOI: 10.1063/1.4993215
   * E. Caldeweyher, S. Ehlert, A. Hansen, H. Neugebauer, S. Spicher,
     C. Bannwarth and S. Grimme, J. Chem. Phys., 2019, 150, 154122.
     DOI: 10.1063/1.5090222
   * E. Caldeweyher, J.-M. Mewes, S. Ehlert and S. Grimme, Phys. Chem. Chem. Phys.
     2020, 22, 8499-8512. DOI: 10.1039/D0CP00502A
   
   for sTDA-xTB:
   * S. Grimme and C. Bannwarth, J. Chem. Phys., 2016, 145, 054103.
     DOI: 10.1063/1.4959605
   
   in the mass-spec context:
   * V. Asgeirsson, C. Bauer and S. Grimme, Chem. Sci., 2017, 8, 4879.
     DOI: 10.1039/c7sc00601b
   * J. Koopman and S. Grimme, ACS Omega 2019, 4, 12, 15120-15133.
     DOI: 10.1021/acsomega.9b02011
   
   for metadynamics refer to:
   * S. Grimme, J. Chem. Theory Comput., 2019, 155, 2847-2862
     DOI: 10.1021/acs.jctc.9b00143
   
   for SPH calculations refer to:
   * S. Spicher and S. Grimme, J. Chem. Theory Comput., 2021, 17, 1701-1714
     DOI: 10.1021/acs.jctc.0c01306
   
   with help from (in alphabetical order)
   P. Atkinson, C. Bannwarth, F. Bohle, G. Brandenburg, E. Caldeweyher
   M. Checinski, S. Dohm, S. Ehlert, S. Ehrlich, I. Gerasimov, C. Hölzer
   A. Katbashev, J. Koopman, C. Lavigne, S. Lehtola, F. März, M. Müller,
   F. Musil, H. Neugebauer, J. Pisarek, C. Plett, P. Pracht, F. Pultar,
   J. Seibert, P. Shushkov, S. Spicher, M. Stahn, M. Steiner, T. Strunk,
   J. Stückrath, T. Rose, and J. Unsleber
   
 * started run on 2024/06/20 at 14:44:55.367     

           -------------------------------------------------
          |                Calculation Setup                |
           -------------------------------------------------

          program call               : /home/abt-grimme/AK-bin/xtb input.xyz --input input.inp --opt --gbsa water
          hostname                   : boar069.thch.uni-bonn.de
          coordinate file            : input.xyz
          omp threads                :                     8

   ID    Z sym.   atoms
    1    6 C      1-90, 273-362, 545-634, 817-906, 1089-1178, 1361-1450,
                  1633-1722, 1905-1994, 2177-2266, 2449-2538, 2721-2810,
                  2993-3082, 3265-3354
    2    1 H      91-272, 363-544, 635-816, 907-1088, 1179-1360, 1451-1632,
                  1723-1904, 1995-2176, 2267-2448, 2539-2720, 2811-2992,
                  3083-3264, 3355-3536

molecular fragmentation (1/2 indicates fragments):
111111111111111111111111111111111111111111111111111111111111111111111111
111111111111111111111111111111111111111111111111111111111111111111111111
111111111111111111111111111111111111111111111111111111111111111111111111
111111111111111111111111111111111111111111111111111111112222222222222222
222222222222222222222222222222222222222222222222222222222222222222222222
222222222222222222222222222222222222222222222222222222222222222222222222
222222222222222222222222222222222222222222222222222222222222222222222222
222222222222222222222222222222222222222222222222222222222222222222222222
222222222222222222222222222222222222222222222222222222222222222222222222
222222222222222222222222222222222222222222222222222222222222222222222222
222222222222222222222222222222222222222222222222222222222222222222222222
222222222222222222222222222222222222222222222222222222222222222222222222
222222222222222222222222222222222222222222222222222222222222222222222222
222222222222222222222222222222222222222222222222222222222222222222222222
222222222222222222222222222222222222222222222222222222222222222222222222
222222222222222222222222222222222222222222222222222222222222222222222222
222222222222222222222222222222222222222222222222222222222222222222222222
222222222222222222222222222222222222222222222222222222222222222222222222
222222222222222222222222222222222222222222222222222222222222222222222222
222222222222222222222222222222222222222222222222222222222222222222222222
222222222222222222222222222222222222222222222222222222222222222222222222
222222222222222222222222222222222222222222222222222222222222222222222222
222222222222222222222222222222222222222222222222222222222222222222222222
222222222222222222222222222222222222222222222222222222222222222222222222
222222222222222222222222222222222222222222222222222222222222222222222222
222222222222222222222222222222222222222222222222222222222222222222222222
222222222222222222222222222222222222222222222222222222222222222222222222
222222222222222222222222222222222222222222222222222222222222222222222222
222222222222222222222222222222222222222222222222222222222222222222222222
222222222222222222222222222222222222222222222222222222222222222222222222
222222222222222222222222222222222222222222222222222222222222222222222222
222222222222222222222222222222222222222222222222222222222222222222222222
222222222222222222222222222222222222222222222222222222222222222222222222
222222222222222222222222222222222222222222222222222222222222222222222222
222222222222222222222222222222222222222222222222222222222222222222222222
222222222222222222222222222222222222222222222222222222222222222222222222
222222222222222222222222222222222222222222222222222222222222222222222222
222222222222222222222222222222222222222222222222222222222222222222222222
222222222222222222222222222222222222222222222222222222222222222222222222
222222222222222222222222222222222222222222222222222222222222222222222222
222222222222222222222222222222222222222222222222222222222222222222222222
222222222222222222222222222222222222222222222222222222222222222222222222
222222222222222222222222222222222222222222222222222222222222222222222222
222222222222222222222222222222222222222222222222222222222222222222222222
222222222222222222222222222222222222222222222222222222222222222222222222
222222222222222222222222222222222222222222222222222222222222222222222222
222222222222222222222222222222222222222222222222222222222222222222222222
222222222222222222222222222222222222222222222222222222222222222222222222
222222222222222222222222222222222222222222222222222222222222222222222222
22222222
# atoms in fragment 1/2:   272  3264
 fragment masses (1/2) :     1264.41    15172.94
CMA distance (Bohr)    :  25.542
constraining FC (au)   :  0.0500

           -------------------------------------------------
          |                 G F N 2 - x T B                 |
           -------------------------------------------------

        Reference                      10.1021/acs.jctc.8b01176
      * Hamiltonian:
        H0-scaling (s, p, d)           1.850000    2.230000    2.230000
        zeta-weighting                 0.500000
      * Dispersion:
        s8                             2.700000
        a1                             0.520000
        a2                             5.000000
        s9                             5.000000
      * Repulsion:
        kExp                           1.500000    1.000000
        rExp                           1.000000
      * Coulomb:
        alpha                          2.000000
        third order                    shell-resolved
        anisotropic                    true
        a3                             3.000000
        a5                             4.000000
        cn-shift                       1.200000
        cn-exp                         4.000000
        max-rad                        5.000000

      * Solvation model:               GBSA
        Solvent                        water
        Parameter file                 internal GFN2-xTB/GBSA
        Dielectric constant                8.0200E+01
        Reference state                gsolv [1 M gas/solution]
        Free energy shift                  1.8574E-03 Eh       1.1656E+00 kcal/mol
        Temperature                        2.9815E+02 K
        Density                            1.0000E+00 kg/L
        Solvent mass                       1.8000E+01 g/mol
        Interaction kernel             Still
        Born radius scaling (c1)           1.5524E+00
        Born radii integrator          GBOBC
        Born offset                        2.4628E-02 a0       4.6540E-02 AA
        H-bond correction              true
        Ion screening                  false
        Surface tension                    1.0000E-05 Eh       1.5569E+01 dyn/cm
        Grid points                               230 per atom
q/qsh data taken from xtbrestart
CAMM data taken from xtbrestart

          ...................................................
          :                      SETUP                      :
          :.................................................:
          :  # basis functions                7046          :
          :  # atomic orbitals                7046          :
          :  # shells                         4706          :
          :  # electrons                      7046          :
          :  max. iterations                   250          :
          :  Hamiltonian                  GFN2-xTB          :
          :  restarted?                       true          :
          :  GBSA solvation                   true          :
          :  PC potential                    false          :
          :  electronic temp.          300.0000000     K    :
          :  accuracy                    1.0000000          :
          :  -> integral cutoff          0.2500000E+02      :
          :  -> integral neglect         0.1000000E-07      :
          :  -> SCF convergence          0.1000000E-05 Eh   :
          :  -> wf. convergence          0.1000000E-03 e    :
          :  Broyden damping             0.4000000          :
          ...................................................

 iter      E             dE          RMSdq      gap      omega  full diag
   1  -3764.2668340 -0.376427E+04  0.345E-05   10.55       0.0  T
   2  -3764.2668340 -0.645741E-09  0.258E-05   10.55      65.1  T
   3  -3764.2668340 -0.891760E-09  0.121E-05   10.55     139.3  T

   *** convergence criteria satisfied after 3 iterations ***

         #    Occupation            Energy/Eh            Energy/eV
      -------------------------------------------------------------
         1        2.0000           -0.6173943             -16.8002
       ...           ...                  ...                  ...
      3517        2.0000           -0.3760623             -10.2332
      3518        2.0000           -0.3753311             -10.2133
      3519        2.0000           -0.3752788             -10.2119
      3520        2.0000           -0.3749369             -10.2026
      3521        2.0000           -0.3745801             -10.1928
      3522        2.0000           -0.3742932             -10.1850
      3523        2.0000           -0.3736216             -10.1668 (HOMO)
      3524                          0.0142603               0.3880 (LUMO)
      3525                          0.0153676               0.4182
      3526                          0.0157099               0.4275
      3527                          0.0170516               0.4640
      3528                          0.0174998               0.4762
       ...                                ...                  ...
      7046                          0.3760993              10.2342
      -------------------------------------------------------------
                  HL-Gap            0.3878820 Eh           10.5548 eV
             Fermi-level           -0.1796806 Eh           -4.8894 eV

 SCC (total)                   0 d,  0 h,  8 min, 50.970 sec
 SCC setup                      ...        0 min,  1.998 sec (  0.376%)
 Dispersion                     ...        0 min,  4.192 sec (  0.789%)
 classical contributions        ...        0 min,  0.170 sec (  0.032%)
 integral evaluation            ...        0 min,  7.114 sec (  1.340%)
 iterations                     ...        3 min, 36.280 sec ( 40.733%)
 molecular gradient             ...        4 min, 51.286 sec ( 54.859%)
 printout                       ...        0 min,  9.931 sec (  1.870%)

         :::::::::::::::::::::::::::::::::::::::::::::::::::::
         ::                     SUMMARY                     ::
         :::::::::::::::::::::::::::::::::::::::::::::::::::::
         :: total energy           -3715.389239020914 Eh    ::
         :: total w/o Gsasa/hb     -3715.281217962095 Eh    ::
         :: gradient norm              0.666332403970 Eh/a0 ::
         :: HOMO-LUMO gap             10.554805439892 eV    ::
         ::.................................................::
         :: SCC energy             -3764.266833978682 Eh    ::
         :: -> isotropic ES            0.438640860490 Eh    ::
         :: -> anisotropic ES          1.498544758843 Eh    ::
         :: -> anisotropic XC          2.302745876231 Eh    ::
         :: -> dispersion             -4.691828619449 Eh    ::
         :: -> Gsolv                  -0.045379244635 Eh    ::
         ::    -> Gelec                0.062641814184 Eh    ::
         ::    -> Gsasa               -0.103686913176 Eh    ::
         ::    -> Ghb                 -0.006191588770 Eh    ::
         ::    -> Gshift               0.001857443127 Eh    ::
         :: repulsion energy          48.143397771853 Eh    ::
         :: add. restraining           0.000000000000 Eh    ::
         :: total charge              -0.000000000011 e     ::
         :::::::::::::::::::::::::::::::::::::::::::::::::::::

      ----------------------------------------------------------- 
     |              Fast Inertial Relaxation Engine              |
      ----------------------------------------------------------- 

          ...................................................
          :                      SETUP                      :
          :.................................................:
          :   energy convergence        0.5000000E-05 Eh    :
          :   grad. convergence         0.1000000E-02 Eh/a0 :
          :   optimization log               true           :
          :   writing optlog all                1     steps :
          :   Hessian reset                    20     steps :
          :   time step scaling                 5     steps :
          :   maximium step len.        1.0000000     a0    :
          :   initial time step         0.2500000     fs    :
          :   maximum time step         1.2500000     fs    :
          :   power reset thr           0.0000000     au    :
          :   alpha parameter           0.1000000           :
          :   BFGS update                   false           :
          :   preconditioning               false           :
          ...................................................

........................................................................
.............................. CYCLE    1 ..............................
........................................................................

 iter      E             dE          RMSdq      gap      omega  full diag
   1  -3764.5289564 -0.376453E+04  0.764E-03   10.57       0.0  T
   2  -3764.5290002 -0.438044E-04  0.414E-03   10.56       1.0  T
   3  -3764.5290008 -0.668947E-06  0.179E-03   10.56       1.0  T
   4  -3764.5290014 -0.509888E-06  0.439E-04   10.56       3.8  T
   5  -3764.5290016 -0.270534E-06  0.173E-04   10.56       9.7  T
     SCC iter.                  ...        5 min, 52.917 sec
     gradient                   ...        4 min, 50.161 sec
 * total energy  : -3715.4398146 Eh     change    :  -0.5057563E-01 Eh
   gradient norm :     0.6335503 Eh/a0  converged?    E=F G=F D=F
   time step     :     0.2500000 fs     power     :   0.2617225E-05
   step length   :     0.0780927 a0     speed     :   0.7555892E-02

........................................................................
.............................. CYCLE    2 ..............................
........................................................................

 iter      E             dE          RMSdq      gap      omega  full diag
   1  -3764.9155010 -0.376492E+04  0.112E-02   10.58       0.0  T
   2  -3764.9155951 -0.941104E-04  0.608E-03   10.58       1.0  T
   3  -3764.9155966 -0.149010E-05  0.263E-03   10.58       1.0  T
   4  -3764.9155977 -0.110671E-05  0.651E-04   10.57       2.6  T
   5  -3764.9155983 -0.588958E-06  0.267E-04   10.57       6.3  T
   6  -3764.9155983 -0.434188E-07  0.121E-04   10.57      13.9  T
     SCC iter.                  ...        7 min,  5.669 sec
     gradient                   ...        4 min, 49.729 sec
 * total energy  : -3715.5099491 Eh     change    :  -0.7013450E-01 Eh
   gradient norm :     0.5871791 Eh/a0  converged?    E=F G=F D=F
   time step     :     0.2500000 fs     power     :   0.3577012E-05
   step length   :     0.1151257 a0     speed     :   0.1113903E-01

........................................................................
.............................. CYCLE    3 ..............................
........................................................................

 iter      E             dE          RMSdq      gap      omega  full diag
   1  -3765.4166256 -0.376542E+04  0.145E-02   10.59       0.0  T
   2  -3765.4167796 -0.153959E-03  0.783E-03   10.59       1.0  T
   3  -3765.4167821 -0.247693E-05  0.335E-03   10.59       1.0  T
   4  -3765.4167839 -0.179746E-05  0.835E-04   10.59       2.0  T
   5  -3765.4167848 -0.968220E-06  0.347E-04   10.59       4.8  T
   6  -3765.4167849 -0.706941E-07  0.153E-04   10.58      11.0  T
     SCC iter.                  ...        7 min, 12.256 sec
     gradient                   ...        4 min, 49.363 sec
 * total energy  : -3715.5930320 Eh     change    :  -0.8308283E-01 Eh
   gradient norm :     0.5288127 Eh/a0  converged?    E=F G=F D=F
   time step     :     0.2500000 fs     power     :   0.4166588E-05
   step length   :     0.1494359 a0     speed     :   0.1445873E-01

........................................................................
.............................. CYCLE    4 ..............................
........................................................................

 iter      E             dE          RMSdq      gap      omega  full diag
   1  -3766.0196824 -0.376602E+04  0.173E-02   10.60       0.0  T
   2  -3766.0198966 -0.214283E-03  0.934E-03   10.60       1.0  T
   3  -3766.0199002 -0.356880E-05  0.395E-03   10.60       1.0  T
   4  -3766.0199027 -0.245585E-05  0.985E-04   10.59       1.7  T
   5  -3766.0199040 -0.133193E-05  0.420E-04   10.59       4.0  T
   6  -3766.0199041 -0.101078E-06  0.180E-04   10.59       9.4  T
   7  -3766.0199041 -0.471450E-07  0.119E-04   10.59      14.1  T
     SCC iter.                  ...        8 min,  5.024 sec
     gradient                   ...        4 min, 50.344 sec
 * total energy  : -3715.6814900 Eh     change    :  -0.8845805E-01 Eh
   gradient norm :     0.4621392 Eh/a0  converged?    E=F G=F D=F
   time step     :     0.2500000 fs     power     :   0.4346593E-05
   step length   :     0.1801964 a0     speed     :   0.1743497E-01

........................................................................
.............................. CYCLE    5 ..............................
........................................................................

 iter      E             dE          RMSdq      gap      omega  full diag
   1  -3766.7092938 -0.376671E+04  0.196E-02   10.60       0.0  T
   2  -3766.7095586 -0.264776E-03  0.105E-02   10.60       1.0  T
   3  -3766.7095632 -0.460031E-05  0.437E-03   10.60       1.0  T
   4  -3766.7095661 -0.288065E-05  0.108E-03   10.60       1.6  T
   5  -3766.7095677 -0.157194E-05  0.471E-04   10.60       3.6  T
   6  -3766.7095678 -0.104879E-06  0.185E-04   10.60       9.1  T
   7  -3766.7095678 -0.468858E-07  0.121E-04   10.60      13.8  T
     SCC iter.                  ...        8 min, 12.244 sec
     gradient                   ...        4 min, 51.066 sec
 * total energy  : -3715.7677537 Eh     change    :  -0.8626363E-01 Eh
   gradient norm :     0.3926578 Eh/a0  converged?    E=F G=F D=F
   time step     :     0.2500000 fs     power     :   0.4132686E-05
   step length   :     0.2066895 a0     speed     :   0.1999832E-01

........................................................................
.............................. CYCLE    6 ..............................
........................................................................

 iter      E             dE          RMSdq      gap      omega  full diag
   1  -3767.5505258 -0.376755E+04  0.236E-02   10.60       0.0  T
   2  -3767.5508890 -0.363156E-03  0.127E-02   10.60       1.0  T
   3  -3767.5508960 -0.701362E-05  0.511E-03   10.60       1.0  T
   4  -3767.5508997 -0.374062E-05  0.125E-03   10.60       1.3  T
   5  -3767.5509017 -0.199624E-05  0.578E-04   10.60       2.9  T
   6  -3767.5509018 -0.143976E-06  0.210E-04   10.59       8.0  T
   7  -3767.5509019 -0.586519E-07  0.140E-04   10.59      12.0  T
     SCC iter.                  ...        8 min, 10.354 sec
     gradient                   ...        4 min, 54.441 sec
 * total energy  : -3715.8527801 Eh     change    :  -0.8502640E-01 Eh
   gradient norm :     0.3215494 Eh/a0  converged?    E=F G=F D=F
   time step     :     0.2750000 fs     power     :   0.3519222E-05
   step length   :     0.2535466 a0     speed     :   0.2230181E-01

........................................................................
.............................. CYCLE    7 ..............................
........................................................................

 iter      E             dE          RMSdq      gap      omega  full diag
   1  -3768.5396355 -0.376854E+04  0.275E-02   10.59       0.0  T
   2  -3768.5400807 -0.445171E-03  0.147E-02   10.59       1.0  T
   3  -3768.5400911 -0.103951E-04  0.565E-03   10.59       1.0  T
   4  -3768.5400953 -0.421376E-05  0.134E-03   10.59       1.3  T
   5  -3768.5400974 -0.202634E-05  0.685E-04   10.59       2.5  T
   6  -3768.5400975 -0.184554E-06  0.223E-04   10.59       7.5  T
   7  -3768.5400976 -0.642531E-07  0.153E-04   10.59      11.0  T
     SCC iter.                  ...        8 min, 13.284 sec
     gradient                   ...        4 min, 54.081 sec
 * total energy  : -3715.9271455 Eh     change    :  -0.7436547E-01 Eh
   gradient norm :     0.2651726 Eh/a0  converged?    E=F G=F D=F
   time step     :     0.3025000 fs     power     :   0.2563941E-05
   step length   :     0.3016797 a0     speed     :   0.2412325E-01

........................................................................
.............................. CYCLE    8 ..............................
........................................................................

 iter      E             dE          RMSdq      gap      omega  full diag
   1  -3769.6421118 -0.376964E+04  0.306E-02   10.59       0.0  T
   2  -3769.6425742 -0.462418E-03  0.163E-02   10.59       1.0  T
   3  -3769.6425890 -0.148078E-04  0.579E-03   10.59       1.0  T
   4  -3769.6425929 -0.388827E-05  0.132E-03   10.59       1.3  T
   5  -3769.6425941 -0.124158E-05  0.756E-04   10.59       2.2  T
   6  -3769.6425943 -0.217479E-06  0.211E-04   10.58       8.0  T
   7  -3769.6425944 -0.558948E-07  0.152E-04   10.58      11.1  T
     SCC iter.                  ...        8 min, 10.548 sec
     gradient                   ...        4 min, 54.526 sec
 * total energy  : -3715.9827438 Eh     change    :  -0.5559824E-01 Eh
   gradient norm :     0.2432993 Eh/a0  converged?    E=F G=F D=F
   time step     :     0.3327500 fs     power     :   0.1474932E-05
   step length   :     0.3456405 a0     speed     :   0.2512590E-01

........................................................................
.............................. CYCLE    9 ..............................
........................................................................

 iter      E             dE          RMSdq      gap      omega  full diag
   1  -3770.7756625 -0.377078E+04  0.324E-02   10.59       0.0  T
   2  -3770.7760429 -0.380396E-03  0.175E-02   10.59       1.0  T
   3  -3770.7760616 -0.186713E-04  0.538E-03   10.59       1.0  T
   4  -3770.7760648 -0.326710E-05  0.129E-03   10.59       1.3  T
   5  -3770.7760653 -0.463282E-06  0.741E-04   10.59       2.3  T
   6  -3770.7760655 -0.204538E-06  0.166E-04   10.59      10.1  T
     SCC iter.                  ...        6 min, 57.482 sec
     gradient                   ...        4 min, 53.577 sec
 * total energy  : -3716.0170889 Eh     change    :  -0.3434509E-01 Eh
   gradient norm :     0.2515374 Eh/a0  converged?    E=F G=F D=F
   time step     :     0.3660250 fs     power     :   0.5549014E-06
   step length   :     0.3778674 a0     speed     :   0.2497145E-01

........................................................................
.............................. CYCLE   10 ..............................
........................................................................

 iter      E             dE          RMSdq      gap      omega  full diag
   1  -3771.8276136 -0.377183E+04  0.333E-02   10.60       0.0  T
   2  -3771.8278586 -0.245004E-03  0.185E-02   10.60       1.0  T
   3  -3771.8278745 -0.159389E-04  0.472E-03   10.60       1.0  T
   4  -3771.8278827 -0.816441E-05  0.145E-03   10.60       1.2  T
   5  -3771.8278837 -0.107139E-05  0.815E-04   10.60       2.1  T
   6  -3771.8278839 -0.133706E-06  0.138E-04   10.60      12.2  T
   7  -3771.8278839 -0.220220E-07  0.104E-04   10.60      16.1  T
     SCC iter.                  ...        8 min,  7.378 sec
     gradient                   ...        4 min, 53.867 sec
 * total energy  : -3716.0339005 Eh     change    :  -0.1681162E-01 Eh
   gradient norm :     0.2606932 Eh/a0  converged?    E=F G=F D=F
   time step     :     0.4026275 fs     power     :  -0.4652825E-07
   step length   :     0.3959008 a0     speed     :   0.2378472E-01

........................................................................
.............................. CYCLE   11 ..............................
........................................................................
 * reset velocities

 iter      E             dE          RMSdq      gap      omega  full diag
   1  -3771.8091469 -0.377181E+04  0.105E-03   10.60       0.0  T
   2  -3771.8091477 -0.838252E-06  0.644E-04   10.60       2.6  T
   3  -3771.8091477 -0.109253E-07  0.270E-04   10.60       6.2  T
     SCC iter.                  ...        3 min, 31.750 sec
     gradient                   ...        4 min, 53.442 sec
 * total energy  : -3716.0364514 Eh     change    :  -0.2550899E-02 Eh
   gradient norm :     0.2544189 Eh/a0  converged?    E=F G=F D=F
   time step     :     0.2013138 fs     power     :   0.1661115E-06
   step length   :     0.0099057 a0     speed     :   0.1190222E-02

........................................................................
.............................. CYCLE   12 ..............................
........................................................................

 iter      E             dE          RMSdq      gap      omega  full diag
   1  -3771.7721478 -0.377177E+04  0.211E-03   10.60       0.0  T
   2  -3771.7721509 -0.314241E-05  0.129E-03   10.60       1.3  T
   3  -3771.7721509 -0.255750E-07  0.521E-04   10.60       3.2  T
   4  -3771.7721510 -0.816995E-07  0.135E-04   10.60      12.5  T
     SCC iter.                  ...        4 min, 38.049 sec
     gradient                   ...        4 min, 53.254 sec
 * total energy  : -3716.0413107 Eh     change    :  -0.4859327E-02 Eh
   gradient norm :     0.2421837 Eh/a0  converged?    E=F G=F D=F
   time step     :     0.2013138 fs     power     :   0.3123681E-06
   step length   :     0.0195728 a0     speed     :   0.2351775E-02

........................................................................
.............................. CYCLE   13 ..............................
........................................................................

 iter      E             dE          RMSdq      gap      omega  full diag
   1  -3771.7178268 -0.377172E+04  0.304E-03   10.60       0.0  T
   2  -3771.7178338 -0.707176E-05  0.186E-03   10.60       1.0  T
   3  -3771.7178339 -0.960699E-07  0.785E-04   10.60       2.1  T
   4  -3771.7178341 -0.184779E-06  0.206E-04   10.61       8.2  T
     SCC iter.                  ...        4 min, 39.565 sec
     gradient                   ...        4 min, 52.574 sec
 * total energy  : -3716.0480213 Eh     change    :  -0.6710569E-02 Eh
   gradient norm :     0.2244672 Eh/a0  converged?    E=F G=F D=F
   time step     :     0.2013138 fs     power     :   0.4252938E-06
   step length   :     0.0287735 a0     speed     :   0.3457274E-02

........................................................................
.............................. CYCLE   14 ..............................
........................................................................

 iter      E             dE          RMSdq      gap      omega  full diag
   1  -3771.6476058 -0.377165E+04  0.392E-03   10.61       0.0  T
   2  -3771.6476177 -0.118244E-04  0.241E-03   10.61       1.0  T
   3  -3771.6476178 -0.166324E-06  0.101E-03   10.61       1.7  T
   4  -3771.6476181 -0.307690E-06  0.267E-04   10.61       6.3  T
   5  -3771.6476182 -0.895006E-07  0.649E-05   10.61      25.9  T
     SCC iter.                  ...        5 min, 48.814 sec
     gradient                   ...        4 min, 50.559 sec
 * total energy  : -3716.0559619 Eh     change    :  -0.7940610E-02 Eh
   gradient norm :     0.2020412 Eh/a0  converged?    E=F G=F D=F
   time step     :     0.2013138 fs     power     :   0.4951524E-06
   step length   :     0.0372947 a0     speed     :   0.4481144E-02

........................................................................
.............................. CYCLE   15 ..............................
........................................................................

 iter      E             dE          RMSdq      gap      omega  full diag
   1  -3771.5634078 -0.377156E+04  0.469E-03   10.62       0.0  T
   2  -3771.5634249 -0.170633E-04  0.288E-03   10.62       1.0  T
   3  -3771.5634251 -0.245142E-06  0.122E-03   10.62       1.4  T
   4  -3771.5634256 -0.429105E-06  0.320E-04   10.62       5.3  T
   5  -3771.5634257 -0.127918E-06  0.773E-05   10.62      21.8  T
     SCC iter.                  ...        5 min, 43.728 sec
     gradient                   ...        4 min, 51.346 sec
 * total energy  : -3716.0644168 Eh     change    :  -0.8454952E-02 Eh
   gradient norm :     0.1759639 Eh/a0  converged?    E=F G=F D=F
   time step     :     0.2013138 fs     power     :   0.5169699E-06
   step length   :     0.0449458 a0     speed     :   0.5400456E-02

........................................................................
.............................. CYCLE   16 ..............................
........................................................................

 iter      E             dE          RMSdq      gap      omega  full diag
   1  -3771.4677136 -0.377147E+04  0.533E-03   10.62       0.0  T
   2  -3771.4677357 -0.221265E-04  0.328E-03   10.62       1.0  T
   3  -3771.4677360 -0.322928E-06  0.138E-03   10.62       1.2  T
   4  -3771.4677366 -0.544889E-06  0.364E-04   10.62       4.6  T
   5  -3771.4677368 -0.164885E-06  0.881E-05   10.62      19.1  T
     SCC iter.                  ...        5 min, 50.769 sec
     gradient                   ...        4 min, 50.496 sec
 * total energy  : -3716.0726591 Eh     change    :  -0.8242233E-02 Eh
   gradient norm :     0.1478245 Eh/a0  converged?    E=F G=F D=F
   time step     :     0.2013138 fs     power     :   0.4914730E-06
   step length   :     0.0515590 a0     speed     :   0.6195074E-02

........................................................................
.............................. CYCLE   17 ..............................
........................................................................

 iter      E             dE          RMSdq      gap      omega  full diag
   1  -3771.3522438 -0.377135E+04  0.644E-03   10.63       0.0  T
   2  -3771.3522763 -0.324829E-04  0.397E-03   10.63       1.0  T
   3  -3771.3522768 -0.478518E-06  0.167E-03   10.63       1.0  T
   4  -3771.3522776 -0.779154E-06  0.441E-04   10.63       3.8  T
   5  -3771.3522778 -0.239702E-06  0.105E-04   10.63      16.0  T
     SCC iter.                  ...        5 min, 47.098 sec
     gradient                   ...        4 min, 49.096 sec
 * total energy  : -3716.0807456 Eh     change    :  -0.8086549E-02 Eh
   gradient norm :     0.1172105 Eh/a0  converged?    E=F G=F D=F
   time step     :     0.2214451 fs     power     :   0.4162044E-06
   step length   :     0.0632936 a0     speed     :   0.6913667E-02

........................................................................
.............................. CYCLE   18 ..............................
........................................................................

 iter      E             dE          RMSdq      gap      omega  full diag
   1  -3771.2191731 -0.377122E+04  0.748E-03   10.64       0.0  T
   2  -3771.2192170 -0.438905E-04  0.463E-03   10.64       1.0  T
   3  -3771.2192177 -0.648012E-06  0.194E-03   10.64       1.0  T
   4  -3771.2192187 -0.102822E-05  0.513E-04   10.64       3.3  T
   5  -3771.2192190 -0.321646E-06  0.121E-04   10.64      13.9  T
   6  -3771.2192190 -0.113532E-07  0.821E-05   10.64      20.5  T
     SCC iter.                  ...        6 min, 59.558 sec
     gradient                   ...        4 min, 49.963 sec
 * total energy  : -3716.0876826 Eh     change    :  -0.6936995E-02 Eh
   gradient norm :     0.0903935 Eh/a0  converged?    E=F G=F D=F
   time step     :     0.2435896 fs     power     :   0.2948991E-06
   step length   :     0.0754358 a0     speed     :   0.7490901E-02

........................................................................
.............................. CYCLE   19 ..............................
........................................................................

 iter      E             dE          RMSdq      gap      omega  full diag
   1  -3771.0769383 -0.377108E+04  0.819E-03   10.65       0.0  T
   2  -3771.0769903 -0.520388E-04  0.510E-03   10.65       1.0  T
   3  -3771.0769911 -0.731347E-06  0.211E-03   10.65       1.0  T
   4  -3771.0769923 -0.121030E-05  0.559E-04   10.66       3.0  T
   5  -3771.0769926 -0.377963E-06  0.125E-04   10.66      13.5  T
   6  -3771.0769927 -0.979435E-08  0.797E-05   10.66      21.1  T
     SCC iter.                  ...        6 min, 58.957 sec
     gradient                   ...        4 min, 50.812 sec
 * total energy  : -3716.0925546 Eh     change    :  -0.4871982E-02 Eh
   gradient norm :     0.0809246 Eh/a0  converged?    E=F G=F D=F
   time step     :     0.2679486 fs     power     :   0.1526319E-06
   step length   :     0.0865667 a0     speed     :   0.7814738E-02

........................................................................
.............................. CYCLE   20 ..............................
........................................................................

 iter      E             dE          RMSdq      gap      omega  full diag
   1  -3770.9438556 -0.377094E+04  0.820E-03   10.67       0.0  T
   2  -3770.9439050 -0.494119E-04  0.515E-03   10.67       1.0  T
   3  -3770.9439056 -0.588057E-06  0.205E-03   10.67       1.0  T
   4  -3770.9439068 -0.124028E-05  0.549E-04   10.67       3.1  T
   5  -3770.9439072 -0.361361E-06  0.124E-04   10.67      13.5  T
   6  -3770.9439072 -0.798263E-08  0.734E-05   10.67      22.9  T
     SCC iter.                  ...        7 min,  2.246 sec
     gradient                   ...        4 min, 50.068 sec
 * total energy  : -3716.0951892 Eh     change    :  -0.2634590E-02 Eh
   gradient norm :     0.0948549 Eh/a0  converged?    E=F G=F D=F
   time step     :     0.2947435 fs     power     :   0.4153473E-07
   step length   :     0.0940297 a0     speed     :   0.7716777E-02
 * RMSD in coord.:     0.0373808 a0     energy gain  -0.7059502E+00 Eh

........................................................................
.............................. CYCLE   21 ..............................
........................................................................

 iter      E             dE          RMSdq      gap      omega  full diag
   1  -3770.8630049 -0.377086E+04  0.582E-03   10.68       0.0  T
   2  -3770.8630262 -0.213410E-04  0.369E-03   10.68       1.0  T
   3  -3770.8630263 -0.123280E-06  0.134E-03   10.68       1.3  T
   4  -3770.8630270 -0.689360E-06  0.363E-04   10.68       4.6  T
   5  -3770.8630272 -0.159579E-06  0.903E-05   10.68      18.6  T
     SCC iter.                  ...        5 min, 50.462 sec
     gradient                   ...        4 min, 51.711 sec
 * total energy  : -3716.0963981 Eh     change    :  -0.1208937E-02 Eh
   gradient norm :     0.1114942 Eh/a0  converged?    E=F G=F D=F
   time step     :     0.2500000 fs     power     :   0.2269521E-07
   step length   :     0.0744077 a0     speed     :   0.7199344E-02

........................................................................
.............................. CYCLE   22 ..............................
........................................................................

 iter      E             dE          RMSdq      gap      omega  full diag
   1  -3770.8169263 -0.377082E+04  0.479E-03   10.68       0.0  T
   2  -3770.8169362 -0.994325E-05  0.304E-03   10.68       1.0  T
   3  -3770.8169361  0.105075E-06  0.866E-04   10.68       1.9  T
   4  -3770.8169367 -0.530105E-06  0.248E-04   10.68       6.8  T
     SCC iter.                  ...        4 min, 34.874 sec
     gradient                   ...        4 min, 51.748 sec
 * total energy  : -3716.0979059 Eh     change    :  -0.1507783E-02 Eh
   gradient norm :     0.1234208 Eh/a0  converged?    E=F G=F D=F
   time step     :     0.2500000 fs     power     :   0.5687574E-07
   step length   :     0.0691109 a0     speed     :   0.6686848E-02

........................................................................
.............................. CYCLE   23 ..............................
........................................................................

 iter      E             dE          RMSdq      gap      omega  full diag
   1  -3770.8049192 -0.377080E+04  0.419E-03   10.69       0.0  T
   2  -3770.8049222 -0.303058E-05  0.261E-03   10.69       1.0  T
   3  -3770.8049221  0.111114E-06  0.395E-04   10.69       4.3  T
   4  -3770.8049225 -0.318505E-06  0.147E-04   10.69      11.4  T
     SCC iter.                  ...        4 min, 40.078 sec
     gradient                   ...        4 min, 54.873 sec
 * total energy  : -3716.1003763 Eh     change    :  -0.2470419E-02 Eh
   gradient norm :     0.1282377 Eh/a0  converged?    E=F G=F D=F
   time step     :     0.2500000 fs     power     :   0.1183648E-06
   step length   :     0.0654972 a0     speed     :   0.6337203E-02

........................................................................
.............................. CYCLE   24 ..............................
........................................................................

 iter      E             dE          RMSdq      gap      omega  full diag
   1  -3770.8245855 -0.377082E+04  0.410E-03   10.70       0.0  T
   2  -3770.8245860 -0.491356E-06  0.246E-03   10.70       1.0  T
   3  -3770.8245861 -0.901878E-07  0.182E-04   10.70       9.2  T
   4  -3770.8245862 -0.463933E-07  0.100E-04   10.70      16.8  T
     SCC iter.                  ...        4 min, 35.869 sec
     gradient                   ...        4 min, 49.804 sec
 * total energy  : -3716.1040077 Eh     change    :  -0.3631331E-02 Eh
   gradient norm :     0.1259199 Eh/a0  converged?    E=F G=F D=F
   time step     :     0.2500000 fs     power     :   0.1831755E-06
   step length   :     0.0641314 a0     speed     :   0.6205060E-02

........................................................................
.............................. CYCLE   25 ..............................
........................................................................

 iter      E             dE          RMSdq      gap      omega  full diag
   1  -3770.8726182 -0.377087E+04  0.443E-03   10.71       0.0  T
   2  -3770.8726195 -0.131997E-05  0.258E-03   10.71       1.0  T
   3  -3770.8726196 -0.205087E-07  0.363E-04   10.71       4.6  T
   4  -3770.8726197 -0.152584E-06  0.115E-04   10.70      14.7  T
     SCC iter.                  ...        4 min, 39.678 sec
     gradient                   ...        4 min, 50.253 sec
 * total energy  : -3716.1086319 Eh     change    :  -0.4624248E-02 Eh
   gradient norm :     0.1174755 Eh/a0  converged?    E=F G=F D=F
   time step     :     0.2500000 fs     power     :   0.2337807E-06
   step length   :     0.0648229 a0     speed     :   0.6271960E-02

........................................................................
.............................. CYCLE   26 ..............................
........................................................................

 iter      E             dE          RMSdq      gap      omega  full diag
   1  -3770.9540044 -0.377095E+04  0.551E-03   10.71       0.0  T
   2  -3770.9540099 -0.551302E-05  0.314E-03   10.71       1.0  T
   3  -3770.9540098  0.115318E-06  0.757E-04   10.71       2.2  T
   4  -3770.9540102 -0.457293E-06  0.170E-04   10.71       9.9  T
     SCC iter.                  ...        4 min, 38.251 sec
     gradient                   ...        4 min, 47.321 sec
 * total energy  : -3716.1144147 Eh     change    :  -0.5782825E-02 Eh
   gradient norm :     0.1030273 Eh/a0  converged?    E=F G=F D=F
   time step     :     0.2750000 fs     power     :   0.2598944E-06
   step length   :     0.0741963 a0     speed     :   0.6526260E-02

........................................................................
.............................. CYCLE   27 ..............................
........................................................................

 iter      E             dE          RMSdq      gap      omega  full diag
   1  -3771.0702859 -0.377107E+04  0.679E-03   10.72       0.0  T
   2  -3771.0702989 -0.130315E-04  0.385E-03   10.71       1.0  T
   3  -3771.0702987  0.168124E-06  0.113E-03   10.71       1.5  T
   4  -3771.0702995 -0.767279E-06  0.245E-04   10.71       6.9  T
   5  -3771.0702996 -0.957261E-07  0.116E-04   10.71      14.5  T
     SCC iter.                  ...        5 min, 42.370 sec
     gradient                   ...        4 min, 50.631 sec
 * total energy  : -3716.1208253 Eh     change    :  -0.6410556E-02 Eh
   gradient norm :     0.0849972 Eh/a0  converged?    E=F G=F D=F
   time step     :     0.3025000 fs     power     :   0.2515128E-06
   step length   :     0.0862963 a0     speed     :   0.6900524E-02

........................................................................
.............................. CYCLE   28 ..............................
........................................................................

 iter      E             dE          RMSdq      gap      omega  full diag
   1  -3771.2191224 -0.377122E+04  0.805E-03   10.72       0.0  T
   2  -3771.2191446 -0.221479E-04  0.454E-03   10.72       1.0  T
   3  -3771.2191444  0.160972E-06  0.141E-03   10.72       1.2  T
   4  -3771.2191454 -0.995334E-06  0.312E-04   10.72       5.4  T
   5  -3771.2191456 -0.157863E-06  0.128E-04   10.72      13.1  T
     SCC iter.                  ...        5 min, 46.951 sec
     gradient                   ...        4 min, 50.106 sec
 * total energy  : -3716.1270707 Eh     change    :  -0.6245438E-02 Eh
   gradient norm :     0.0700234 Eh/a0  converged?    E=F G=F D=F
   time step     :     0.3327500 fs     power     :   0.2094573E-06
   step length   :     0.1004306 a0     speed     :   0.7300676E-02

........................................................................
.............................. CYCLE   29 ..............................
........................................................................

 iter      E             dE          RMSdq      gap      omega  full diag
   1  -3771.3894404 -0.377139E+04  0.888E-03   10.72       0.0  T
   2  -3771.3894677 -0.272862E-04  0.499E-03   10.72       1.0  T
   3  -3771.3894675  0.106645E-06  0.152E-03   10.72       1.1  T
   4  -3771.3894686 -0.101912E-05  0.347E-04   10.72       4.8  T
   5  -3771.3894688 -0.191738E-06  0.136E-04   10.72      12.4  T
   6  -3771.3894688 -0.173859E-07  0.793E-05   10.72      21.2  T
     SCC iter.                  ...        6 min, 49.697 sec
     gradient                   ...        4 min, 53.833 sec
 * total energy  : -3716.1324883 Eh     change    :  -0.5417582E-02 Eh
   gradient norm :     0.0676512 Eh/a0  converged?    E=F G=F D=F
   time step     :     0.3660250 fs     power     :   0.1537818E-06
   step length   :     0.1150638 a0     speed     :   0.7604019E-02

........................................................................
.............................. CYCLE   30 ..............................
........................................................................

 iter      E             dE          RMSdq      gap      omega  full diag
   1  -3771.5578078 -0.377156E+04  0.890E-03   10.72       0.0  T
   2  -3771.5578299 -0.220654E-04  0.498E-03   10.72       1.0  T
   3  -3771.5578299 -0.153004E-07  0.132E-03   10.72       1.3  T
   4  -3771.5578306 -0.687720E-06  0.302E-04   10.72       5.6  T
   5  -3771.5578307 -0.139671E-06  0.125E-04   10.72      13.5  T
     SCC iter.                  ...        5 min, 51.932 sec
     gradient                   ...        4 min, 54.593 sec
 * total energy  : -3716.1371664 Eh     change    :  -0.4678092E-02 Eh
   gradient norm :     0.0759955 Eh/a0  converged?    E=F G=F D=F
   time step     :     0.4026275 fs     power     :   0.1190330E-06
   step length   :     0.1280308 a0     speed     :   0.7691770E-02

........................................................................
.............................. CYCLE   31 ..............................
........................................................................

 iter      E             dE          RMSdq      gap      omega  full diag
   1  -3771.6973355 -0.377170E+04  0.828E-03   10.73       0.0  T
   2  -3771.6973456 -0.100805E-04  0.466E-03   10.73       1.0  T
   3  -3771.6973459 -0.286585E-06  0.848E-04   10.73       2.0  T
   4  -3771.6973461 -0.201319E-06  0.196E-04   10.72       8.6  T
     SCC iter.                  ...        4 min, 43.608 sec
     gradient                   ...        4 min, 52.292 sec
 * total energy  : -3716.1420250 Eh     change    :  -0.4858568E-02 Eh
   gradient norm :     0.0820356 Eh/a0  converged?    E=F G=F D=F
   time step     :     0.4428903 fs     power     :   0.1209454E-06
   step length   :     0.1399276 a0     speed     :   0.7642270E-02

........................................................................
.............................. CYCLE   32 ..............................
........................................................................

 iter      E             dE          RMSdq      gap      omega  full diag
   1  -3771.7855115 -0.377179E+04  0.764E-03   10.73       0.0  T
   2  -3771.7855141 -0.267521E-05  0.448E-03   10.73       1.0  T
   3  -3771.7855140  0.130227E-06  0.620E-04   10.73       2.7  T
   4  -3771.7855147 -0.676678E-06  0.186E-04   10.73       9.0  T
     SCC iter.                  ...        4 min, 42.288 sec
     gradient                   ...        4 min, 52.754 sec
 * total energy  : -3716.1479522 Eh     change    :  -0.5927253E-02 Eh
   gradient norm :     0.0776460 Eh/a0  converged?    E=F G=F D=F
   time step     :     0.4871793 fs     power     :   0.1401059E-06
   step length   :     0.1540262 a0     speed     :   0.7647523E-02

........................................................................
.............................. CYCLE   33 ..............................
........................................................................

 iter      E             dE          RMSdq      gap      omega  full diag
   1  -3771.8077565 -0.377181E+04  0.764E-03   10.74       0.0  T
   2  -3771.8077669 -0.103516E-04  0.479E-03   10.74       1.0  T
   3  -3771.8077655  0.134719E-05  0.114E-03   10.74       1.5  T
   4  -3771.8077680 -0.252182E-05  0.222E-04   10.74       7.6  T
   5  -3771.8077681 -0.336963E-07  0.124E-04   10.74      13.5  T
   6  -3771.8077681 -0.781893E-08  0.526E-05   10.75      32.0  T
     SCC iter.                  ...        7 min,  2.348 sec
     gradient                   ...        4 min, 53.336 sec
 * total energy  : -3716.1547875 Eh     change    :  -0.6835243E-02 Eh
   gradient norm :     0.0646645 Eh/a0  converged?    E=F G=F D=F
   time step     :     0.5358972 fs     power     :   0.1408700E-06
   step length   :     0.1726304 a0     speed     :   0.7792035E-02

........................................................................
.............................. CYCLE   34 ..............................
........................................................................

 iter      E             dE          RMSdq      gap      omega  full diag
   1  -3771.7666894 -0.377177E+04  0.823E-03   10.76       0.0  T
   2  -3771.7667191 -0.297323E-04  0.536E-03   10.76       1.0  T
   3  -3771.7667186  0.563803E-06  0.167E-03   10.76       1.0  T
   4  -3771.7667208 -0.225565E-05  0.392E-04   10.76       4.3  T
   5  -3771.7667210 -0.211078E-06  0.151E-04   10.76      11.1  T
   6  -3771.7667210 -0.154259E-07  0.783E-05   10.76      21.5  T
     SCC iter.                  ...        7 min,  3.878 sec
     gradient                   ...        4 min, 52.339 sec
 * total energy  : -3716.1613171 Eh     change    :  -0.6529620E-02 Eh
   gradient norm :     0.0577775 Eh/a0  converged?    E=F G=F D=F
   time step     :     0.5894869 fs     power     :   0.1098797E-06
   step length   :     0.1948874 a0     speed     :   0.7996956E-02

........................................................................
.............................. CYCLE   35 ..............................
........................................................................

 iter      E             dE          RMSdq      gap      omega  full diag
   1  -3771.7002453 -0.377170E+04  0.873E-03   10.78       0.0  T
   2  -3771.7002795 -0.342524E-04  0.561E-03   10.78       1.0  T
   3  -3771.7002794  0.901468E-07  0.160E-03   10.78       1.1  T
   4  -3771.7002810 -0.150537E-05  0.488E-04   10.78       3.4  T
   5  -3771.7002812 -0.293333E-06  0.168E-04   10.78      10.0  T
   6  -3771.7002813 -0.144337E-07  0.722E-05   10.78      23.3  T
     SCC iter.                  ...        6 min, 55.176 sec
     gradient                   ...        4 min, 53.174 sec
 * total energy  : -3716.1670325 Eh     change    :  -0.5715396E-02 Eh
   gradient norm :     0.0641461 Eh/a0  converged?    E=F G=F D=F
   time step     :     0.6484356 fs     power     :   0.8393515E-07
   step length   :     0.2165474 a0     speed     :   0.8077952E-02

........................................................................
.............................. CYCLE   36 ..............................
........................................................................

 iter      E             dE          RMSdq      gap      omega  full diag
   1  -3771.6690836 -0.377167E+04  0.979E-03   10.80       0.0  T
   2  -3771.6690987 -0.151722E-04  0.589E-03   10.81       1.0  T
   3  -3771.6690995 -0.755398E-06  0.884E-04   10.81       1.9  T
   4  -3771.6690999 -0.423404E-06  0.316E-04   10.81       5.3  T
     SCC iter.                  ...        4 min, 38.118 sec
     gradient                   ...        4 min, 50.484 sec
 * total energy  : -3716.1731337 Eh     change    :  -0.6101249E-02 Eh
   gradient norm :     0.0638310 Eh/a0  converged?    E=F G=F D=F
   time step     :     0.7132792 fs     power     :   0.8840454E-07
   step length   :     0.2373426 a0     speed     :   0.8048802E-02

........................................................................
.............................. CYCLE   37 ..............................
........................................................................

 iter      E             dE          RMSdq      gap      omega  full diag
   1  -3771.7184534 -0.377172E+04  0.120E-02   10.83       0.0  T
   2  -3771.7184614 -0.805476E-05  0.694E-03   10.83       1.0  T
   3  -3771.7184612  0.170188E-06  0.122E-03   10.83       1.4  T
   4  -3771.7184633 -0.202300E-05  0.347E-04   10.83       4.9  T
   5  -3771.7184633 -0.167206E-07  0.125E-04   10.83      13.5  T
   6  -3771.7184633 -0.659566E-08  0.355E-05   10.83      47.3  T
     SCC iter.                  ...        6 min, 55.300 sec
     gradient                   ...        4 min, 50.519 sec
 * total energy  : -3716.1798664 Eh     change    :  -0.6732661E-02 Eh
   gradient norm :     0.0515487 Eh/a0  converged?    E=F G=F D=F
   time step     :     0.7846071 fs     power     :   0.8217979E-07
   step length   :     0.2628836 a0     speed     :   0.8104503E-02

........................................................................
.............................. CYCLE   38 ..............................
........................................................................

 iter      E             dE          RMSdq      gap      omega  full diag
   1  -3771.8472897 -0.377185E+04  0.132E-02   10.84       0.0  T
   2  -3771.8473129 -0.232768E-04  0.767E-03   10.84       1.0  T
   3  -3771.8473118  0.108721E-05  0.169E-03   10.84       1.0  T
   4  -3771.8473151 -0.329843E-05  0.362E-04   10.84       4.6  T
   5  -3771.8473153 -0.110429E-06  0.180E-04   10.84       9.3  T
   6  -3771.8473153 -0.109371E-07  0.611E-05   10.84      27.5  T
     SCC iter.                  ...        6 min, 53.701 sec
     gradient                   ...        4 min, 52.679 sec
 * total energy  : -3716.1854156 Eh     change    :  -0.5549233E-02 Eh
   gradient norm :     0.0534416 Eh/a0  converged?    E=F G=F D=F
   time step     :     0.8630678 fs     power     :   0.4684970E-07
   step length   :     0.2913771 a0     speed     :   0.8166304E-02

........................................................................
.............................. CYCLE   39 ..............................
........................................................................

 iter      E             dE          RMSdq      gap      omega  full diag
   1  -3771.9796093 -0.377198E+04  0.118E-02   10.86       0.0  T
   2  -3771.9796232 -0.139347E-04  0.684E-03   10.86       1.0  T
   3  -3771.9796236 -0.372318E-06  0.100E-03   10.86       1.7  T
   4  -3771.9796243 -0.759487E-06  0.273E-04   10.86       6.2  T
   5  -3771.9796244 -0.458517E-07  0.143E-04   10.86      11.8  T
     SCC iter.                  ...        5 min, 43.427 sec
     gradient                   ...        4 min, 51.956 sec
 * total energy  : -3716.1904771 Eh     change    :  -0.5061504E-02 Eh
   gradient norm :     0.0584745 Eh/a0  converged?    E=F G=F D=F
   time step     :     0.9493746 fs     power     :   0.4397551E-07
   step length   :     0.3150377 a0     speed     :   0.8026755E-02

........................................................................
.............................. CYCLE   40 ..............................
........................................................................

 iter      E             dE          RMSdq      gap      omega  full diag
   1  -3772.0476594 -0.377205E+04  0.115E-02   10.88       0.0  T
   2  -3772.0476750 -0.155791E-04  0.685E-03   10.88       1.0  T
   3  -3772.0476731  0.193672E-05  0.158E-03   10.88       1.1  T
   4  -3772.0476776 -0.451551E-05  0.332E-04   10.88       5.1  T
   5  -3772.0476776 -0.367372E-07  0.178E-04   10.88       9.5  T
   6  -3772.0476777 -0.168648E-07  0.693E-05   10.88      24.3  T
     SCC iter.                  ...        6 min, 59.322 sec
     gradient                   ...        4 min, 52.437 sec
 * total energy  : -3716.1965180 Eh     change    :  -0.6040854E-02 Eh
   gradient norm :     0.0490711 Eh/a0  converged?    E=F G=F D=F
   time step     :     1.0443120 fs     power     :   0.4659576E-07
   step length   :     0.3434092 a0     speed     :   0.7954204E-02

........................................................................
.............................. CYCLE   41 ..............................
........................................................................

 iter      E             dE          RMSdq      gap      omega  full diag
   1  -3772.0701206 -0.377207E+04  0.125E-02   10.91       0.0  T
   2  -3772.0701513 -0.307111E-04  0.772E-03   10.91       1.0  T
   3  -3772.0701494  0.190542E-05  0.175E-03   10.91       1.0  T
   4  -3772.0701543 -0.485318E-05  0.425E-04   10.92       4.0  T
   5  -3772.0701545 -0.172553E-06  0.225E-04   10.92       7.5  T
   6  -3772.0701545 -0.339664E-07  0.102E-04   10.92      16.5  T
     SCC iter.                  ...        7 min,  1.154 sec
     gradient                   ...        4 min, 52.480 sec
 * total energy  : -3716.2016380 Eh     change    :  -0.5120041E-02 Eh
   gradient norm :     0.0500515 Eh/a0  converged?    E=F G=F D=F
   time step     :     1.1487432 fs     power     :   0.2281043E-07
   step length   :     0.3766923 a0     speed     :   0.7931929E-02

........................................................................
.............................. CYCLE   42 ..............................
........................................................................

 iter      E             dE          RMSdq      gap      omega  full diag
   1  -3772.1409752 -0.377214E+04  0.140E-02   10.95       0.0  T
   2  -3772.1409835 -0.831307E-05  0.813E-03   10.95       1.0  T
   3  -3772.1409838 -0.257918E-06  0.990E-04   10.95       1.7  T
   4  -3772.1409849 -0.117938E-05  0.318E-04   10.95       5.3  T
   5  -3772.1409850 -0.273562E-07  0.156E-04   10.95      10.8  T
     SCC iter.                  ...        5 min, 44.834 sec
     gradient                   ...        4 min, 52.253 sec
 * total energy  : -3716.2058590 Eh     change    :  -0.4220995E-02 Eh
   gradient norm :     0.0470706 Eh/a0  converged?    E=F G=F D=F
   time step     :     1.2500000 fs     power     :   0.1120214E-07
   step length   :     0.4010427 a0     speed     :   0.7760607E-02
 * RMSD in coord.:     0.0595804 a0     energy gain  -0.1106698E+00 Eh

........................................................................
.............................. CYCLE   43 ..............................
........................................................................

 iter      E             dE          RMSdq      gap      omega  full diag
   1  -3772.1553338 -0.377216E+04  0.237E-03   10.96       0.0  T
   2  -3772.1553341 -0.273740E-06  0.137E-03   10.96       1.2  T
   3  -3772.1553341  0.128116E-07  0.203E-04   10.96       8.3  T
   4  -3772.1553342 -0.574714E-07  0.524E-05   10.96      32.1  T
     SCC iter.                  ...        4 min, 38.539 sec
     gradient                   ...        4 min, 48.094 sec
 * total energy  : -3716.2064768 Eh     change    :  -0.6177449E-03 Eh
   gradient norm :     0.0472466 Eh/a0  converged?    E=F G=F D=F
   time step     :     0.2500000 fs     power     :   0.2855946E-07
   step length   :     0.0735816 a0     speed     :   0.7119411E-02

........................................................................
.............................. CYCLE   44 ..............................
........................................................................

 iter      E             dE          RMSdq      gap      omega  full diag
   1  -3772.1687678 -0.377217E+04  0.229E-03   10.96       0.0  T
   2  -3772.1687683 -0.540675E-06  0.134E-03   10.96       1.3  T
   3  -3772.1687683  0.238292E-07  0.240E-04   10.96       7.0  T
   4  -3772.1687684 -0.699165E-07  0.493E-05   10.96      34.1  T
     SCC iter.                  ...        4 min, 35.590 sec
     gradient                   ...        4 min, 50.600 sec
 * total energy  : -3716.2073576 Eh     change    :  -0.8808881E-03 Eh
   gradient norm :     0.0436977 Eh/a0  converged?    E=F G=F D=F
   time step     :     0.2500000 fs     power     :   0.4241429E-07
   step length   :     0.0685250 a0     speed     :   0.6630165E-02

........................................................................
.............................. CYCLE   45 ..............................
........................................................................

 iter      E             dE          RMSdq      gap      omega  full diag
   1  -3772.1796472 -0.377218E+04  0.244E-03   10.96       0.0  T
   2  -3772.1796480 -0.856505E-06  0.147E-03   10.96       1.1  T
   3  -3772.1796480  0.100763E-07  0.266E-04   10.96       6.3  T
   4  -3772.1796481 -0.706368E-07  0.610E-05   10.96      27.6  T
     SCC iter.                  ...        4 min, 36.576 sec
     gradient                   ...        4 min, 52.298 sec
 * total energy  : -3716.2083770 Eh     change    :  -0.1019321E-02 Eh
   gradient norm :     0.0375368 Eh/a0  converged?    E=F G=F D=F
   time step     :     0.2500000 fs     power     :   0.4818721E-07
   step length   :     0.0648225 a0     speed     :   0.6271924E-02

........................................................................
.............................. CYCLE   46 ..............................
........................................................................

 iter      E             dE          RMSdq      gap      omega  full diag
   1  -3772.1862753 -0.377219E+04  0.268E-03   10.97       0.0  T
   2  -3772.1862764 -0.104771E-05  0.163E-03   10.97       1.0  T
   3  -3772.1862764 -0.101795E-07  0.274E-04   10.97       6.1  T
   4  -3772.1862765 -0.713826E-07  0.722E-05   10.97      23.3  T
     SCC iter.                  ...        4 min, 37.518 sec
     gradient                   ...        4 min, 56.111 sec
 * total energy  : -3716.2093731 Eh     change    :  -0.9961019E-03 Eh
   gradient norm :     0.0305083 Eh/a0  converged?    E=F G=F D=F
   time step     :     0.2500000 fs     power     :   0.4506891E-07
   step length   :     0.0621041 a0     speed     :   0.6008904E-02

........................................................................
.............................. CYCLE   47 ..............................
........................................................................

 iter      E             dE          RMSdq      gap      omega  full diag
   1  -3772.1869788 -0.377219E+04  0.287E-03   10.97       0.0  T
   2  -3772.1869798 -0.102511E-05  0.174E-03   10.97       1.0  T
   3  -3772.1869798 -0.266691E-07  0.266E-04   10.97       6.3  T
   4  -3772.1869799 -0.761006E-07  0.808E-05   10.97      20.8  T
     SCC iter.                  ...        4 min, 47.918 sec
     gradient                   ...        4 min, 49.823 sec
 * total energy  : -3716.2102122 Eh     change    :  -0.8391053E-03 Eh
   gradient norm :     0.0251632 Eh/a0  converged?    E=F G=F D=F
   time step     :     0.2500000 fs     power     :   0.3555474E-07
   step length   :     0.0599063 a0     speed     :   0.5796254E-02

........................................................................
.............................. CYCLE   48 ..............................
........................................................................

 iter      E             dE          RMSdq      gap      omega  full diag
   1  -3772.1799085 -0.377218E+04  0.318E-03   10.97       0.0  T
   2  -3772.1799095 -0.993339E-06  0.192E-03   10.97       1.0  T
   3  -3772.1799095 -0.272712E-07  0.288E-04   10.97       5.8  T
   4  -3772.1799096 -0.115259E-06  0.956E-05   10.97      17.6  T
     SCC iter.                  ...        4 min, 36.288 sec
     gradient                   ...        4 min, 53.131 sec
 * total energy  : -3716.2108892 Eh     change    :  -0.6770544E-03 Eh
   gradient norm :     0.0240248 Eh/a0  converged?    E=F G=F D=F
   time step     :     0.2750000 fs     power     :   0.2316943E-07
   step length   :     0.0634732 a0     speed     :   0.5583064E-02

........................................................................
.............................. CYCLE   49 ..............................
........................................................................

 iter      E             dE          RMSdq      gap      omega  full diag
   1  -3772.1645527 -0.377216E+04  0.325E-03   10.97       0.0  T
   2  -3772.1645536 -0.859020E-06  0.192E-03   10.97       1.0  T
   3  -3772.1645536  0.205773E-08  0.321E-04   10.97       5.2  T
   4  -3772.1645537 -0.169859E-06  0.102E-04   10.97      16.6  T
     SCC iter.                  ...        4 min, 31.749 sec
     gradient                   ...        4 min, 58.113 sec
 * total energy  : -3716.2113999 Eh     change    :  -0.5106517E-03 Eh
   gradient norm :     0.0271493 Eh/a0  converged?    E=F G=F D=F
   time step     :     0.3025000 fs     power     :   0.1445634E-07
   step length   :     0.0662833 a0     speed     :   0.5300216E-02

........................................................................
.............................. CYCLE   50 ..............................
........................................................................

 iter      E             dE          RMSdq      gap      omega  full diag
   1  -3772.1432555 -0.377214E+04  0.313E-03   10.98       0.0  T
   2  -3772.1432564 -0.828151E-06  0.181E-03   10.98       1.0  T
   3  -3772.1432563  0.218861E-07  0.337E-04   10.98       5.0  T
   4  -3772.1432565 -0.180660E-06  0.946E-05   10.98      17.8  T
     SCC iter.                  ...        4 min, 44.783 sec
     gradient                   ...        4 min, 58.931 sec
 * total energy  : -3716.2118583 Eh     change    :  -0.4584106E-03 Eh
   gradient norm :     0.0308335 Eh/a0  converged?    E=F G=F D=F
   time step     :     0.3327500 fs     power     :   0.1272327E-07
   step length   :     0.0682965 a0     speed     :   0.4964730E-02

........................................................................
.............................. CYCLE   51 ..............................
........................................................................

 iter      E             dE          RMSdq      gap      omega  full diag
   1  -3772.1195358 -0.377212E+04  0.300E-03   10.98       0.0  T
   2  -3772.1195367 -0.945859E-06  0.172E-03   10.98       1.0  T
   3  -3772.1195367  0.178238E-07  0.332E-04   10.98       5.1  T
   4  -3772.1195369 -0.140154E-06  0.806E-05   10.98      20.9  T
     SCC iter.                  ...        4 min, 37.807 sec
     gradient                   ...        4 min, 55.030 sec
 * total energy  : -3716.2124133 Eh     change    :  -0.5549640E-03 Eh
   gradient norm :     0.0323744 Eh/a0  converged?    E=F G=F D=F
   time step     :     0.3660250 fs     power     :   0.1625861E-07
   step length   :     0.0703980 a0     speed     :   0.4652266E-02

........................................................................
.............................. CYCLE   52 ..............................
........................................................................

 iter      E             dE          RMSdq      gap      omega  full diag
   1  -3772.0974104 -0.377210E+04  0.307E-03   10.99       0.0  T
   2  -3772.0974115 -0.110631E-05  0.176E-03   10.99       1.0  T
   3  -3772.0974115  0.695354E-08  0.314E-04   10.99       5.4  T
   4  -3772.0974116 -0.915561E-07  0.668E-05   10.99      25.2  T
     SCC iter.                  ...        4 min, 47.389 sec
     gradient                   ...        4 min, 52.599 sec
 * total energy  : -3716.2131542 Eh     change    :  -0.7409421E-03 Eh
   gradient norm :     0.0309400 Eh/a0  converged?    E=F G=F D=F
   time step     :     0.4026275 fs     power     :   0.2094929E-07
   step length   :     0.0734378 a0     speed     :   0.4411957E-02

........................................................................
.............................. CYCLE   53 ..............................
........................................................................

 iter      E             dE          RMSdq      gap      omega  full diag
   1  -3772.0813921 -0.377208E+04  0.338E-03   10.99       0.0  T
   2  -3772.0813933 -0.113656E-05  0.197E-03   10.99       1.0  T
   3  -3772.0813933 -0.608861E-08  0.286E-04   10.99       5.9  T
   4  -3772.0813934 -0.669952E-07  0.592E-05   10.99      28.4  T
     SCC iter.                  ...        4 min, 39.514 sec
     gradient                   ...        4 min, 52.566 sec
 * total energy  : -3716.2140583 Eh     change    :  -0.9041411E-03 Eh
   gradient norm :     0.0272112 Eh/a0  converged?    E=F G=F D=F
   time step     :     0.4428903 fs     power     :   0.2282207E-07
   step length   :     0.0779055 a0     speed     :   0.4254875E-02

........................................................................
.............................. CYCLE   54 ..............................
........................................................................

 iter      E             dE          RMSdq      gap      omega  full diag
   1  -3772.0761735 -0.377208E+04  0.376E-03   11.00       0.0  T
   2  -3772.0761744 -0.948596E-06  0.222E-03   11.00       1.0  T
   3  -3772.0761744 -0.480941E-08  0.272E-04   11.00       6.2  T
   4  -3772.0761745 -0.965319E-07  0.752E-05   11.00      22.4  T
     SCC iter.                  ...        4 min, 45.060 sec
     gradient                   ...        4 min, 52.047 sec
 * total energy  : -3716.2149998 Eh     change    :  -0.9414716E-03 Eh
   gradient norm :     0.0233718 Eh/a0  converged?    E=F G=F D=F
   time step     :     0.4871793 fs     power     :   0.2013903E-07
   step length   :     0.0837464 a0     speed     :   0.4158074E-02

........................................................................
.............................. CYCLE   55 ..............................
........................................................................

 iter      E             dE          RMSdq      gap      omega  full diag
   1  -3772.0849029 -0.377208E+04  0.396E-03   11.00       0.0  T
   2  -3772.0849037 -0.815308E-06  0.235E-03   11.00       1.0  T
   3  -3772.0849037  0.327314E-07  0.319E-04   11.00       5.3  T
   4  -3772.0849039 -0.190016E-06  0.100E-04   11.00      16.8  T
     SCC iter.                  ...        4 min, 40.499 sec
     gradient                   ...        4 min, 52.764 sec
 * total energy  : -3716.2158395 Eh     change    :  -0.8396756E-03 Eh
   gradient norm :     0.0221088 Eh/a0  converged?    E=F G=F D=F
   time step     :     0.5358972 fs     power     :   0.1470533E-07
   step length   :     0.0902137 a0     speed     :   0.4071984E-02

........................................................................
.............................. CYCLE   56 ..............................
........................................................................

 iter      E             dE          RMSdq      gap      omega  full diag
   1  -3772.1055561 -0.377211E+04  0.382E-03   11.01       0.0  T
   2  -3772.1055573 -0.119351E-05  0.225E-03   11.01       1.0  T
   3  -3772.1055573  0.270352E-07  0.375E-04   11.01       4.5  T
   4  -3772.1055575 -0.204092E-06  0.112E-04   11.01      15.0  T
     SCC iter.                  ...        4 min, 42.351 sec
     gradient                   ...        4 min, 52.911 sec
 * total energy  : -3716.2165533 Eh     change    :  -0.7137915E-03 Eh
   gradient norm :     0.0237000 Eh/a0  converged?    E=F G=F D=F
   time step     :     0.5894869 fs     power     :   0.1064030E-07
   step length   :     0.0962254 a0     speed     :   0.3948488E-02

........................................................................
.............................. CYCLE   57 ..............................
........................................................................

 iter      E             dE          RMSdq      gap      omega  full diag
   1  -3772.1302079 -0.377213E+04  0.350E-03   11.01       0.0  T
   2  -3772.1302096 -0.166446E-05  0.205E-03   11.01       1.0  T
   3  -3772.1302096 -0.223731E-07  0.392E-04   11.01       4.3  T
   4  -3772.1302097 -0.120554E-06  0.105E-04   11.01      16.0  T
     SCC iter.                  ...        4 min, 42.711 sec
     gradient                   ...        4 min, 53.848 sec
 * total energy  : -3716.2172767 Eh     change    :  -0.7234538E-03 Eh
   gradient norm :     0.0258817 Eh/a0  converged?    E=F G=F D=F
   time step     :     0.6484356 fs     power     :   0.1071832E-07
   step length   :     0.1018323 a0     speed     :   0.3798690E-02

........................................................................
.............................. CYCLE   58 ..............................
........................................................................

 iter      E             dE          RMSdq      gap      omega  full diag
   1  -3772.1487828 -0.377215E+04  0.335E-03   11.01       0.0  T
   2  -3772.1487841 -0.134439E-05  0.196E-03   11.01       1.0  T
   3  -3772.1487842 -0.463169E-07  0.331E-04   11.01       5.1  T
   4  -3772.1487842 -0.695663E-07  0.885E-05   11.01      19.0  T
     SCC iter.                  ...        4 min, 45.746 sec
     gradient                   ...        4 min, 52.723 sec
 * total energy  : -3716.2182117 Eh     change    :  -0.9349827E-03 Eh
   gradient norm :     0.0258914 Eh/a0  converged?    E=F G=F D=F
   time step     :     0.7132792 fs     power     :   0.1421391E-07
   step length   :     0.1086091 a0     speed     :   0.3683169E-02

........................................................................
.............................. CYCLE   59 ..............................
........................................................................

 iter      E             dE          RMSdq      gap      omega  full diag
   1  -3772.1524853 -0.377215E+04  0.369E-03   11.02       0.0  T
   2  -3772.1524861 -0.740148E-06  0.216E-03   11.02       1.0  T
   3  -3772.1524861 -0.601813E-07  0.285E-04   11.02       5.9  T
   4  -3772.1524862 -0.855766E-07  0.977E-05   11.02      17.2  T
     SCC iter.                  ...        4 min, 41.885 sec
     gradient                   ...        4 min, 52.696 sec
 * total energy  : -3716.2194169 Eh     change    :  -0.1205232E-02 Eh
   gradient norm :     0.0223103 Eh/a0  converged?    E=F G=F D=F
   time step     :     0.7846071 fs     power     :   0.1659490E-07
   step length   :     0.1183413 a0     speed     :   0.3648374E-02

........................................................................
.............................. CYCLE   60 ..............................
........................................................................

 iter      E             dE          RMSdq      gap      omega  full diag
   1  -3772.1368782 -0.377214E+04  0.437E-03   11.02       0.0  T
   2  -3772.1368797 -0.151958E-05  0.254E-03   11.02       1.0  T
   3  -3772.1368798 -0.889058E-07  0.413E-04   11.02       4.1  T
   4  -3772.1368799 -0.131637E-06  0.119E-04   11.02      14.2  T
     SCC iter.                  ...        4 min, 36.894 sec
     gradient                   ...        4 min, 51.173 sec
 * total energy  : -3716.2206573 Eh     change    :  -0.1240369E-02 Eh
   gradient norm :     0.0198787 Eh/a0  converged?    E=F G=F D=F
   time step     :     0.8630678 fs     power     :   0.1370877E-07
   step length   :     0.1311552 a0     speed     :   0.3675833E-02

........................................................................
.............................. CYCLE   61 ..............................
........................................................................

 iter      E             dE          RMSdq      gap      omega  full diag
   1  -3772.1079782 -0.377211E+04  0.455E-03   11.03       0.0  T
   2  -3772.1079807 -0.244329E-05  0.261E-03   11.03       1.0  T
   3  -3772.1079808 -0.104231E-06  0.502E-04   11.03       3.3  T
   4  -3772.1079809 -0.132520E-06  0.122E-04   11.03      13.8  T
     SCC iter.                  ...        4 min, 45.304 sec
     gradient                   ...        4 min, 50.925 sec
 * total energy  : -3716.2218082 Eh     change    :  -0.1150868E-02 Eh
   gradient norm :     0.0228364 Eh/a0  converged?    E=F G=F D=F
   time step     :     0.9493746 fs     power     :   0.1147667E-07
   step length   :     0.1443642 a0     speed     :   0.3678215E-02

........................................................................
.............................. CYCLE   62 ..............................
........................................................................

 iter      E             dE          RMSdq      gap      omega  full diag
   1  -3772.0837388 -0.377208E+04  0.421E-03   11.04       0.0  T
   2  -3772.0837405 -0.168784E-05  0.241E-03   11.04       1.0  T
   3  -3772.0837406 -0.937512E-07  0.439E-04   11.04       3.8  T
   4  -3772.0837407 -0.127839E-06  0.120E-04   11.04      14.1  T
     SCC iter.                  ...        4 min, 39.012 sec
     gradient                   ...        4 min, 51.174 sec
 * total energy  : -3716.2232030 Eh     change    :  -0.1394850E-02 Eh
   gradient norm :     0.0213909 Eh/a0  converged?    E=F G=F D=F
   time step     :     1.0443120 fs     power     :   0.1418424E-07
   step length   :     0.1583963 a0     speed     :   0.3668850E-02

........................................................................
.............................. CYCLE   63 ..............................
........................................................................

[...]
  3287   6 C     3288   6 C                                       1.5283876
  3287   6 C     3289   6 C                                       1.5354209
  3289   6 C     3290   6 C                                       1.5324784
  3290   6 C     3291   6 C                                       1.5287548
  3290   6 C     3292   6 C                                       1.5360282
  3292   6 C     3293   6 C                                       1.5343369
  3293   6 C     3294   6 C                                       1.5282319
  3293   6 C     3295   6 C                                       1.5359696
  3295   6 C     3296   6 C                                       1.5320169
  3296   6 C     3297   6 C                                       1.5283805
  3296   6 C     3298   6 C                                       1.5379869
  3298   6 C     3299   6 C                                       1.5348443
  3299   6 C     3300   6 C                                       1.5243641
  3299   6 C     3301   6 C                                       1.5356845
  3301   6 C     3302   6 C                                       1.5369334
  3302   6 C     3303   6 C                                       1.5272434
  3302   6 C     3304   6 C                                       1.5321290
  3304   6 C     3305   6 C                                       1.5359894
  3305   6 C     3306   6 C                                       1.5276221
  3305   6 C     3307   6 C                                       1.5342810
  3307   6 C     3308   6 C                                       1.5362961
  3308   6 C     3309   6 C                                       1.5286881
  3308   6 C     3310   6 C                                       1.5321046
  3310   6 C     3311   6 C                                       1.5373944
  3311   6 C     3312   6 C                                       1.5282895
  3311   6 C     3313   6 C                                       1.5345223
  3313   6 C     3314   6 C                                       1.5361346
  3314   6 C     3315   6 C                                       1.5282629
  3314   6 C     3316   6 C                                       1.5316871
  3316   6 C     3317   6 C                                       1.5367337
  3317   6 C     3318   6 C                                       1.5287199
  3319   6 C     3320   6 C                                       1.5331520
  3320   6 C     3321   6 C                                       1.5278841
  3320   6 C     3322   6 C                                       1.5360598
  3322   6 C     3323   6 C                                       1.5337880
  3323   6 C     3324   6 C                                       1.5285752
  3323   6 C     3325   6 C                                       1.5362559
  3325   6 C     3326   6 C                                       1.5317743
  3326   6 C     3327   6 C                                       1.5273579
  3326   6 C     3328   6 C                                       1.5361881
  3328   6 C     3329   6 C                                       1.5333734
  3329   6 C     3330   6 C                                       1.5271121
  3329   6 C     3331   6 C                                       1.5364781
  3331   6 C     3332   6 C                                       1.5338090
  3332   6 C     3333   6 C                                       1.5286893
  3334   6 C     3335   6 C                                       1.5321705
  3335   6 C     3336   6 C                                       1.5291321
  3335   6 C     3337   6 C                                       1.5359160
  3337   6 C     3338   6 C                                       1.5359894
  3338   6 C     3339   6 C                                       1.5236557
  3338   6 C     3340   6 C                                       1.5339654
  3340   6 C     3341   6 C                                       1.5340119
  3341   6 C     3342   6 C                                       1.5269702
  3341   6 C     3343   6 C                                       1.5329544
  3343   6 C     3344   6 C                                       1.5374157
  3344   6 C     3345   6 C                                       1.5263976
  3344   6 C     3346   6 C                                       1.5347515
  3346   6 C     3347   6 C                                       1.5353015
  3347   6 C     3348   6 C                                       1.5296578
  3347   6 C     3349   6 C                                       1.5328835
  3349   6 C     3350   6 C                                       1.5363048
  3350   6 C     3351   6 C                                       1.5271388
  3350   6 C     3352   6 C                                       1.5330236
  3352   6 C     3353   6 C                                       1.5292247
  3353   6 C     3354   6 C                                       1.5227888
  3265   6 C     3355   1 H                                       1.0876751
  3265   6 C     3356   1 H                                       1.0886294
  3265   6 C     3357   1 H                                       1.0872306
  3354   6 C     3358   1 H                                       1.0874818
  3354   6 C     3359   1 H                                       1.0882258
  3354   6 C     3360   1 H                                       1.0871843
  3352   6 C     3361   1 H                                       1.0931758
  3352   6 C     3362   1 H                                       1.0937302
  3349   6 C     3363   1 H                                       1.0907520
  3349   6 C     3364   1 H                                       1.0926285
  3347   6 C     3365   1 H                                       1.0932134
  3348   6 C     3366   1 H                                       1.0889443
  3348   6 C     3367   1 H                                       1.0884791
  3348   6 C     3368   1 H                                       1.0865197
  3346   6 C     3369   1 H                                       1.0931142
  3346   6 C     3370   1 H                                       1.0930496
  3343   6 C     3371   1 H                                       1.0911907
  3343   6 C     3372   1 H                                       1.0934320
  3350   6 C     3373   1 H                                       1.0945553
  3351   6 C     3374   1 H                                       1.0866686
  3351   6 C     3375   1 H                                       1.0870509
  3351   6 C     3376   1 H                                       1.0866622
  3344   6 C     3377   1 H                                       1.0941213
  3345   6 C     3378   1 H                                       1.0876025
  3345   6 C     3379   1 H                                       1.0885163
  3345   6 C     3380   1 H                                       1.0857807
  3341   6 C     3381   1 H                                       1.0927325
  3342   6 C     3382   1 H                                       1.0887906
  3342   6 C     3383   1 H                                       1.0862461
  3342   6 C     3384   1 H                                       1.0864225
  3340   6 C     3385   1 H                                       1.0912564
  3340   6 C     3386   1 H                                       1.0932856
  3338   6 C     3387   1 H                                       1.0942154
  3339   6 C     3388   1 H                                       1.0861565
  3339   6 C     3389   1 H                                       1.0870150
  3339   6 C     3390   1 H                                       1.0859355
  3337   6 C     3391   1 H                                       1.0938532
  3337   6 C     3392   1 H                                       1.0941623
  3335   6 C     3393   1 H                                       1.0950874
  3336   6 C     3394   1 H                                       1.0887626
  3336   6 C     3395   1 H                                       1.0871631
  3336   6 C     3396   1 H                                       1.0885212
  3334   6 C     3397   1 H                                       1.0900106
  3334   6 C     3398   1 H                                       1.0917654
  3332   6 C     3399   1 H                                       1.0947712
  3333   6 C     3400   1 H                                       1.0883759
  3333   6 C     3401   1 H                                       1.0886173
  3333   6 C     3402   1 H                                       1.0877513
  3331   6 C     3403   1 H                                       1.0933141
  3331   6 C     3404   1 H                                       1.0927916
  3329   6 C     3405   1 H                                       1.0929121
  3330   6 C     3406   1 H                                       1.0871034
  3330   6 C     3407   1 H                                       1.0880779
  3330   6 C     3408   1 H                                       1.0888615
  3328   6 C     3409   1 H                                       1.0940455
  3328   6 C     3410   1 H                                       1.0931343
  3326   6 C     3411   1 H                                       1.0939757
  3327   6 C     3412   1 H                                       1.0884241
  3327   6 C     3413   1 H                                       1.0852851
  3327   6 C     3414   1 H                                       1.0878568
  3325   6 C     3415   1 H                                       1.0919432
  3325   6 C     3416   1 H                                       1.0934897
  3323   6 C     3417   1 H                                       1.0941818
  3324   6 C     3418   1 H                                       1.0880887
  3324   6 C     3419   1 H                                       1.0859179
  3324   6 C     3420   1 H                                       1.0879664
  3322   6 C     3421   1 H                                       1.0925673
  3322   6 C     3422   1 H                                       1.0944036
  3320   6 C     3423   1 H                                       1.0951960
  3321   6 C     3424   1 H                                       1.0890502
  3321   6 C     3425   1 H                                       1.0885924
  3321   6 C     3426   1 H                                       1.0862355
  3319   6 C     3427   1 H                                       1.0894261
  3319   6 C     3428   1 H                                       1.0928837
  3317   6 C     3429   1 H                                       1.0948066
  3318   6 C     3430   1 H                                       1.0874230
  3318   6 C     3431   1 H                                       1.0891905
  3318   6 C     3432   1 H                                       1.0866735
  3316   6 C     3433   1 H                                       1.0894252
  3316   6 C     3434   1 H                                       1.0930569
  3314   6 C     3435   1 H                                       1.0944724
  3315   6 C     3436   1 H                                       1.0886357
  3315   6 C     3437   1 H                                       1.0865365
  3315   6 C     3438   1 H                                       1.0867443
  3313   6 C     3439   1 H                                       1.0917227
  3313   6 C     3440   1 H                                       1.0945584
  3311   6 C     3441   1 H                                       1.0943907
  3312   6 C     3442   1 H                                       1.0879461
  3312   6 C     3443   1 H                                       1.0862414
  3312   6 C     3444   1 H                                       1.0888286
  3310   6 C     3445   1 H                                       1.0910318
  3310   6 C     3446   1 H                                       1.0925241
  3308   6 C     3447   1 H                                       1.0919244
  3309   6 C     3448   1 H                                       1.0887362
  3309   6 C     3449   1 H                                       1.0881079
  3309   6 C     3450   1 H                                       1.0872763
  3307   6 C     3451   1 H                                       1.0925066
  3307   6 C     3452   1 H                                       1.0931638
  3305   6 C     3453   1 H                                       1.0942391
  3306   6 C     3454   1 H                                       1.0879110
  3306   6 C     3455   1 H                                       1.0851783
  3306   6 C     3456   1 H                                       1.0884570
  3304   6 C     3457   1 H                                       1.0916606
  3304   6 C     3458   1 H                                       1.0942907
  3302   6 C     3459   1 H                                       1.0933737
  3303   6 C     3460   1 H                                       1.0862979
  3303   6 C     3461   1 H                                       1.0877321
  3303   6 C     3462   1 H                                       1.0876520
  3301   6 C     3463   1 H                                       1.0937309
  3301   6 C     3464   1 H                                       1.0935437
  3299   6 C     3465   1 H                                       1.0927959
  3300   6 C     3466   1 H                                       1.0865935
  3300   6 C     3467   1 H                                       1.0875581
  3300   6 C     3468   1 H                                       1.0860338
  3298   6 C     3469   1 H                                       1.0943940
  3298   6 C     3470   1 H                                       1.0931082
  3296   6 C     3471   1 H                                       1.0941594
  3297   6 C     3472   1 H                                       1.0866097
  3297   6 C     3473   1 H                                       1.0873373
  3297   6 C     3474   1 H                                       1.0885028
  3295   6 C     3475   1 H                                       1.0919384
  3295   6 C     3476   1 H                                       1.0942332
  3293   6 C     3477   1 H                                       1.0941234
  3294   6 C     3478   1 H                                       1.0882305
  3294   6 C     3479   1 H                                       1.0867995
  3294   6 C     3480   1 H                                       1.0882144
  3292   6 C     3481   1 H                                       1.0919545
  3292   6 C     3482   1 H                                       1.0927576
  3290   6 C     3483   1 H                                       1.0927897
  3291   6 C     3484   1 H                                       1.0883687
  3291   6 C     3485   1 H                                       1.0869985
  3291   6 C     3486   1 H                                       1.0872081
  3289   6 C     3487   1 H                                       1.0903648
  3289   6 C     3488   1 H                                       1.0928712
  3287   6 C     3489   1 H                                       1.0934179
  3288   6 C     3490   1 H                                       1.0878997
  3288   6 C     3491   1 H                                       1.0882341
  3288   6 C     3492   1 H                                       1.0885591
  3286   6 C     3493   1 H                                       1.0898392
  3286   6 C     3494   1 H                                       1.0925491
  3284   6 C     3495   1 H                                       1.0942658
  3285   6 C     3496   1 H                                       1.0886554
  3285   6 C     3497   1 H                                       1.0881174
  3285   6 C     3498   1 H                                       1.0882851
  3283   6 C     3499   1 H                                       1.0916555
  3283   6 C     3500   1 H                                       1.0941698
  3281   6 C     3501   1 H                                       1.0922207
  3282   6 C     3502   1 H                                       1.0887223
  3282   6 C     3503   1 H                                       1.0887032
  3282   6 C     3504   1 H                                       1.0869118
  3280   6 C     3505   1 H                                       1.0938329
  3280   6 C     3506   1 H                                       1.0931072
  3278   6 C     3507   1 H                                       1.0950774
  3279   6 C     3508   1 H                                       1.0878912
  3279   6 C     3509   1 H                                       1.0876740
  3279   6 C     3510   1 H                                       1.0863779
  3277   6 C     3511   1 H                                       1.0928897
  3277   6 C     3512   1 H                                       1.0920389
  3275   6 C     3513   1 H                                       1.0944919
  3276   6 C     3514   1 H                                       1.0865653
  3276   6 C     3515   1 H                                       1.0870152
  3276   6 C     3516   1 H                                       1.0873104
  3274   6 C     3517   1 H                                       1.0932752
  3274   6 C     3518   1 H                                       1.0940551
  3272   6 C     3519   1 H                                       1.0922177
  3273   6 C     3520   1 H                                       1.0871564
  3273   6 C     3521   1 H                                       1.0884393
  3273   6 C     3522   1 H                                       1.0886879
  3271   6 C     3523   1 H                                       1.0919629
  3271   6 C     3524   1 H                                       1.0938760
  3269   6 C     3525   1 H                                       1.0942436
  3270   6 C     3526   1 H                                       1.0874168
  3270   6 C     3527   1 H                                       1.0882352
  3270   6 C     3528   1 H                                       1.0885792
  3268   6 C     3529   1 H                                       1.0920148
  3268   6 C     3530   1 H                                       1.0916182
  3266   6 C     3531   1 H                                       1.0953889
  3267   6 C     3532   1 H                                       1.0884522
  3267   6 C     3533   1 H                                       1.0877247
  3267   6 C     3534   1 H                                       1.0877047
  3353   6 C     3535   1 H                                       1.0936206
  3353   6 C     3536   1 H                                       1.0910877

 * 2 distinct bonds (by element types)

   Z      Z             #   av. dist./Å        max./Å        min./Å
   1 H    6 C        2366     1.0903112     1.0978409     1.0838658
   6 C    6 C        1119     1.5324057     1.5400712     1.5227888


optimized geometry written to: xtbopt.xyz


           -------------------------------------------------
          | TOTAL ENERGY            -3716.285566850572 Eh   |
          | GRADIENT NORM               0.000823994903 Eh/α |
          | HOMO-LUMO GAP              11.160706752541 eV   |
           -------------------------------------------------

------------------------------------------------------------------------
 * finished run on 2024/06/24 at 09:08:28.227     
------------------------------------------------------------------------
 total:
 * wall-time:     3 d, 18 h, 23 min, 32.858 sec
 *  cpu-time:    19 d,  9 h,  8 min, 55.488 sec
 * ratio c/w:     5.146 speedup
 SCF:
 * wall-time:     0 d,  0 h,  8 min, 51.164 sec
 *  cpu-time:     0 d,  0 h, 45 min,  8.728 sec
 * ratio c/w:     5.100 speedup
 ANC optimizer:
 * wall-time:     3 d, 18 h, 13 min, 13.990 sec
 *  cpu-time:    19 d,  8 h, 22 min,  2.012 sec
 * ratio c/w:     5.147 speedup

