3536
 energy: -3716.285566850572 gnorm: 0.000823994903 xtb: 6.6.1 (8d0f1dd)
C           71.64337239672801       70.68120458994773       59.52473936243766
C           70.38346471088759       70.58490307962985       58.66737140062506
C           69.46781610591020       71.77457727818057       58.95654882477277
C           69.61673728757270       69.28131129632875       58.91822126647187
C           70.36074093681188       67.98441740626305       58.58005811983408
C           70.72180922040351       67.93069866364962       57.09532553612436
C           69.49930940745780       66.76002538972887       58.92385692570576
C           69.27065968645853       66.47069233945338       60.41680099380809
C           70.57806930348514       66.07837595941986       61.09875406520540
C           68.19669230572563       65.37613242176435       60.51297911585860
C           67.68967514240389       64.94289638972069       61.90198156396757
C           67.35968850645085       66.14683967820235       62.78267714186194
C           68.62296889548034       63.94864863433088       62.62124471337474
C           67.95338865382720       62.62505674714242       63.02831006116411
C           66.82607440545266       62.84945276097322       64.03135392963910
C           69.02747153212951       61.69541257651893       63.61110336948884
C           68.60804484167974       60.24435277102452       63.89286495834090
C           69.72059215226354       59.56549666966036       64.69224296982516
C           68.31490643390272       59.50264505860708       62.58311082501874
C           68.00511234844375       58.00071372415684       62.69024890804938
C           67.78296574429405       57.44606755437436       61.28244472094573
C           66.78495614142105       57.76179275096923       63.58507125892515
C           66.33459272145724       56.30522713370987       63.77263869788823
C           65.07012841293403       56.30096436669361       64.63034520105599
C           67.44568822195532       55.46609149296216       64.41498232081221
C           67.10213414098550       54.00428678449020       64.74783401862939
C           68.34331900911359       53.34596711866072       65.35176273173046
C           66.61070642337816       53.26845364291361       63.49588085370568
C           66.42950656012138       51.74520683376339       63.58867319149950
C           65.87488614924814       51.26627073211773       62.24706949727614
C           65.50125908090084       51.33926404281345       64.73874898688294
C           65.34449365495180       49.82569778174229       64.94344213689375
C           64.17018149714352       49.55894960423274       65.88343142781375
C           66.61602701824508       49.16481372868955       65.50193777810044
C           66.83403446008229       47.73357447216442       64.98179824293094
C           67.69016202824035       46.93632949217469       65.96446933727361
C           67.49945206321114       47.78767406211394       63.60101518183235
C           67.42790755934676       46.51411914480677       62.74571912409959
C           68.41773528242358       46.66295430540042       61.58959659089195
C           66.00662872398576       46.28371716017113       62.21625371079457
C           65.80422305648612       44.94928190309431       61.47120087551759
C           65.16523456073804       45.18771141680717       60.10239225632228
C           64.93688637369667       43.96157795681597       62.26153065693681
C           65.57995665579192       43.38767180715717       63.52857509163507
C           66.73072221081551       42.44276721031799       63.18441838519008
C           64.52457860193823       42.63647848566470       64.35743467240525
C           63.71047225063938       43.53369078569616       65.29667742672854
C           64.54396708245200       43.90378742358103       66.52476776769319
C           62.42245944207173       42.83960320111124       65.76042770743088
C           61.31295232990490       42.64700323016839       64.71416390237249
C           60.92601987452784       43.96324372262308       64.04593499860110
C           60.10545054458814       42.01535372341349       65.42476586049033
C           58.98291632464985       41.47517274892804       64.52680040997676
C           57.74931565949468       41.21526786890971       65.39102778206343
C           59.42497368871066       40.19342410494915       63.80885604350812
C           58.49829270164490       39.70566559784347       62.68065193623103
C           58.44979859227225       38.17590764298009       62.68370290166415
C           58.95431551036214       40.17122802555581       61.29037693784874
C           58.91133388705401       41.68043708603127       61.03124138648450
C           57.48111274151844       42.20995342549175       61.12851840457501
C           59.45709750408149       42.02430688290722       59.63688037480772
C           60.90224582566011       41.60877626720919       59.34189330757325
C           61.87166315034847       42.19316219240287       60.37009577973588
C           61.33401614680593       42.08418286122766       57.94631990599533
C           60.50890367440828       41.58256442328962       56.75471581955336
C           60.41533455414065       40.05663781595960       56.73805684479980
C           61.12425225359296       42.05251281605056       55.42531926027174
C           61.31049203983103       43.56624062874759       55.27818853958743
C           59.96664186170761       44.29170510739286       55.32780392081758
C           62.03058817288934       43.93154840649557       53.97221974919557
C           63.44096811290773       43.35731698923665       53.77891115522625
C           64.29295551735211       43.49521000063557       55.04288695764969
C           64.17175831539399       44.09185910432257       52.64349205345268
C           63.51688458325268       44.09312634223442       51.25876030375758
C           63.33287274143203       42.67340547482502       50.72437858371630
C           64.37099002704716       44.89291575594381       50.25875227104419
C           64.63463560791054       46.36027044971406       50.61867218859828
C           63.32621155872314       47.12863887662962       50.79353192962774
C           65.47677176767692       47.06616080661308       49.54581827981811
C           66.88387120967158       46.51384351623477       49.28765265334994
C           67.67593484649231       46.35207622909574       50.58552970032998
C           67.66884049680797       47.45631667296021       48.36064413550959
C           67.08849056772000       47.68605256447255       46.95985640450596
C           67.25279839088870       46.43957039931808       46.09227072112573
C           67.78414042699944       48.88167257446050       46.29001241642979
C           67.30099135713311       50.24819364459819       46.79454512319678
C           65.98590990050191       50.63220166453256       46.11842661849716
C           68.34283802515769       51.34730595610079       46.55026124422848
C           69.57324897994135       51.24760756825010       47.44996653060474
C           70.47895520492409       52.46453319546875       47.30156141794420
H           72.12170370475317       71.64877873951941       59.38667505723923
H           71.39406728549871       70.57044372453898       60.57844941523199
H           72.36153760198391       69.91049845535177       59.25692403104795
H           69.94666723953414       53.37297373878191       47.57626442492567
H           71.35300767132819       52.37231573958783       47.94259086879206
H           70.81754576255254       52.56584651538537       46.27251673273708
H           68.65435271350796       51.32374719696773       45.50286239429354
H           67.86876860204910       52.31683699431375       46.72705509903675
H           68.85901842546134       48.78357014745193       46.45218851308756
H           67.61578375094081       48.83642474803943       45.21102716329266
H           66.02223276912247       47.91084064233242       47.03987045651805
H           66.79477111085258       46.58734854956464       45.11637175643823
H           68.30792148952852       46.21595299384352       45.94432486624167
H           66.78446099491636       45.57591486767967       46.55801822168963
H           67.75688097270233       48.41889312953165       48.86889886371072
H           68.68270475463690       47.06194111936064       48.24355165738258
H           64.91824023320329       47.03846321959772       48.60817705438681
H           65.57874856592893       48.11593838392164       49.83612767578832
H           67.12283654663875       50.18634557896796       47.87354596956381
H           65.58402421986645       51.54644432352993       46.54972052257962
H           66.14082947825864       50.79825551560764       45.05378081434716
H           65.24597983564681       49.84700708056242       46.23976698379234
H           66.80431177699356       45.53205200839313       48.80948777312587
H           67.70260564036177       47.29378790003106       51.12966827585814
H           67.23700588367477       45.59337182881212       51.22726248589809
H           68.70050584435930       46.05441850885835       50.36861383103598
H           65.18262258795939       46.40621082078879       51.56149117222807
H           63.52910331256660       48.18334251938209       50.96763402844714
H           62.70929023124213       47.04205969766055       49.90219468556012
H           62.76322565014639       46.74911465085701       51.64045149869009
H           65.32874947631220       44.37831705753707       50.14861668017613
H           63.87175081811334       44.86334501026503       49.28614535908570
H           62.53057735054234       44.55723483942920       51.32759705202523
H           64.28644829394177       42.14854660607691       50.69381273425839
H           62.64924878097796       42.10490613452909       51.34938094299879
H           62.92492058685514       42.69635736131259       49.71586303492039
H           64.29142952174864       45.12658115989807       52.96613941622602
H           65.17161417154237       43.65747573724242       52.54265510502535
H           63.36812398951027       42.29372848022613       53.52910758248207
H           63.91836436772100       42.86986158471905       55.84806281758908
H           65.31877343690388       43.19252014080792       54.83884920769639
H           64.30340586767302       44.52784384728341       55.38360409399326
H           61.40827845668762       43.61762592014124       53.13196116820575
H           62.10660746584215       45.02206601016500       53.93619730196947
H           61.92363717043433       43.93259352862063       56.10298857924127
H           59.47931025431575       44.15051618473291       56.28846107761135
H           60.11018160149680       45.35885735843362       55.18189692099473
H           59.30247198308028       43.92387108175971       54.54810874644573
H           62.09171226739571       41.55872391745540       55.31262399580886
H           60.48748148756057       41.70231391488544       54.60685632735362
H           59.49474614204711       41.98576617903296       56.82830150030520
H           59.86752983926057       39.68282961370234       57.59926659188773
H           59.89978447773188       39.71662449348404       55.84177533127340
H           61.40977470404952       39.61351690040137       56.74574380203600
H           61.30777271353822       43.17536057601211       57.95441718232362
H           62.37378394101996       41.78037660731929       57.79075587382439
H           60.98322183858423       40.51851278826915       59.37800792121332
H           61.68879676415143       41.78644676986035       61.36080097858455
H           62.89890858496721       41.95919202434576       60.09618399796940
H           61.77128647954007       43.27547716602572       60.41916871321994
H           58.80034488744677       41.56032387915360       58.89880217486559
H           59.38399721501941       43.10789867424087       59.50329293851957
H           59.52792797340052       42.18685567322697       61.77695245274175
H           57.08661182021643       42.11524633114268       62.13568689682084
H           57.44170263308889       43.26110968470488       60.85188104147413
H           56.83333065248269       41.65623132043207       60.45407967441511
H           59.97432200783813       39.80960907663280       61.14203449398432
H           58.32438377281226       39.68082071259699       60.54204062681055
H           57.48277345618380       40.06716597375539       62.85947943002540
H           59.44211910125392       37.76246469489970       62.51090671060089
H           58.08866471415099       37.80357032840428       63.64040348067176
H           57.78836227466731       37.80635083833867       61.90196236748761
H           60.42524725404379       40.33509971504768       63.39550997694134
H           59.50673944408415       39.40806643583463       64.56555242779810
H           58.71859218585604       42.23320968103787       63.78838666373886
H           56.93642533721433       40.79560398524500       64.80380565109952
H           57.98688836414038       40.51379713848483       66.18885281396727
H           57.40022211072947       42.14130790028950       65.84292353332262
H           60.45952595825226       41.19301465278757       66.05327538491640
H           59.68001524835436       42.76938753047002       66.09256547115707
H           61.67331007516403       41.95937499123000       63.94245336300432
H           60.67997607727096       44.71304940250818       64.79361000205091
H           61.73739528141241       44.34029661646376       63.42974614758791
H           60.06217243948038       43.82695011475366       63.40092136361334
H           62.69141726465732       41.85877277666774       66.16364893993001
H           62.00063414093886       43.41759451622720       66.58719794765811
H           63.45075239516952       44.45955636893446       64.77772481428894
H           64.00432620465466       44.60113489159636       67.16101412134451
H           64.77353188271155       43.01480124014451       67.10988640667209
H           65.48157043955953       44.37089989609756       66.23438066838769
H           63.85462843165061       42.11931257814359       63.66816225770243
H           65.01600874699444       41.87124711002969       64.96357802802079
H           65.98060640430428       44.21190432551989       64.12538113160764
H           66.36740402980112       41.59984805885293       62.59921417110031
H           67.50205863789029       42.95006814198871       62.61042073868474
H           67.19031752380013       42.05626019130113       64.09210967304010
H           64.00354275571377       44.46142640392719       62.53085717155595
H           64.67641742139278       43.12530390303463       61.60713801439250
H           66.77763474828205       44.48233529761089       61.30034905781179
H           65.08594331977025       44.25609835139440       59.54585757699426
H           64.16460266376727       45.59897583449608       60.21668561943839
H           65.76246479934738       45.88219986089866       59.51552093888314
H           65.30384244401738       46.33494536856211       63.04918831845033
H           65.76652525144527       47.11168547563229       61.54510866198193
H           67.72788278657724       45.65129799558131       63.34979144891297
H           69.43477018519054       46.75309722966620       61.96634380581157
H           68.38422595403534       45.80672340864014       60.92102842543951
H           68.18697672550799       47.55433091806331       61.01032432226724
H           67.05205424196522       48.59839717020990       63.02400474015927
H           68.55120880644644       48.04596044025320       63.75218929241052
H           65.85952790026558       47.24089220811643       64.90406937831460
H           67.88755400910696       45.93526873250364       65.58722932849648
H           68.64558333244292       47.43269427371850       66.12576217111847
H           67.18690567005841       46.84213292284587       66.92497341240565
H           67.49793778964249       49.75587811282086       65.24821381257891
H           66.54989806483245       49.14708676499223       66.59262990600526
H           65.10425815487663       49.36563776027062       63.98191706192712
H           64.31502051996719       50.07104769730656       66.83323221118734
H           63.23814665575011       49.90862175687528       65.44628750982758
H           64.07430915986308       48.49435660520135       66.07970516585095
H           65.86376685547648       51.76935053375362       65.67447805241821
H           64.51326485948012       51.76431491980150       64.54248315690629
H           67.41047434940641       51.28289468959186       63.73822563990630
H           65.83483084992332       50.18230878544597       62.19246101870654
H           64.86872676699522       51.65121330307453       62.09894721256768
H           66.49924670574588       51.62015095746550       61.43128305137282
H           65.65033716486680       53.69483874502353       63.20013276962702
H           67.32065196020757       53.46758355687276       62.68781783377094
H           66.31232893592257       53.99490929533192       65.50531217156274
H           68.12413102229223       52.34817749867513       65.72276474184160
H           69.13576513169276       53.27087125202048       64.61026283336456
H           68.71632625862989       53.93759370105162       66.18638283353181
H           68.30997006095438       55.45721326633973       63.74650764204397
H           67.75584096203869       55.96134771369435       65.34053764462871
H           66.08889051918379       55.88414561306612       62.79405812400820
H           64.63130154998406       55.30876428918355       64.67955863288819
H           65.29894094599649       56.62448406186023       65.64369719772780
H           64.32900047162279       56.98144905428594       64.21595967133150
H           66.99043776844746       58.17233211899463       64.57417366768408
H           65.94869700358525       58.32850946212638       63.16778561602700
H           68.87511334466726       57.49576882164544       63.12011526503037
H           68.62052305986103       57.70085235930755       60.63480572386204
H           67.69034145593403       56.36302199846048       61.29672056109882
H           66.87821831331631       57.86586952850665       60.84635793747652
H           67.46562576538389       59.98603482010657       62.09560076393640
H           69.18174234340803       59.62523060400201       61.92894728610035
H           67.70625892042028       60.25570798555613       64.50866856051495
H           69.93737521559152       60.13303428554622       65.59589457071716
H           69.43766767094856       58.55932982007801       64.98982530842397
H           70.63311428469902       59.50663948634921       64.10238064365146
H           69.88248337410333       61.67230432065537       62.92907155896733
H           69.37945265962796       62.13961437354002       64.54713839410284
H           67.53478889992120       62.16857392261301       62.12560260441771
H           67.21344161660367       63.29633266530847       64.94465441697690
H           66.06533871523827       63.50738623290039       63.62186734004621
H           66.34613688902469       61.90808625560464       64.28575488920301
H           69.45952352352566       63.70176849047149       61.96628001517334
H           69.04073286581610       64.41263056306386       63.51810533902682
H           66.74589564749290       64.41897187103307       61.70717998674456
H           66.68244692640002       66.82269939939326       62.26351280254506
H           66.88183352025408       65.82237320154039       63.70429533364531
H           68.25853044551648       66.69760612005940       63.04943875486075
H           67.32878501217233       65.73912259912285       59.95684408022354
H           68.56362623383821       64.49021409219178       59.98999913385515
H           68.88797029464530       67.37470803430566       60.89888930844164
H           70.42680022266818       65.89854836456652       62.15867263403249
H           70.98939219937905       65.17670996075448       60.64868746884881
H           71.31634845520399       66.87098939961317       61.00033948289128
H           68.52913454498260       66.88673720872831       58.43722458063333
H           69.96798772657910       65.87591108499589       58.48426317692474
H           71.28788284186251       67.93938147272901       59.15764893212625
H           71.41455820224260       68.72406712703166       56.82774686472215
H           71.19653424688109       66.98200387426151       56.85187014344200
H           69.82757216667403       68.03213819008103       56.48402139392404
H           69.33254087222161       69.26134531047676       59.97277737814563
H           68.69709120912384       69.30717360877139       58.32866241067857
H           70.67313692892581       70.63549591432769       57.61304395589850
H           68.57184563554098       71.72821821677064       58.34179078946617
H           69.16698923062762       71.77773900117289       60.00265150662564
H           69.97813377467617       72.71210361370083       58.74654395568393
H           69.25218583191624       51.16399448753119       48.49033338123629
H           70.14409903085033       50.34833192496686       47.21124070356147
C           60.12144010352363       61.97969313242311       54.00140513550986
C           60.99945744285101       61.96413131835329       52.75368606941448
C           60.17116221371869       61.53231737027470       51.54629907634071
C           62.19382725537379       61.01484713225814       52.89956558155823
C           63.13709941923950       61.29527231276160       54.07294752763585
C           63.75313481328002       62.68811581181377       53.96562876320853
C           64.26161905953042       60.25001218001031       54.11992130800817
C           63.83319937956005       58.84981821101059       54.57369556350035
C           63.52482394114935       58.83588249318867       56.06974074420972
C           64.91675143515783       57.80022277910690       54.28687290832461
C           65.26492818152687       57.56386508165365       52.81288343466481
C           64.02912279040588       57.18583863767434       51.99631706354293
C           66.30901805286960       56.44669897825317       52.67366694304064
C           67.69159714430793       56.72138377250485       53.27855181028108
C           68.39426468035701       57.87941426974433       52.57287061642400
C           68.54072631297092       55.44332988863305       53.18628767299731
C           69.74768579751496       55.39205674286424       54.13801549457519
C           70.93497666540406       54.72335578399704       53.44120486599833
C           69.44055023365770       54.62171171543474       55.43014337407365
C           68.31433859566484       55.18891761674603       56.30402221820815
C           68.71930046676442       56.52417445342450       56.92057117758444
C           67.96678202953090       54.17202917364541       57.39778717014491
C           66.78596110964673       54.54488958975026       58.30596822663678
C           66.66711736678826       53.49394617913849       59.40728777900856
C           65.48773201190295       54.66928530187202       57.49636145321629
C           64.19007174846416       54.78345746242744       58.31069212653337
C           63.00290822379485       54.83445589356978       57.35130928720569
C           64.22179744492018       56.00921414785743       59.22788657141562
C           63.10060996998595       56.10272323335452       60.27367083629104
C           63.19987289732853       57.47412147291339       60.93971429905363
C           63.18824651732503       54.97115293080491       61.31380138572651
C           61.83189526314109       54.39392623598082       61.74938297566413
C           61.13111018906570       55.30998429513967       62.74785769413532
C           62.02277645915918       52.98507506706920       62.32852096313003
C           60.74196332266681       52.15858761104288       62.52010772153969
C           61.11035354337432       50.82367166254549       63.16873420000816
C           59.98452272032855       51.93526267780179       61.19536419999520
C           58.61923239744086       52.63856430329234       61.14744686456143
C           57.57456188980893       51.78016803602728       61.85959440920707
C           58.15593013702816       52.92797408540499       59.71225019407587
C           58.94253760479032       54.02831240635838       58.99088174552145
C           58.72609384397443       55.39229165473645       59.64815593556077
C           58.55559681543072       54.15834909576853       57.51095901460872
C           58.62000171957512       52.89312948892023       56.64758337687574
C           59.97533735100904       52.20162437725811       56.76075817266177
C           58.35640777800414       53.25643401512879       55.17920256196370
C           56.89528357371414       53.61125131250293       54.87089282205616
C           56.10449579490254       52.35068351495139       54.53670587925811
C           56.80447953643615       54.63702616034730       53.73441779532789
C           57.09087662535604       56.06744335115440       54.20855063311447
C           55.86403282846967       56.65299641111656       54.90487792449051
C           57.50593888826214       56.97233964463952       53.04154000878587
C           58.97251182213760       56.83121544171340       52.61664309065771
C           59.89507977797192       57.49093942234611       53.64143470279132
C           59.21012589941846       57.47904129302432       51.24356386672642
C           58.69526240357026       56.68324000672675       50.03977608167677
C           59.50246967260546       55.39839479908178       49.85900272479114
C           58.78071146787130       57.49567741471870       48.73724638953722
C           58.05177031454372       58.84390183718987       48.72026928221406
C           56.58299642260587       58.69182810452740       49.11172358407289
C           58.11012633200588       59.49049394009965       47.32879069127419
C           59.49960415593119       59.76080523858050       46.73986492829091
C           60.41015057711138       60.47680406777229       47.73596650569220
C           59.39270852723465       60.63093441607300       45.47579617506019
C           58.49245014035193       60.09123367180471       44.36065229893996
C           58.98395484395341       58.74248848271910       43.84300991711966
C           58.31847603513663       61.11361951361138       43.22482845804461
C           59.58429087518395       61.49528786586804       42.43864119998742
C           60.12251668865361       62.85274866356320       42.89507362227071
C           59.30742847304547       61.55465557355162       40.92858836168621
C           59.08599908861523       60.19845663784388       40.24066417383678
C           60.40020639948104       59.42926281975404       40.13294047357549
C           58.47030794740473       60.44678034426332       38.85706154043379
C           58.12597138265770       59.21426963883865       38.00797812853926
C           57.79779210750495       59.68692121771456       36.58834747337385
C           56.93605913371467       58.40726702437997       38.55937935168049
C           57.26350194277109       57.21452559532224       39.46724103669786
C           58.12865047892761       56.17762693409773       38.74786661641544
C           55.97903033883407       56.50426176196163       39.92836952134936
C           54.93961624320945       57.34542243641767       40.67845200032636
C           55.52987309262654       57.94460586516414       41.95216795952751
C           53.71572409665183       56.48467752023003       41.02935912799725
C           52.75164687847732       56.22329644174311       39.86179923326497
C           51.91577876860893       57.46639939487796       39.56872543758181
C           51.85816695482339       55.02761403773185       40.21421058861888
C           50.81917989707823       54.61897264159421       39.16351674920547
C           50.01946714796795       53.42641906979559       39.68887594185661
C           51.41731298024722       54.32662469028073       37.78015886127665
C           52.46988054650942       53.22125706514956       37.74453411545387
C           53.00002586580398       53.00441041204557       36.33197845858082
H           59.80694187074688       60.96825670508814       54.25226091117035
H           60.64959883813437       62.39940354122221       54.85364144879165
H           59.23201021110616       62.58178472072736       53.82872651424207
H           53.74583513636945       52.21225044878113       36.31765740775206
H           52.19232503412811       52.72491242483785       35.65805043129878
H           53.46022556089669       53.91416994264564       35.95090397566673
H           50.60003183245959       54.04923120824382       37.10697503558303
H           51.85938281276118       55.24307017823153       37.38195088263220
H           52.49475371633408       54.16689172964407       40.42791373410871
H           51.32076821893952       55.26743927365569       41.13609249169242
H           53.33736308611735       55.97705480866812       38.97135829447463
H           52.54970592070075       58.33801090442761       39.43000569729099
H           51.32524419491823       57.34126812297406       38.66540500046883
H           51.23797789147906       57.66503219026291       40.39640821698066
H           54.06849290939602       55.52979657959956       41.42621802341503
H           53.15306750088934       56.97686792401858       41.82628494874680
H           55.50380379534747       56.07201853191884       39.04416441068702
H           56.27209713858694       55.67420007614193       40.57756243200287
H           50.11711562986525       55.45054985041941       39.03393498650352
H           49.48470280096481       53.70557821176025       40.59433468004524
H           49.29178407154247       53.09173790605708       38.95201091873534