3795
 energy: -5103.703998598320 gnorm: 0.000838290243 xtb: 6.6.1 (8d0f1dd)
C          121.63406264230571      115.78054787512073      103.70550029758209
C          121.54916067975995      114.37233445772640      104.24523010326865
C          122.68544549543212      115.93646153423938      102.59989917220935
C          122.10850148756940      115.63567461843400      101.21759133605045
H          123.05274161762954      116.96341010938606      102.59905504935720
H          123.53035731252648      115.27928957994412      102.80989036315272
C          121.57084136001342      114.20750684785091      101.10799776469125
H          121.30083843669397      116.34234468988294      101.01823467727908
H          122.88211871655813      115.78950053141358      100.46192528250438
C          120.91341333694555      113.95927747868197       99.76401920906873
H          122.38148435377083      113.48886348962934      101.23743747431830
H          120.82090809292593      114.04088595934627      101.87966930161649
N          119.85995826310793      114.74635925947781       99.53029569882585
O          122.70387598299776      113.90232849431787      104.64864447761620
O          120.51082794601633      113.74591477433643      104.34885501208029
H          122.59438833087574      112.99290675889490      105.09971253424385
H          121.91095317007850      116.40959761594763      104.55359552516693
H          120.65296717132524      116.08990821757570      103.34457079020248
C          119.13872462136548      114.81353211804438       98.27855196349464
H          119.54484405165230      115.38755062396493      100.25180859577002
C          117.64790354110825      114.99953629013621       98.54207001411912
H          119.51147041659237      115.66208860490779       97.68997881558455
H          119.34420305174743      113.89783545830167       97.71844882787002
C          116.86264062329610      115.32372528083876       97.27525004382139
H          117.24392394185051      114.09566292697104       99.00136194665734
H          117.53680455222285      115.81833950001565       99.25612536542565
C          116.82345623249437      114.16537538259634       96.27320169352487
H          115.84282964174315      115.58129497497974       97.56232207262101
H          117.29358168357707      116.20624007834709       96.79889951024369
C          115.56604719592336      114.21861483135444       95.40082945408690
H          117.70983229603728      114.19846417346220       95.63960864372463
H          116.83554141473704      113.21210255729984       96.80601561883581
C          114.36260765478583      113.67303929134115       96.16721766726663
H          115.37443655584812      115.25040399381629       95.10343997863401
H          115.71281277452537      113.62930550845428       94.49429262114376
N          113.10122185545254      114.01958410486343       95.55191842485925
H          114.44151401644922      112.58395489062049       96.23717416158827
H          114.32882868817515      114.08716962681994       97.17577829032507
C          112.05577950015849      114.50587264180656       96.23566619615271
H          112.99037119187116      113.78733149117241       94.57768245430763
O          121.30773586301270      113.09413570155604       98.98275308419989
C          110.78788971484114      114.68013154645904       95.42712683171013
C          109.70976832028080      113.70784724732887       95.92292802187750
H          110.42536742056654      115.70089679904696       95.56798399344906
H          110.98426690906237      114.52592779634131       94.36704789800349
C          110.14566789366984      112.24075462607152       95.92645187826923
H          109.43270278792194      113.98692734525439       96.94095385636800
H          108.82669200102380      113.81751831805045       95.29134344272160
C          110.59934556833079      111.73289408440317       94.54829988467108
H          110.95265758926809      112.08962838575920       96.64479623343077
H          109.29198194203697      111.64465450316784       96.25676913722171
C          110.19404694572096      110.28220622068518       94.36872681891813
H          110.10312487840838      112.30098890335266       93.76046768634967
H          111.67923031646828      111.82016453680120       94.44084143738611
N          111.00583597551078      109.38456302156261       94.94251898155345
C          110.74408461559327      107.96443402792495       94.85194076435690
H          111.86199116248086      109.68473026671801       95.39437868566863
O          112.11243689842441      114.77733917864315       97.42995129929668
C          110.72620263710657      107.25755970360534       96.20863405333127
H          109.76772774292752      107.87290429574527       94.36805736964008
H          111.49282746520480      107.49481898555288       94.20330867062279
C          112.12627618725853      106.90115385407789       96.70877540684702
H          110.20363500050375      107.88373719389068       96.93200140867957
H          110.15331934373003      106.33575433287436       96.09094111664486
C          112.09708661144872      105.91156950861615       97.87749223897458
H          112.67037467314134      106.43847137001177       95.88249611639664
H          112.66325345658994      107.80587890703912       96.99178668121614
C          111.87678907732612      106.55523193499558       99.24799759418806
H          111.30129401544002      105.18759936748954       97.69084013240277
H          113.03672496140867      105.35462630772084       97.90124632955177
C          113.17475469738464      107.04774619248454       99.88936470599010
N          113.06496042722139      107.06205265352949      101.33230901378914
H          113.99415297150225      106.37261428337010       99.60180668305794
H          113.44437564252634      108.05294529765821       99.55727786327101
C          113.82335273285224      107.81563170363650      102.13662263722230
H          112.45822317480406      106.34837587681089      101.72923399176599
O          109.17215629136632      109.97073964541185       93.75990721169715
C          113.65659517081558      107.49673017660000      103.61594084687003
C          112.29618909251138      107.91874824031321      104.16980001194725
H          113.76995058825675      106.41892633931046      103.75011691303750
H          114.45185303564979      108.00353296405456      104.16357287498427
C          112.15624332738778      107.52153535733405      105.63878002579020
H          112.18168304876829      108.99906241854740      104.06521366923140
H          111.50773694775503      107.43498634193975      103.59132443165825
C          110.81925227028499      107.96542361329807      106.24193094291780
H          112.22713311377028      106.43486159313073      105.71974283973374
H          112.97291860328122      107.94917256459942      106.22230508554391
C          110.64539122912474      109.46972836686504      106.15937877108843
H          109.99809691543381      107.49234195366975      105.69976024393137
H          110.78517969400185      107.65549380473429      107.28478998450510
N          111.33353015783332      110.18634576123746      107.04626785744600
C          111.31562571317416      111.63816470304643      106.98409757629034
H          111.97779485730950      109.74214691437884      107.69672253642536
H          111.16541032597995      107.37562910109241       99.15714876750543
H          111.44057658793763      105.81345638854374       99.91941511506268
O          114.59742750095884      108.67640565540708      101.73495059294602
O          109.91736783342797      110.00141626689229      105.31517756074085
C          112.05709895125123      112.28323136948926      108.14416709764011
H          111.77557559610834      111.94088741095443      106.03638429670058
H          110.26952160550925      111.95790816349538      106.96151221770324
C          111.32233267755157      112.20134047843862      109.47973493558167
H          113.02921148426496      111.80270013153991      108.24159136257953
H          112.22713386930653      113.33237127077251      107.89850857844161
C          110.15899160594827      113.18433873034428      109.59502870444160
H          110.96818829458240      111.18385848403454      109.64063780003383
H          112.04129231138656      112.43732836798102      110.26266831373502
C          109.68620298666696      113.34246317953993      111.04240338800236
H          110.48634575321653      114.15726299904242      109.22497092947272
H          109.32382193161105      112.85710824623087      108.97530764279547
C          108.63398026631400      112.32323280211439      111.47421803863058
H          110.54565339743942      113.28232926029506      111.71015394948846
H          109.23543115943649      114.32786914797380      111.17214774658835
N          109.06732147000629      110.94257379450458      111.43693985012212
H          108.31136801199374      112.55587558259518      112.49537559191191
H          107.76901609423955      112.38650010093252      110.80951151167511
C          108.35369784453783      109.99735597254436      110.82807439762841
H          109.83885983887242      110.65813037827009      112.03363135846179
C          108.84149604815414      108.57755377399350      111.02643495709789
C          109.71591089761269      108.13511744817245      109.85030850617831
H          109.41477799606203      108.51339816441231      111.94854960042042
H          107.96326370178895      107.93368099568876      111.09331066503319
C          110.07438378692987      106.65089723866843      109.92511158398078
H          109.19122774197589      108.34412147686244      108.91446734035878
H          110.63852369812551      108.71755125540801      109.85755037790224
C          108.90763897151145      105.74195455859414      109.54230800538703
H          110.91175513010616      106.44416016609476      109.25568341853558
H          110.40399660773886      106.40704799214343      110.93616939083350
C          109.28470803457633      104.27021994016278      109.59145563833272
H          108.06563011431713      105.88495573173635      110.22108234164226
H          108.55912984526167      105.98536578878688      108.53620199141217
N          108.26227547200347      103.43272108662256      109.36532342083412
C          108.37388451362442      101.99113336097442      109.44737994586984
H          107.38400869806642      103.77970171133168      108.99354109333446
O          107.35712113394598      110.24258282270523      110.14142974827833
C          107.96015227624004      101.32844933541813      108.13793505294028
H          109.41302511119066      101.74835088809019      109.68124969222397
H          107.73446963308881      101.64173423983473      110.26377771823225
C          108.11978794462206       99.80823998789894      108.12922411550255
H          106.92377002038403      101.59419913714278      107.91889646104332
H          108.57914006982429      101.74335690663642      107.34001593029556
C          107.07713748410059       99.04404018848821      108.95397960470196
H          108.02590217614056       99.48144277610005      107.09070915946087
H          109.12131939650531       99.53211643916754      108.46086427576800
C          107.47946578696630       98.74260360505885      110.39816109546616
H          106.13584196603996       99.59734360862764      108.95280396882588
H          106.89008218098419       98.08368309944875      108.46613782239876
C          106.47805734315784       97.77505996199687      111.02365304221722
H          108.47370193367620       98.29176742391974      110.41223052988838
H          107.51845103115576       99.65375687952408      110.99515200265502
N          106.77833834421133       97.47852381629845      112.40710307549141
H          105.46504654726333       98.19018351865071      110.99610821271050
H          106.46742360132414       96.83896637346440      110.44803371070752
O          110.41851301508146      103.88654278365941      109.85627133127167
C          105.82894396490806       97.26928856516480      113.32821886203915
H          107.75569556676888       97.40806628694266      112.68079546183235
C          106.34855007859794       96.85955761560442      114.69310308519677
C          106.20728796440936       97.97105442684280      115.73972352622812
H          105.75239740269230       96.00114754040308      115.01007530162720
H          107.39285627432587       96.56040996731230      114.61301177155093
C          107.22694562984121       99.09547840344632      115.55866584491123
H          105.19152208092335       98.37150129073248      115.70079621775839
H          106.34828047492641       97.52055265150179      116.72467752358178
C          106.76666887277011      100.17807116652298      114.58754172253913
H          107.42500310177753       99.55524775697431      116.52975671391808
H          108.16314881722195       98.67097269430089      115.19306310802560
C          107.84828420386884      101.20853222984414      114.34608784758706
H          106.51482314026509       99.72560947029767      113.62605378529278
H          105.87082905712732      100.68148252855677      114.95282146276297
N          107.44492774750904      102.32749081470081      113.75367167265844
O          104.62668488105297       97.37831849006548      113.08918600907187
C          108.33220091658509      103.43270119897841      113.43637576670115
H          106.44597582922806      102.46836124569069      113.64256499321330
C          107.55193575394057      104.71958697255192      113.19488192159494
H          109.04101340946413      103.55283667245826      114.26200945166515
H          108.90702585798353      103.17716939489839      112.53904350825104
C          106.84689539413256      105.23160877723349      114.45105289191365
H          108.24841010072444      105.47317725421071      112.82674274382364
H          106.80898925770025      104.53213537345790      112.41608854315201
C          106.00645433696856      106.48576367232634      114.18529180168365
H          106.19299456167435      104.44197665895233      114.82568156120274
H          107.59187700793892      105.44198456990340      115.21890334003810
C          106.81568237958864      107.78755553994584      114.20068100394433
H          105.52137041248221      106.37693769095520      113.21276241239477
H          105.21049911957590      106.54631585006865      114.92782580005644
C          107.06101888949225      108.33588488609278      115.60983463866849
H          107.77710521871764      107.62098393206419      113.71743422691236
H          106.28121583381024      108.54839470748615      113.63017199216638
N          105.84834553124450      108.89991960349663      116.16443392486502
H          107.43040277194194      107.54086434640216      116.26483940598773
H          107.79730203419898      109.14208823225836      115.57777433114984
C          105.74066198222462      110.13839995111287      116.65309565012083
H          105.03213556979377      108.29806818809099      116.15846429745352
O          109.02677863401341      101.01534245452264      114.66522499907995
C          104.33073863648302      110.54134392234234      117.04339224708340
C          104.12296453249994      110.43136379311431      118.55821985498032
H          104.16899664828892      111.57592147471945      116.73635507502070
H          103.61001230485734      109.91150540961911      116.52311069375496
C          102.63827013631317      110.44446231559789      118.92754294378257
H          104.57191195605040      109.50589140864703      118.92212648646753
H          104.62346607655462      111.26875501420358      119.04610137748443
C          101.99292021641705      109.06568323700220      118.74084147800610
H          102.51729740773992      110.75563980216710      119.96662971887226
H          102.12457875578805      111.17180497930623      118.29843513399651
C          100.48830062916673      109.15515844357495      118.86607843768935
H          102.23483748254141      108.68084288126316      117.75029911442915
H          102.36656808674215      108.36680217380800      119.49060413750979
N           99.89477979097920      109.72795360563335      117.82024768562246
C           98.47517257444399      109.97913565983593      117.70544900107301
H          100.45604047254793      109.92912367929337      116.99162916037692
O          106.70089406487234      110.89155203674781      116.79568543015549
C           98.23589860793737      111.33905554910042      117.05006785797401
H           98.01367284019747      109.19198703544423      117.09529279461317
H           98.03905112356608      109.93062615667236      118.70618560818183
C           96.78691196811428      111.53037097323936      116.59817160706871
H           98.52818026415665      112.12731931125420      117.74403790749537
H           98.88483600484228      111.40115450302416      116.17621656857899
C           96.66024904469251      112.52355269714849      115.44154701248360
H           96.39446754355747      110.56922111695356      116.25969245624638
H           96.17301330821203      111.85921951866816      117.43761771108426
C           97.02007297722908      113.95846929847248      115.82469286875981
H           97.30354734972887      112.19811877400001      114.62093462355470
H           95.63149895522614      112.50880862811512      115.07605824452769
C           97.07955137567828      114.84565906943111      114.58597380342732
H           96.27606975338826      114.35369067385861      116.51832809776457
H           97.98706696152568      113.98407683264097      116.32764109094788
N           97.22148419198112      116.24423703729182      114.93729807898063
H           97.91677195242239      114.53793561323812      113.94789498247650
H           96.16060377354441      114.74825016985145      113.99886206020004
C           96.66821052628575      117.21951981626042      114.21539015091749
H           97.66316398573488      116.46719703819223      115.82978410587978
O           99.87277326635153      108.75522820990450      119.85707901530935
C           96.88150969642342      118.61631299219096      114.76665917440144
C           98.19722750613504      119.18749523764228      114.22775640479334
H           96.04741891909143      119.25077393122692      114.46385302612575
H           96.91999691440242      118.57254732217964      115.85541080546719
C           98.60311208537362      120.47465282834160      114.93887784254601
H           98.98278087517741      118.44412367832771      114.37071115102060
H           98.10894825211439      119.36641224068866      113.15586365687807
C           99.96364193911293      120.99467690852836      114.46604558995361
H           97.84625300237369      121.24567358230706      114.78186447916097
H           98.66346702185487      120.28599569932395      116.01178348705331
C           99.93627252170228      121.33239618201844      112.98852069990664
H          100.20600149328091      121.89502379812319      115.02794101410829
H          100.73764061337241      120.25129316398005      114.65694673859473
N           99.23577637205806      122.43571281664705      112.70935156237591
O           96.06970099422719      117.00965203001950      113.15833441297836
C           98.95132183146431      122.92787441182213      111.38150273357644
H           98.86489352670662      122.96311263357507      113.49491212275569
C           97.45419306287262      122.90803727473471      111.05865122632527
H           99.30099966084914      123.96252094367097      111.29537528885498
H           99.51220912359270      122.31983653373912      110.66952776004130
C           96.80294499343842      121.53802193507848      111.23791759465480
H           96.94462247292869      123.62633810496646      111.70496065975341
H           97.33482547442485      123.23348950212626      110.02465941682530
C           97.49403870388009      120.44811733575445      110.42399295157000
H           96.82513521226272      121.26429907234923      112.29490823339798
H           95.75484524698400      121.60567596522142      110.93763271035554
C           96.78492214961668      119.10096149060865      110.54746159702570
H           97.53842373701109      120.75120777657884      109.37620724259962
H           98.51909865616518      120.33523417618950      110.77858089954836
C           97.72689877189029      117.95308674222998      110.19517313061996
H           96.43938531700977      118.95115136703510      111.57247226681835
H           95.90668922175448      119.07191991397457      109.89971249704088
N           97.11927618045684      116.67014934809769      110.46334884490000
H           97.98835623766712      117.97978479785219      109.13428282553670
H           98.64507351790611      118.04608872738112      110.78775009090914
C           96.99759875707252      115.71213711263526      109.53953241332782
H           96.66950496160322      116.58233015084480      111.36984432385431
O          100.49978460481937      120.64201660773777      112.14085073745025
C           96.24379775409179      114.47935478162705      110.00796858347758
C           96.37572114698051      113.33899754217695      109.00226812311082
H           96.63578004976145      114.18725326930117      110.98329019309108
H           95.19504026917181      114.75757287743325      110.13631289671018
C           95.50451581147496      112.12467651892382      109.31521170144008
H           96.11405214028572      113.72102529456050      108.01332713520830
H           97.42340959504601      113.03725965447289      108.96598246703918
C           95.83752521217764      111.45876713794894      110.65531452156883
H           94.45593497724309      112.42782299788404      109.33633150280691
H           95.61908713069185      111.40497192575842      108.50238418444553
C           97.30815631854749      111.12514613076674      110.83418785830939
H           95.55306267867579      112.11569710765129      111.47815165617352
H           95.26169375864148      110.53544644500481      110.74981985796410
N           97.82571156396486      110.28844023744126      109.92882753678013
C           99.20393125000952      109.84128622593276      109.92784269383039
H           97.23815044167013      109.94130275902072      109.18649712019081
O           97.47680177420374      115.81439346629485      108.41164263849515
C           99.86381224740714      109.97603305275850      108.55628096201036
H           99.72928374720890      110.44227176342991      110.67077434609372
H           99.24325565662993      108.79326926978283      110.24155021426620
C           99.87404143920294      111.41324807025740      108.03296823550315
H          100.88473529490790      109.60306005567071      108.64617917623056
H           99.33082304456811      109.34345646701708      107.84454132627427
C          100.88827380449523      112.30463608462468      108.75265200882335
H          100.09093572701575      111.39800485363465      106.96502584779954
H           98.87482512603871      111.83418337985732      108.15335999703568
C          100.53736054177030      113.79003020595120      108.67360427107616
H          100.92749262365474      112.03039540250160      109.80758400034777
H          101.87953252850875      112.13689187163986      108.32920316420382
C          100.45741425161262      114.30457486217861      107.23745062206308
H           99.57408537793799      113.96537553697844      109.15754778126191
H          101.28491755259962      114.37291057602151      109.21470278468006
N          100.12361780185485      115.71256187349732      107.20535322270109
H          101.41852911416835      114.18113660809063      106.73396375339246
H           99.68964910494957      113.75534257299530      106.68838094990159
C          100.94834808171676      116.65559223216960      106.75470017352721
H           99.20252408097541      115.95197042032937      107.55737442662881
O           97.95531270557038      111.57796323474597      111.77510461073135
C          100.40644783344558      118.07066324552677      106.79500626306672
C           99.43066211764432      118.31199216473559      105.63968568890468
H           99.91420891608431      118.25094423301729      107.75062397674533
H          101.24804960997903      118.75808821311384      106.69373011594492
C           99.17883759146410      119.80004149772816      105.40066585849868
H           99.85072992751049      117.88560970259265      104.72553170585955
H           98.48691402041607      117.80384685452665      105.84597157450325
C           98.56602323757093      120.50863823185298      106.61203177598723
H          100.11773919205055      120.29190931967571      105.13359920155456
H           98.49258132762020      119.91338812575025      104.55822010441081
C           98.12850444564528      121.90576493501499      106.20810909415262
H           97.68004765844304      119.95658564051784      106.93325612553245
H           99.27623374390775      120.56609465381800      107.43544918073060
N           98.81845860328288      122.89986024600081      106.77378244342937
O          102.07780069669973      116.41280488579697      106.32641022209327
C           98.56695759070423      124.29953978718726      106.50942043617101
H           99.55560824779326      122.69811747501176      107.44104285381177
C           98.29146511370396      125.06525930130609      107.80128791345494
H           99.44100759819489      124.72997430740341      106.00968840446770
H           97.71311546828902      124.35270311927282      105.82980511690556
C           98.25248831792659      126.57115016560053      107.55291046222987
H           97.34106950641538      124.73621658783321      108.22649444334981
H           99.08110740207673      124.81379857193026      108.51166315496651
C           98.11083788324478      127.38322782789557      108.84464074035446
H           99.15990246377265      126.85447151050769      107.01840893062115
H           97.40481132664642      126.79383734871138      106.90071643212691
C           99.36987078733100      127.39645272312718      109.71982636700848
H           97.84057410021813      128.41220136172933      108.59508852195106
H           97.28145522248587      126.96263925935261      109.41707872109689
C          100.34750390312638      128.53905950435112      109.40194840454760
H           99.07519392000295      127.50067825857501      110.76572056710005
H           99.89318198969492      126.44433378023059      109.61771581180385
N          100.91802449729234      128.55031684869897      108.06481963925032
H           99.84919754803319      129.49951603686176      109.55534553951715
H          101.18298288937224      128.47953287336313      110.10612347002304
H          101.28010622571172      127.62744363676229      107.84254153286997
H          100.19405077110923      128.75910493368343      107.38595131804843
O           97.22313034401162      122.09001630551711      105.39588342992101
C          128.21618759547567      103.67459796737357      115.80953006284788
C          127.80323512707862      104.01410996500694      114.39231366655832
C          128.54585845005272      104.92907400029793      116.62068643600659
C          127.32696935371034      105.82886951032677      116.80674949835318
H          128.93026711042293      104.62854999275780      117.59737639056662
H          129.32771792524460      105.48462550800934      116.10087493410384
C          127.55702535698701      106.88160320259013      117.89566569379512
H          127.09180120872951      106.31999890668104      115.85923260714473
H          126.46642439736362      105.22002607558196      117.09413333337805
C          128.66137353852955      107.85509729566181      117.53226921491834
H          126.63692323596702      107.45119996267533      118.04009553655956
H          127.81617614905173      106.37684717156544      118.82407381458775
N          129.83833828624020      107.61439592875364      118.10968415518987
O          126.63513146209047      103.49884870199948      114.07793523268020
O          128.47733381840163      104.67184133041641      113.62763471696837
H          126.34069160383247      103.69145889138176      113.12885685443821
H          129.10490552302781      103.04322591288543      115.74928391653785
H          127.41131212986406      103.10876318229452      116.27858031698699
C          130.98398371581203      108.47941638003928      117.94349732877585
H          129.93627710395853      106.80586775938630      118.71895413242504
C          132.22425210710782      107.74352966589780      117.44111171401002
H          130.69612730661731      109.26660235939680      117.24528211451599
H          131.21812638235735      108.95612068170112      118.90171856125748
C          132.00219008942810      106.96937358730460      116.14196949232843
H          133.01120331062378      108.48643825582407      117.29863196390497
H          132.55541799621952      107.04210259685931      118.21015560268117
C          131.49721287454747      107.83328063217061      114.98761317415931
H          132.95161570974548      106.51201774079568      115.85497818040518
H          131.29345084834026      106.16043716288982      116.32607695980715
C          131.40940500496581      107.02863127094471      113.69187587997092
H          130.51009892295141      108.23079523868051      115.22493441498131
H          132.17414255443924      108.68010903440354      114.85033751873181
C          131.10165657546756      107.92028367956158      112.49293855123010
H          132.36406067729757      106.52499965121186      113.52024416223644
H          130.63331954917848      106.26461977312402      113.77983000662607
N          131.06510237026799      107.14286500624254      111.27237220812171
H          130.12765296791588      108.40112205601153      112.60589490926633
H          131.86476152766647      108.70347171818051      112.40809251051043