3536
 energy: -3716.246783126336 gnorm: 0.000681018391 xtb: 6.6.1 (8d0f1dd)
C           55.13253383487116       52.18437093411555       50.64385954386104
C           56.47314706894470       52.37366575068273       49.94193426584274
C           56.31515384619030       52.09223230543798       48.44808289908561
C           57.55879189073833       51.46599031647793       50.53330215366098
C           58.03196333971481       51.80334005956173       51.95279260675264
C           58.51328201294244       53.25148604323819       52.05126129158970
C           59.17290136218482       50.86292796545009       52.37847605483292
C           58.76410233317456       49.43694947345988       52.77026355038640
C           58.08634618094005       49.42030899129895       54.13778514465228
C           59.98908969230008       48.51056031637231       52.83004387049285
C           60.48268101492944       47.98658303633831       51.47844486877577
C           59.52126950433092       46.92809448378551       50.94083362299592
C           61.88199281754181       47.36329583552765       51.60529252903403
C           63.03429811357865       48.34077850356907       51.86122490646013
C           63.20876250292365       49.29818395541071       50.68488380445974
C           64.36218442601977       47.59975837735937       52.08345261292985
C           64.44535720057949       46.68429212047189       53.31280836530077
C           64.09847624687679       47.43805305240839       54.59464090772870
C           65.86029980873991       46.09000731330583       53.40150053722449
C           65.97431153066553       44.83073614840136       54.27593571901490
C           67.42938272914516       44.62171261272196       54.69130985153652
C           65.44697436490344       43.60884796032508       53.51205214851910
C           65.24367956417009       42.32468553512994       54.33453866778211
C           65.58757574394424       41.10817841273498       53.47104665057029
C           63.80681484003153       42.16430098693724       54.85281371302801
C           63.34321807600281       43.20059541721397       55.88069515033396
C           64.17406595933839       43.11665529009095       57.16065249995601
C           61.86700498493939       43.00524784610186       56.25298590231787
C           60.84556896607366       43.14614626852063       55.11822913175936
C           61.08492883167278       44.40637944446845       54.28605270947404
C           59.42234159658068       43.20840031977913       55.68802830904649
C           58.93882187964989       42.00066340986596       56.49665655197983
C           58.99777129654934       40.71962825781407       55.66424630260203
C           57.49202118926041       42.22334812432688       56.96534792461738
C           57.28281190497692       43.33977310466929       57.99873881416860
C           57.83912340996753       42.93041600585363       59.35980920788305
C           55.78615886853925       43.66548218332875       58.08578712062008
C           55.40756289357935       44.85855834354425       58.97136685325628
C           53.88374286738154       44.91917210914286       59.08499308168410
C           55.99060197905439       46.21400208103486       58.53571996804105
C           55.48436636762717       46.80812621412851       57.21145465552523
C           56.38133557929615       46.41544229464229       56.03944581143742
C           55.40360801806247       48.34295556190933       57.30084901480954
C           54.17652542212944       48.87031124003000       58.05327424502430
C           52.90451395919475       48.65412588984629       57.23246986396657
C           54.29069023339213       50.36889385565424       58.37405298628162
C           55.35799248755518       50.81277011330685       59.38994074927756
C           55.24429641074623       50.04052506414436       60.70071673632139
C           55.17255831393590       52.32260546182269       59.62051681621153
C           56.13164005194568       53.01856003090941       60.60117503792891
C           55.52207751934495       54.35820612981919       61.01515420096077
C           57.53027054471302       53.18929324788250       59.99331939219225
C           58.62069300288334       53.63880500782276       60.98310820845474
C           58.82380009321896       55.15502372395520       60.96269279071375
C           59.97443785814053       52.98888328054259       60.65919802651185
C           60.10395278906015       51.48315942406118       60.92101277831060
C           59.97448612916857       51.16769714201052       62.40870072749843
C           61.46524243007337       51.01161972351375       60.38892553254209
C           61.61178262951506       49.49690733112052       60.18407708710887
C           63.09725593010467       49.15028286543203       60.10527905915357
C           60.87814277744707       49.05715825339087       58.91331578459442
C           60.82299732188715       47.54722861602698       58.64321756181981
C           60.19065706143111       47.32970842188723       57.26784585025401
C           60.03528233593062       46.77120502098924       59.71465782115881
C           60.88866774765299       46.10007181034914       60.79934928804040
C           61.66163285665843       44.91678569803445       60.21610335614322
C           60.01727558566539       45.58891487942808       61.95611326138054
C           59.41192035173200       46.66068361036202       62.86950030697361
C           60.48478623674586       47.27586173452442       63.76740964868485
C           58.30690249205603       46.07617492347625       63.76240697795927
C           57.01757217503261       45.63237010322036       63.06271859990420
C           56.29727966172095       46.81672320590700       62.42129090786860
C           56.07190515755899       44.94681039387426       64.06147613840773
C           56.48531765932050       43.54297028619087       64.51755804301978
C           56.46315089397933       42.56253540276749       63.34370508058429
C           55.54312031293074       43.02877521656870       65.61773041147845
C           55.64638675116230       43.70651519765790       66.99258080544895
C           57.05160689599592       43.56194949628708       67.57311054712802
C           54.61293967870238       43.06635739898893       67.93300706418565
C           54.28794579264758       43.86910731614839       69.20444663847449
C           53.76019672961814       42.91576128531119       70.27711413792248
C           53.26347911693200       44.96661318483314       68.89080720974223
C           53.04260460317578       46.00959994103303       69.99914924235723
C           51.70310985255369       46.71549678298393       69.78388032428307
C           54.20079499776606       47.01369700257411       70.02686366264248
C           54.14178354422080       48.07958174685528       71.12751737876731
C           55.32775570530045       49.03325071025129       70.97720027134092
C           54.06583476076707       47.50117924855034       72.54741040848732
C           55.20203657830430       46.55506145428301       72.92983165666382
C           55.06481390540267       46.08524679385084       74.37358731705164
H           55.21817198282213       52.37735959071473       51.71003611783630
H           54.38982233384633       52.86548172822160       50.23251585716687
H           54.77685089758788       51.16533065880479       50.50714870052537
H           54.11981327036516       45.56505333624504       74.51850862287829
H           55.87305780921069       45.40597329541093       74.63593659524278
H           55.09384951914241       46.93225204417214       75.05628061455799
H           54.05495131119704       48.33637462155067       73.25392619429778
H           53.11676187037475       46.97293902199686       72.66824088907570
H           55.14239998803228       46.47047791880581       70.11789993335358
H           54.22454965547080       47.53358642599337       69.06604054464590
H           52.99644482104183       45.49201242926057       70.96114596803147
H           50.90082101303969       45.98726658265875       69.68149514458263
H           51.45948521195954       47.35834234512877       70.62612579436292
H           51.72841805636448       47.32682868320226       68.88430411368206
H           53.57414779513274       45.48823426127035       67.98468802447226
H           52.31027140634055       44.47708959514598       68.67373251433621
H           53.67967341894315       42.90659717799027       67.38689598475142
H           54.98801107770582       42.08077054334841       68.22088170726805
H           53.23373252997026       48.67539126001146       70.98116644621723
H           55.26735841053204       49.56268309407738       70.02852089760309
H           55.33038126500730       49.77168368849183       71.77638315415457
H           56.27126000996645       48.49354601498874       71.00280985898486
H           55.20582965226347       44.33116843838120       69.57975067143377
H           53.50603248200113       43.44585830422143       71.19164218393023
H           52.86782246134561       42.40375817558921       69.92126702945181
H           54.50880017533595       42.16527862781697       70.52381586468273
H           55.41819749392932       44.77127341639397       66.89307278082954
H           57.08364624736011       43.91597878376949       68.60059336922781
H           57.35725140702043       42.51666856496345       67.56592475403865
H           57.77432347583004       44.13837509236577       67.00261535696764
H           54.51513789794295       43.12210246014450       65.25777605353268
H           55.73512122909726       41.96158853006055       65.76338895320919
H           57.50408306714625       43.56788009060715       64.91181694413146
H           56.63665162710665       41.54521612544619       63.68928226869643
H           55.49850774566905       42.59238870671465       62.84225868723316
H           57.23449894425927       42.79856551922792       62.61629446932687
H           55.97486442799890       45.59240138433979       64.93676791840568
H           55.08218298363675       44.86666650246336       63.60296537867747
H           57.26033817036269       44.91974991045446       62.27026363110434
H           55.37494501429945       46.48542293981087       61.94877913696547
H           56.04822338876533       47.56699044591740       63.16752993390307
H           56.91715306154824       47.28047456851031       61.65920308878312
H           58.72856005596014       45.22491814373993       64.30288642403453
H           58.03748365648530       46.83415677644055       64.50258578524982
H           58.98398658195929       47.46131290791453       62.26000742366893
H           60.93178764505315       46.51501161246016       64.40522153651428
H           61.27780249804894       47.73275090308933       63.18202142828772
H           60.05594518063306       48.04448173071242       64.40748005843703
H           59.21555969602311       44.98777202717023       61.52296500103844
H           60.62432088996123       44.92330356947009       62.57593337217619
H           61.61487025680378       46.81715665925213       61.18890289322189
H           62.31593077019341       44.47904726382321       60.96756255304092
H           60.97390978736545       44.14610847296801       59.87174593488124
H           62.27578644876365       45.22270734690020       59.37194395196769
H           59.32134659810404       47.45223390306354       60.18054671441790
H           59.45248364056517       45.98313886515943       59.22991007650759
H           61.84577789401750       47.16332910386414       58.59703194676880
H           60.16622743082990       46.27071593601327       57.01776108649017
H           59.17138040873231       47.71127094636390       57.25736737379384
H           60.75392474263473       47.84862648757781       56.49454639670588
H           59.85152938725803       49.43008537001299       58.94916878646501
H           61.36630921260245       49.53717491354790       58.05983481155729
H           61.17536872053027       48.98202215115430       61.04344715807595
H           63.56109247641575       49.66706972571145       59.26767092805063
H           63.60865229141373       49.45323874946600       61.01689801400055
H           63.24936375369005       48.08222715658583       59.97166346491161
H           61.66492599945357       51.50016523361969       59.43133632175218
H           62.23399611422182       51.35033488027156       61.08797065788698
H           59.30778272101820       50.95593778773129       60.38537232120057
H           58.99343703792204       51.44770105578576       62.78352008944593
H           60.11097265918466       50.10503409390711       62.59258879219569
H           60.72707554015983       51.71169619240679       62.97531844379033
H           60.19015676908438       53.18042799784526       59.60396243527160
H           60.74972503884334       53.49434823728348       61.24174065259725
H           58.31990106812321       53.34818104424888       61.99449638247405
H           59.22716771909050       55.46562176000139       60.00194285294200
H           57.89602533277894       55.69060073747767       61.13103705989641
H           59.53060282977485       55.45268599834980       61.73513589232944
H           57.82247081649239       52.22899939414491       59.56587715091334
H           57.47855985055796       53.90329904495660       59.16892778899773
H           56.22109082622715       52.40588298440584       61.50430361948091
H           56.09688489930384       54.81967858181259       61.81273323252696
H           55.48683083356060       55.04158448380716       60.16856108169518
H           54.50606779066008       54.21831582346528       61.37843251039755
H           55.23526804380523       52.83401920601298       58.65582757226075
H           54.15305088764993       52.46673906042926       59.98947171939732
H           56.35150564288971       50.63167958340652       58.96510400105819
H           54.27861289029519       50.22330966778167       61.16869100923221
H           55.34976407071317       48.97264254178118       60.53593561979957
H           56.02622925708590       50.33861353986332       61.39308806165217
H           54.46793890921070       50.90372751644363       57.43640997687515
H           53.31820583813381       50.69701648679807       58.75386125323582
H           54.06120764605483       48.31453513917655       58.98831322043868
H           52.03329774298001       48.99082540636915       57.78959307783913
H           52.95514518706813       49.20962173030026       56.29782346446636
H           52.76062518220364       47.60311342328048       56.99533723339145
H           56.31426130837340       48.70609131938753       57.78179764363176
H           55.38566545148715       48.76070625963123       56.29126860541793
H           54.48432113822394       46.42022768447899       57.00792037775658
H           57.37626986001168       46.83744010995834       56.16347662875489
H           56.47725288827777       45.33762293010655       55.96019665343084
H           55.96690433251437       46.78547583984884       55.10303199278916
H           55.75742799198264       46.91682070708807       59.33846576349820
H           57.07901295942546       46.14021070873454       58.49801823485748
H           55.79831863697389       44.67106416688745       59.97828329516997
H           53.51480249815067       44.09520720631379       59.69239351530505
H           53.56840620843563       45.85231233680453       59.54538101131432
H           53.41433046210969       44.84403974317964       58.10743632135853
H           55.40061702621902       43.84269714140172       57.07949867796076
H           55.26931172259706       42.78240957461423       58.47294340568708
H           57.81331697998403       44.23427149749075       57.66400606595359
H           57.27854590819820       42.09030030304667       59.76624041226041
H           58.88333726445912       42.63660588138476       59.28078253724809
H           57.77943394451795       43.75616323379631       60.06415874704231
H           56.88547944174272       42.43980744541465       56.08171119506970
H           57.11543121828858       41.29037196892848       57.39423048304132
H           59.57951703328165       41.86932142507375       57.37365702235715
H           58.42180204776303       40.83531216663940       54.74840795506484
H           60.02099749801566       40.46887263215093       55.39676769227288
H           58.58570758813448       39.88198876521128       56.22403762880278
H           59.35835958833610       44.10127671518494       56.31330392803060
H           58.72894873977765       43.34341665656964       54.85579021233445
H           60.92146586690388       42.28014099058801       54.45285758020061
H           61.14890421654066       45.28352170171426       54.92619373946845
H           62.00486659464998       44.32683621710344       53.71368565805143
H           60.26643057568958       44.55530366963919       53.58395129673701
H           61.75754833591148       42.01551631739117       56.70339479187808
H           61.61907073235110       43.74246659818447       57.02213970761397
H           63.45921328813996       44.20041363911155       55.45838261638063
H           64.13721014831363       42.11083952139337       57.57550037660653
H           65.21411935570944       43.37264849410448       56.97948008019905
H           63.78612578628465       43.80340210946024       57.90914922033299
H           63.13708671444364       42.18821050343444       53.99050480245799
H           63.71329086172509       41.17236606453009       55.30625700824466
H           65.92735647251435       42.32393002019559       55.18713482044704
H           64.95017170891900       41.07649888940771       52.58941811008538
H           66.62404342134170       41.14985847171483       53.14243677171804
H           65.44696093514989       40.18369815367789       54.02814756114896
H           64.49850587077664       43.86467321442094       53.03680656501959
H           66.15731470940919       43.39988449742315       52.70757256886040
H           65.38669667309310       44.97631743173567       55.18460040079642
H           67.79342307055799       45.48073613663998       55.25191062025922
H           67.54098138696237       43.74118902665890       55.32019779948558
H           68.05760751291169       44.48774335327673       53.81411652386998
H           66.21014547498895       45.83991825801581       52.39655898456291
H           66.52881031754306       46.86022763089748       53.79336299556379
H           63.73179222648496       45.86460141103311       53.19022953781364
H           64.68234218135341       48.35420271392525       54.66219449723191
H           63.04185864676599       47.69224426227598       54.62077765430352
H           64.31605267174307       46.83205347464040       55.47094045333269
H           64.57738677188135       47.00338140942797       51.19176948182207
H           65.15649908992076       48.34675016299460       52.16907238405395
H           62.81790046796449       48.93675570643186       52.75096146298536
H           63.38623720104852       48.73780024756198       49.76948827654248
H           62.32727422817263       49.91836729405365       50.54524403822483
H           64.06041572757660       49.95252609853807       50.85356538207711
H           61.84329658251741       46.63375586699215       52.41605920932405
H           62.10380741566330       46.81593482851560       50.68403531559199
H           60.51501248292698       48.81074182090300       50.76016377378052
H           59.47166798223056       46.08474336615014       51.62647866500856
H           58.51882801347692       47.32984444844794       50.82006183577708
H           59.85349540712701       46.56181595150264       49.97187436309132
H           60.79236521577603       49.05134596244147       53.33189410519635
H           59.74591056303779       47.64577908363481       53.45323611882935
H           58.05737415511884       49.04889414879987       52.03149736317293
H           58.77972466320231       49.75360481780650       54.90767537208972
H           57.21471389719714       50.06682932065815       54.15697484475381
H           57.75999322180973       48.41356528108633       54.38348565079288
H           59.90001677009025       50.81860497654696       51.56369641804701
H           59.67656514159623       51.30647594338730       53.24031223393968
H           57.19710713646925       51.68049640537800       52.64888390249982
H           58.96653200522797       53.43395376694254       53.02358877711439
H           59.25355982230980       53.46451559127419       51.28254037616769
H           57.68896079983203       53.94962052569994       51.93160573158082
H           57.18982697103004       50.43791258783092       50.51733812415028
H           58.42856166879537       51.50263467977148       49.87284006459046
H           56.78193871907504       53.41795759773964       50.05034994257637
H           56.01557902775597       51.05994926237566       48.28142564556855
H           55.55388779556148       52.73882372754018       48.01803329779490
H           57.24956430682276       52.26988839936064       47.91959664016000
H           55.19649430829136       45.68407910635065       72.27248253451779
H           56.16137233393614       47.06116424247752       72.81056034303961
C           63.55189599057541       52.39070874446399       56.66337837684456
C           63.07355866878885       52.38687807980061       55.21262442891502
C           62.15305580844321       51.19334638475164       54.98115391352003
C           64.28245475633175       52.35763374871299       54.27187898006094
C           63.99382689485164       52.52342911954745       52.77150964973633
C           65.31366685752931       52.35415517831395       52.02156106416892
C           63.34657392207538       53.88391135399981       52.48561766130373
C           63.15584076561470       54.27347844409224       51.01042854012704
C           62.50440888905099       55.65582535106503       50.96748112382352
C           62.32379181316837       53.22544756977350       50.26157697916863
C           61.89993855256846       53.57727227540391       48.82625653646845
C           60.99679784724473       52.46332959928813       48.29678631073413
C           63.11647435690424       53.76798967575100       47.91324027410759
C           62.82234901560584       54.31864866087042       46.50800445613379
C           64.06638905866463       54.14164187735200       45.63928086830420
C           62.40442701823621       55.79131816471013       46.58437931130413
C           62.07370846654580       56.48963441751712       45.25550261043073
C           61.73342223437327       57.94702167265072       45.55776473330488
C           60.92459476954259       55.77877869260773       44.53004702555688
C           60.31632051156236       56.50272578223446       43.31924696043877
C           59.14516215916408       55.66728679478823       42.80415793787785
C           61.34687949389944       56.73384865595652       42.20693604486355
C           60.88650812570022       57.70935296575377       41.11373811094749
C           61.76267143629448       57.54744354400736       39.87111812405577
C           60.92426302557234       59.16911371301295       41.59515734344957
C           59.78083536731336       60.03800900457328       41.04708089123681
C           60.17714748043321       61.51227575445642       41.10874966585101
C           58.50542508931773       59.77180462723732       41.85634357569485
C           57.21047434079223       60.41177254054534       41.33624623488175
C           56.14174035860069       60.29691430792546       42.42253694005518
C           56.74623474194157       59.75100118002683       40.03306452725462
C           55.63820032276926       60.50132792860563       39.27785577250689
C           55.05571020279647       59.57910160682916       38.20641235567934
C           56.16852343886552       61.80471091894653       38.65319095061836
C           55.26041520481665       63.04122881324362       38.77556316542599
C           55.06172627281644       63.44469791531652       40.23559458277073
C           53.92360498614764       62.84435356314722       38.05050614471554
C           53.12087927998376       64.13213421735809       37.81818266652829
C           51.68656125189928       63.77991147351703       37.42648958228420
C           53.75721728850137       65.01884403867840       36.73786347558578
C           53.48684731811591       66.51515867569830       36.94617472703896
C           53.86290242476638       67.28750024042624       35.68191705357777
C           54.25295819230612       67.04921745348625       38.17307988845315
C           53.36419024700267       67.72540225803728       39.22760430320803
C           52.87576778969952       69.07834621513118       38.71600042949245
C           54.14672680614430       67.86780706052173       40.53921560636785
C           53.34609934782314       68.34932880320262       41.75680531170728
C           54.30765842224598       68.53793204364707       42.93198197397574
C           52.21728229450173       67.37647133301867       42.14420891557084
C           50.81399099322286       67.82533754570194       41.71628718786653
C           50.33565791745577       68.98220033170040       42.59401395115896
C           49.81315134422162       66.66604967800851       41.81485601525923
C           49.87937078757933       65.65535733614600       40.66286427494671
C           49.20589640054457       66.22578314726506       39.41488626668387
C           49.19621008072445       64.33759341240267       41.05581931609461
C           49.98988138747244       63.46748999014944       42.03743736762124
C           51.20730084163240       62.84060927321504       41.36146184914505
C           49.10487066334211       62.36358629751745       42.63739340638346
C           49.52768292858686       61.97176968627756       44.06019643834882
C           48.96384409147790       60.59761918915174       44.40981205671791
C           49.05272307651042       63.02470405789729       45.07855889889959
C           50.07540471439839       63.43147064532743       46.14593331219012
C           50.64092447871593       62.22411990332263       46.89208807080229
C           49.43614616104565       64.37692610690753       47.17504759152615
C           48.87094592149376       65.70048107317574       46.64173090894123
C           49.97937681737995       66.58022372588172       46.07098849847107
C           48.13186260954814       66.41958158321086       47.77911446361271
C           47.19469927797921       67.55539606455896       47.34369671519677
C           46.77937199114424       68.34936771978033       48.58335172916276
C           45.96294504835260       67.01932976444341       46.59092540624844
C           45.60394238907185       67.80000270266152       45.31988301791024
C           45.01727093639523       69.17112802575699       45.64982160406055
C           44.62023283186350       66.99061493879296       44.45744457479832
C           45.31166591973868       66.03408155150444       43.47746695707198
C           45.83432989109388       66.81169196568824       42.26944670372105
C           44.35697593538617       64.93993448169044       42.98117539102287
C           43.98890116502645       63.85542593330676       43.99932306223725
C           45.20867257544738       63.02269991104582       44.39117626079922
C           42.91136083685349       62.91689697822787       43.43483228963672
C           41.56536029571416       63.56411495840288       43.09126835460382
C           40.99568788238108       64.32961539702301       44.28657833492584
C           40.53886002898219       62.51108802640658       42.64743268095565
C           40.89039085004008       61.67882292351526       41.40698102799040
C           41.16218450914196       62.56546436323332       40.19279674907410
C           39.73739238245221       60.70833299574814       41.09821194924135
C           39.75256890777283       59.43022117257066       41.95070756503014
C           40.70553165900006       58.40776244276147       41.33642633445845
C           38.33526496228888       58.86163562106155       42.08392047850989
C           38.25588465847417       57.61877229886037       42.96814721025228
C           36.81351503732657       57.20031691251463       43.22644040171961
H           62.70483700572971       52.44033160946589       57.34501726402916
H           64.11308769880280       51.48312096424183       56.87944389226138
H           64.19745595569603       53.24329047587272       56.86156119788219
H           36.26770635935505       57.99444857285251       43.73191258294669
H           36.30597624442034       56.98108729002829       42.28928228216888
H           36.77883083124326       56.31096710403484       43.85184075132889
H           37.68926314770692       59.63355107126964       42.51140557965466
H           37.94784985409591       58.62374319922754       41.08966000342251
H           38.79191243211127       61.23624353441000       41.24442162382172
H           39.77980277577742       60.41682517116003       40.04608560792830
H           41.79109644354734       61.09310574729004       41.61322117686723
H           42.02506558458413       63.20497241224758       40.35954838756528
H           41.36261441268173       61.95432962129004       39.31464685065250
H           40.30088672602328       63.19583088511838       39.98041255758886
H           40.36152581929528       61.83160192384579       43.48472162119312
H           39.59611466940919       63.02871743712852       42.44575531984035
H           43.31445303794808       62.44252207395067       42.53772366248906
H           42.72636123646311       62.12877845955057       44.16915517759854
H           40.11252678471900       59.67963027598690       42.95459220152826
H           41.65242529609500       58.88128750709463       41.09005312395561
H           40.90479513484755       57.59091110964999       42.02475222752135