3536
 energy: -3716.229140345108 gnorm: 0.000952669830 xtb: 6.6.1 (8d0f1dd)
C           55.13257636223052       52.18503198267581       50.64391071350789
C           56.47354902223860       52.37447052838380       49.94195877581227
C           56.31553468975169       52.09269486454131       48.44794286023444
C           57.55872384503825       51.46566787327498       50.53330298841207
C           58.03147815853783       51.80333067411108       51.95325855172092
C           58.51340414008114       53.25165442946783       52.05116687146948
C           59.17296632004859       50.86285235093685       52.37861655347748
C           58.76390395539298       49.43661920942550       52.77037585947272
C           58.08668703687349       49.41994056189191       54.13853857666214
C           59.98946400209526       48.51061347063231       52.83035968047503
C           60.48302330040011       47.98692559272900       51.47826458092446
C           59.52128370736359       46.92802294057574       50.94144346059633
C           61.88212801948509       47.36283297707106       51.60597994033399
C           63.03439800060234       48.34068966755254       51.86236970476396
C           63.20855456641943       49.29772236430635       50.68519043091788
C           64.36236219776281       47.59919215097266       52.08417012785500
C           64.44550109153147       46.68370587280550       53.31384570920792
C           64.09946575215831       47.43817645504618       54.59589987460918
C           65.86073306206293       46.08962004785239       53.40187794213571
C           65.97429652456195       44.83013197235042       54.27655364226111
C           67.42961730303165       44.62120484119428       54.69097045114268
C           65.44655409541258       43.60849396859387       53.51204433173439
C           65.24330388527285       42.32441367314308       54.33495208553452
C           65.58685463080528       41.10842930434025       53.47109718852287
C           63.80616962384471       42.16438471233300       54.85252906758222
C           63.34318863132259       43.20159359856772       55.88004243217598
C           64.17399237762825       43.11721313662195       57.16022596960799
C           61.86707769064142       43.00539814946470       56.25347643902293
C           60.84559008306825       43.14507623683707       55.11854650094197
C           61.08456079320572       44.40526306419416       54.28543070161612
C           59.42204035363323       43.20820547728365       55.68829318257301
C           58.93878263482375       41.99992943964584       56.49694283494754
C           58.99713298268705       40.71963917419772       55.66380077321191
C           57.49182401112382       42.22263995311360       56.96545810443642
C           57.28365865700567       43.33962663208805       57.99875472101716
C           57.83868868486372       42.92969700336605       59.36038018387041
C           55.78654579315479       43.66500186568199       58.08512914649640
C           55.40815714615306       44.85792091710274       58.97127558408449
C           53.88413970741507       44.91905911329945       59.08517878527949
C           55.99133401783521       46.21377525667179       58.53592621912355
C           55.48448394127025       46.80784406088284       57.21158639933616
C           56.38193586945692       46.41524554567432       56.03958242388475
C           55.40459912977654       48.34300679618827       57.30095312657942
C           54.17721445594371       48.86986854011900       58.05375420572182
C           52.90506814002248       48.65439810754685       57.23244600409903
C           54.29152757311039       50.36887896112406       58.37354052992028
C           55.35942449815323       50.81213942090315       59.38952366248556
C           55.24452573706179       50.04018472125912       60.70058538205687
C           55.17307715168820       52.32223380473572       59.61988703025224
C           56.13201190923306       53.01797325010887       60.60128628924832
C           55.52181252753770       54.35779708757780       61.01487686093319
C           57.53069996494887       53.18901424801602       59.99289453725459
C           58.62106651172422       53.63830564796751       60.98329985704879
C           58.82427789415106       55.15480402397110       60.96247261428370
C           59.97472681628125       52.98820667488469       60.65835376518329
C           60.10331824316017       51.48222155095134       60.92085121843543
C           59.97486243425858       51.16764085460460       62.40902228098322
C           61.46509110082236       51.01133735495579       60.38873322294101
C           61.61151118640691       49.49632750429915       60.18444416045600
C           63.09713995093294       49.15009393966815       60.10515395158929
C           60.87797306180241       49.05700981329478       58.91317141252114
C           60.82394491299464       47.54671741254635       58.64364041872324
C           60.19132308621697       47.32947317922863       57.26813591335004
C           60.03576867533781       46.77101985154739       59.71524369984049
C           60.88970087922339       46.09988791512752       60.80007897521115
C           61.66179109819232       44.91613716757558       60.21651428142134
C           60.01727044125405       45.58865922439393       61.95625886375240
C           59.41174801059834       46.66105164906583       62.86917454857591
C           60.48478769383144       47.27551812249771       63.76780825934362
C           58.30718139883093       46.07580753239674       63.76264410258031
C           57.01799214391735       45.63127693610488       63.06287261757737
C           56.29757364382921       46.81594745653218       62.42118018246819
C           56.07210104847498       44.94607125545512       64.06195159591259
C           56.48580513468066       43.54201542139533       64.51805827571785
C           56.46350115661262       42.56218897697467       63.34364127154174
C           55.54285013951721       43.02860442469594       65.61806025507252
C           55.64640753161076       43.70709775192205       66.99277662952996
C           57.05181409880338       43.56167357020836       67.57307348468085
C           54.61296384292201       43.06632700067003       67.93309976457310
C           54.28836362414312       43.86918107634696       69.20464451464898
C           53.75994756071803       42.91616002251422       70.27677106921152
C           53.26354502897993       44.96656996040844       68.89050889343659
C           53.04234309595597       46.00943322701017       69.99910636089399
C           51.70259008220174       46.71500801450892       69.78373930154766
C           54.20069460099566       47.01361284161879       70.02705147404015
C           54.14111003067690       48.07970192048904       71.12788888066143
C           55.32755668653375       49.03315050680141       70.97732597917425
C           54.06557061175308       47.50047637019920       72.54731847129378
C           55.20219982917563       46.55444736664942       72.92857255199490
C           55.06436844333542       46.08515377449427       74.37214247516702
H           55.21847139148928       52.37752366189537       51.71003573568407
H           54.39085116399359       52.86683929199319       50.23220611573393
H           54.77735688830554       51.16604415040753       50.50632034385352
H           54.11959616272100       45.56468277491592       74.51661215360448
H           55.87275297213180       45.40622251682716       74.63461652836315
H           55.09314987976386       46.93226951069045       75.05446889970526
H           54.05539162936267       48.33573143353551       73.25311163748761
H           53.11667436218318       46.97250605159360       72.66749862455633
H           55.14182325413532       46.47023038915651       70.11885265511437
H           54.22531555153920       47.53313465545842       69.06576373698702
H           52.99639512507984       45.49204530886324       70.96020748814250
H           50.90087666622267       45.98639649662880       69.68001675235460
H           51.45903058274262       47.35688887272442       70.62632446113899
H           51.72770804376582       47.32730987191367       68.88448108988902
H           53.57395611443921       45.48841279522036       67.98411293876914
H           52.31046952681449       44.47715624051608       68.67351285147654
H           53.68003210415029       42.90649349948587       67.38651814654669
H           54.98926683791731       42.08191380398921       68.22097086881428
H           53.23351154569198       48.67536531050145       70.98036353522069
H           55.26723438815927       49.56305402805162       70.02865507093212
H           55.32962715069192       49.77115663501279       71.77657059004753
H           56.27083300965207       48.49323436347473       71.00282243940502
H           55.20590419045006       44.33172332696105       69.57877160423695
H           53.50651286725034       43.44682754737144       71.19084485861634
H           52.86751064720063       42.40507484927128       69.92034315260966
H           54.50867726564536       42.16600616742408       70.52258635048598
H           55.41814249129263       44.77178653977937       66.89274511069316
H           57.08284648607975       43.91506216609051       68.60054218285647
H           57.35620401914408       42.51649344007848       67.56445809020178
H           57.77449804935834       44.13884712453052       67.00310581870711
H           54.51523104953620       43.12188802714698       65.25741971309412
H           55.73596914515826       41.96239709226833       65.76385989680264
H           57.50386182667211       43.56818127976992       64.91243696801007
H           56.63589447086355       41.54553795325243       63.68999196261628
H           55.49908062881992       42.59360551925302       62.84191281658730
H           57.23555556163174       42.79794260118713       62.61694247007955
H           55.97507755497377       45.59242783618731       64.93646209823770
H           55.08300507778053       44.86647641295063       63.60226758585245
H           57.26051164417800       44.91924908362066       62.27071030036537
H           55.37517220903117       46.48475051060726       61.94873626235460
H           56.04849595464804       47.56624853762364       63.16747149724691
H           56.91752541871481       47.28008039159500       61.65926805739445
H           58.72902944062480       45.22474479075917       64.30200748226302
H           58.03742534157750       46.83404052060656       64.50209801253534
H           58.98352078946326       47.46148579206484       62.26001151778897
H           60.93051099976164       46.51375131484480       64.40465074993816
H           61.27779470661538       47.73238395538833       63.18241903220064
H           60.05559670920341       48.04407618466651       64.40757034169773
H           59.21560178131858       44.98851003894124       61.52260792532375
H           60.62423604826118       44.92430710201015       62.57638651381275
H           61.61469448761446       46.81748533797573       61.18959481914898
H           62.31549478628964       44.47924497341854       60.96836611140890
H           60.97275278328756       44.14677764175455       59.87288630196110
H           62.27508419348276       45.22312544569708       59.37243387333410
H           59.32177436744882       47.45253968706643       60.18012132152109
H           59.45382835841804       45.98315281350079       59.23003720829011
H           61.84628585137324       47.16374220998561       58.59734101114491
H           60.16667944765967       46.27065018227240       57.01867746553899
H           59.17240624979949       47.71204441538787       57.25809011169267
H           60.75524886310244       47.84845242160306       56.49544928080389
H           59.85129129917030       49.42931676958752       58.94887581924563
H           61.36646126850079       49.53683457739314       58.06017585074670
H           61.17463359004144       48.98215032876629       61.04326368360523
H           63.55973833929417       49.66730586139830       59.26729279514823
H           63.60754292310297       49.45355628179488       61.01694106515242
H           63.24819101984539       48.08228142282529       59.97132024625841
H           61.66407817486282       51.49957421141871       59.43120641702469
H           62.23315870735507       51.34999274982158       61.08805524969662
H           59.30756783270001       50.95513542158611       60.38577613632857
H           58.99383027979676       51.44766901296921       62.78350699559631
H           60.11175197922299       50.10511188720941       62.59223422178322
H           60.72794022858789       51.71220954806204       62.97406352570029
H           60.18928762312250       53.17926120112378       59.60317083268466
H           60.74979977791161       53.49342401900856       61.24064334901167
H           58.32029596323340       53.34770296127731       61.99382708523272
H           59.22766707550792       55.46504065436846       60.00166324795710
H           57.89620158890609       55.69003444461290       61.13049007646015
H           59.53083563871472       55.45214426247130       61.73488849081742
H           57.82289161989324       52.22904087714242       59.56570605020445
H           57.47868544154746       53.90363002870686       59.16946733279108
H           56.22114696315801       52.40533559708684       61.50346804272095
H           56.09710507437877       54.81918657327939       61.81200189482829
H           55.48574760642851       55.04063603164605       60.16792331925620
H           54.50617528502159       54.21721499850633       61.37850227005763
H           55.23598192398596       52.83359211885922       58.65566856714595
H           54.15401248669546       52.46589112626673       59.98923370542897
H           56.35199851355773       50.63113153754949       58.96496568677021
H           54.27872400627214       50.22405066250803       61.16744741294888
H           55.34960630867788       48.97251086721560       60.53522663877729
H           56.02670239836627       50.33829742753989       61.39244118316745
H           54.46925472685195       50.90243828895352       57.43569966650798
H           53.31937181162161       50.69684149963550       58.75339420697926
H           54.06187234059180       48.31470509206112       58.98825308512755
H           52.03436551444774       48.99089763976849       57.79032867739593
H           52.95649446855439       49.21085374093862       56.29851914052674
H           52.76185923256784       47.60354110442167       56.99529195946266
H           56.31469539571600       48.70582315935950       57.78226563269602
H           55.38601732314610       48.76086630168621       56.29175166801596
H           54.48465179716205       46.42073897165549       57.00854540959341
H           57.37647411531619       46.83766140353291       56.16424119243024
H           56.47721377787348       45.33750850925801       55.96179483400074
H           55.96724868593378       46.78507092962929       55.10329461217324
H           55.75810924186724       46.91687926585762       59.33811317392603
H           57.07925732074297       46.14015489856050       58.49669451294987
H           55.79912403337835       44.67126369295910       59.97738197354798
H           53.51623803265628       44.09575770665336       59.69355588134376
H           53.56931232919257       45.85288048949132       59.54461344718296
H           53.41484760036955       44.84320655691882       58.10767234358270
H           55.40062896036871       43.84289223692844       57.07925636582885
H           55.26973093195902       42.78289675559028       58.47296755198359
H           57.81344853254972       44.23427976214317       57.66393817181483
H           57.27629587632981       42.09066476762242       59.76540066171493
H           58.88229712054308       42.63532359019513       59.28095560232628
H           57.77913670239141       43.75617954721244       60.06390641419497
H           56.88459374809527       42.43942370404977       56.08245575382421
H           57.11568789317418       41.29093374961942       57.39562213330576
H           59.57893699208403       41.87029331982016       57.37341991869992
H           58.42086296351400       40.83644302727983       54.74843976702371
H           60.02030242447410       40.47003276981339       55.39668525602120
H           58.58477150402201       39.88307694787048       56.22399733440365
H           59.35833036776960       44.10178492104145       56.31267956657599
H           58.72897132253852       43.34371530572765       54.85578755433370
H           60.92078905806197       42.27988744931498       54.45362213606754
H           61.14949112299154       45.28295576752767       54.92504525030684
H           62.00373892902591       44.32501154154392       53.71208325307406
H           60.26527008889864       44.55492085524902       53.58414093901862
H           61.75816515088005       42.01607600364883       56.70296607371553
H           61.61875332913450       43.74324618849738       57.02168859144813
H           63.45802933142067       44.20162911739233       55.45793835510960
H           64.13598742600972       42.11149922869970       57.57382604824760
H           65.21366893425281       43.37329076553399       56.97849230674215
H           63.78583904848111       43.80424963362034       57.90844842746944
H           63.13658201295716       42.18826800695065       53.99024597771525
H           63.71308590747038       41.17405427695743       55.30739557052782
H           65.92618679383322       42.32496073935392       55.18722253536966
H           64.94880177829192       41.07676665521348       52.59006800679031
H           66.62300946584504       41.15125369396064       53.14245420360165
H           65.44656131159324       40.18498706632811       54.02902605991538
H           64.49834636166419       43.86508134695907       53.03656792264439
H           66.15715119798047       43.40008925575275       52.70817365169997
H           65.38659442513993       44.97698090647365       55.18452863164161
H           67.79274091041817       45.48001543458565       55.25246246101555
H           67.53987856677452       43.74024702537667       55.31855211890967
H           68.05654297831840       44.48831004794522       53.81299289357329
H           66.20905214376494       45.84001457854630       52.39655218739318
H           66.52832865863286       46.86067770531256       53.79326120026311
H           63.73155887142430       45.86507914766693       53.19120833050577
H           64.68430318889409       48.35381606854360       54.66318412079848
H           63.04292926127714       47.69309070101097       54.62227868280885
H           64.31691646865089       46.83226669254233       55.47218912206160
H           64.57614193225382       47.00321558834945       51.19244651893634
H           65.15598487333648       48.34657538954728       52.16959287543878
H           62.81787903235421       48.93647122143757       52.75170779913401
H           63.38552373123237       48.73644803719712       49.77046202993797
H           62.32688221047710       49.91771468461000       50.54581014095923
H           64.06035184967149       49.95182279603536       50.85369154899964
H           61.84265778050418       46.63414186486890       52.41691994286789
H           62.10355635193758       46.81640625875070       50.68475132414887
H           60.51551747497562       48.81078863474298       50.76052547995354
H           59.47225822184738       46.08570538685358       51.62805190374401
H           58.51911812068293       47.33037558662777       50.82099823156899
H           59.85378924022432       46.56198255673681       49.97277154880244
H           60.79220120919748       49.05173448121527       53.33203636113543
H           59.74535694723922       47.64599084178864       53.45270743923570
H           58.05785652100828       49.04870901849111       52.03195389638050
H           58.78044576438420       49.75360202385212       54.90768512162986
H           57.21497167718574       50.06623654539374       54.15724589937219
H           57.76105716745123       48.41288074946436       54.38333901746092
H           59.89914073416701       50.81820732664755       51.56362121039129
H           59.67587907934644       51.30633599132674       53.24048912261289
H           57.19725531602606       51.68022669511333       52.64893640197833
H           58.96733789372739       53.43327864356880       53.02316304165452
H           59.25288029531142       53.46347484969429       51.28166378294916
H           57.68874990420287       53.94916192165591       51.93180167043165
H           57.18908873617440       50.43824719813922       50.51782358866878
H           58.42843857886016       51.50235797355692       49.87349349387082
H           56.78264728472766       53.41790427849119       50.05041030152098
H           56.01541878667761       51.06055128520984       48.28182106598158
H           55.55451151530647       52.74028830801085       48.01914630194547
H           57.25019580064874       52.27060201940092       47.92048184793074
H           55.19683034904757       45.68350240712041       72.27133014313095
H           56.16111508009283       47.06105875672570       72.80930389166541
C           63.55268827654646       52.39105652590379       56.66315875511740
C           63.07368686736243       52.38772722622299       55.21238130148271
C           62.15340096583557       51.19347585088997       54.98138204058603
C           64.28291971297104       52.35770110202757       54.27168216466598
C           63.99373490401726       52.52275500164581       52.77109542230296
C           65.31399883084640       52.35403220706355       52.02147891666223
C           63.34672114536744       53.88379230468394       52.48547405965162
C           63.15676620269650       54.27345694675525       51.00991988991511
C           62.50473176191898       55.65578982011799       50.96726110390247
C           62.32424886806255       53.22523757375443       50.26129777265655
C           61.90000006084269       53.57789014446416       48.82595136590154
C           60.99665468137930       52.46371305888442       48.29662005284394
C           63.11672561502814       53.76776337093401       47.91267756252454
C           62.82179358087183       54.31800547229505       46.50713678469627
C           64.06619151704103       54.14130106197321       45.63878875565130
C           62.40449300520878       55.79108769279777       46.58413231695481
C           62.07420518725920       56.48931248851145       45.25480936640235
C           61.73367101626807       57.94670341305964       45.55750679745152
C           60.92448157029660       55.77834019658115       44.53001207433624
C           60.31666589691903       56.50316728316179       43.31908764034712
C           59.14569404752107       55.66676180038206       42.80402919552409
C           61.34734428483922       56.73401588440719       42.20668179666151
C           60.88581635909651       57.70929951475680       41.11342792100007
C           61.76255479328377       57.54755157794546       39.87144586465781
C           60.92420058661644       59.16917083413181       41.59520862323868
C           59.78110527603402       60.03828765906174       41.04657144926711
C           60.17737775851911       61.51226692976175       41.10943815294724
C           58.50577083592470       59.77168065543098       41.85624692112810
C           57.21093999671373       60.41196709008349       41.33565746683944
C           56.14231414774890       60.29725151202150       42.42258164077446
C           56.74628100860777       59.75103250536144       40.03260410098554
C           55.63755448489066       60.50154283162333       39.27786068821104
C           55.05559213637795       59.57905109463110       38.20604400637971
C           56.16868049817011       61.80458517596585       38.65301031099749
C           55.26059022879714       63.04092401783205       38.77521169543501
C           55.06258893808906       63.44521319394160       40.23539274271626
C           53.92361523626518       62.84393301585803       38.05041701874203
C           53.12138064552177       64.13237094891507       37.81855236414993
C           51.68722214225259       63.77986899983761       37.42616637614009
C           53.75779013650598       65.01871852478789       36.73800627824492
C           53.48664851600936       66.51483023624849       36.94641886371530
C           53.86336922134416       67.28691748018005       35.68259264793404
C           54.25290590179967       67.04910359993140       38.17309717430747
C           53.36333031348946       67.72474835969567       39.22732813489837
C           52.87553477921925       69.07775064242098       38.71569034051579
C           54.14636160180321       67.86752888192072       40.53863743063999
C           53.34564299181073       68.34946373393670       41.75580949335503
C           54.30690606052387       68.53819433226928       42.93095662589014
C           52.21701819019748       67.37637713486649       42.14377792595263
C           50.81373138108710       67.82548341647541       41.71545512630431
C           50.33523270440774       68.98173116411539       42.59343608182799
C           49.81268678040831       66.66626199648977       41.81436543983538
C           49.87984851733638       65.65559924874431       40.66216353622782
C           49.20579664501683       66.22535857542769       39.41441980695890
C           49.19619005748935       64.33785164748849       41.05480709165385
C           49.99015192505281       63.46838055750336       42.03688354926375
C           51.20749121915837       62.84057864946657       41.36106785945613
C           49.10492191456489       62.36431956174856       42.63671572043024
C           49.52837753257572       61.97249269714189       44.05943302663835
C           48.96380694419430       60.59824061364063       44.40907546339272
C           49.05280888329194       63.02522362228001       45.07797467436441
C           50.07539023085945       63.43234235618640       46.14548364940072
C           50.64115924453699       62.22471057303542       46.89168885114364
C           49.43526778670219       64.37746488190108       47.17453758408069
C           48.87073102405503       65.70128837223012       46.64045379990832
C           49.97981533721154       66.58057939007607       46.07027629382105
C           48.13190323739403       66.41984377844987       47.77862557398197
C           47.19454169828398       67.55552637055725       47.34296603081545
C           46.77900847844930       68.34873267328399       48.58276537476366
C           45.96294101628615       67.01904551014266       46.59009886632219
C           45.60530122268050       67.80009255474872       45.31861436784838
C           45.01865412275356       69.17069664896555       45.64916567893868
C           44.62099047330345       66.99093096148097       44.45671925506124
C           45.31256262304363       66.03398157779796       43.47709786987156
C           45.83462161512745       66.81152693889740       42.26872671421263
C           44.35697690772674       64.94048576962885       42.98050910063287
C           43.98834358516825       63.85633112568935       43.99883171010127
C           45.20826486090856       63.02315560418971       44.39088890126315
C           42.91092823943040       62.91730351479968       43.43456873450732
C           41.56484894450918       63.56503425554410       43.09158042798928
C           40.99619260125055       64.33020005905094       44.28740563873371
C           40.53853629535900       62.51149519130465       42.64877866671059
C           40.89069861522223       61.67878365718874       41.40870842235068
C           41.16176107052482       62.56543374423610       40.19444693557826
C           39.73714050123413       60.70886011400692       41.10035472652153
C           39.75224803778087       59.43116600713157       41.95337793001032
C           40.70570485647028       58.40894275038071       41.33878584842503
C           38.33524910654548       58.86181163052380       42.08515811164926
C           38.25661047613310       57.61880880654701       42.96929066109931
C           36.81418403390926       57.20057176319705       43.22674021944837
H           62.70518041422640       52.44135029644325       57.34400649488490
H           64.11278166912471       51.48270089463647       56.87757392441718
H           64.19881632990356       53.24319741957452       56.86074724507142
H           36.26822245906240       57.99494066436327       43.73136776639462
H           36.30784520282889       56.98126786003079       42.28913451690362
H           36.77866580297850       56.31139094456050       43.85241252939294
H           37.68897259450605       59.63298589789139       42.51258435849105
H           37.94956103112978       58.62346663896819       41.09080367286448
H           38.79244522558798       61.23706846713965       41.24716434132741
H           39.77988610914713       60.41675702230800       40.04873161245053
H           41.79126732043060       61.09291556904632       41.61539567898184
H           42.02442307331567       63.20541042719925       40.36055030284338
H           41.36204979956465       61.95412998699686       39.31645763279551
H           40.29988783648444       63.19488959747058       39.98311781146435
H           40.36120333077989       61.83262699184688       43.48646467569944
H           39.59687614489759       63.02937754523377       42.44606195111524
H           43.31460910150461       62.44298779340132       42.53785374725857
H           42.72698456653760       62.12922247658035       44.16926407267265
H           40.11219871423140       59.68009488789526       42.95736852106064
H           41.65245475136187       58.88289730577110       41.09229610478636
H           40.90558826023469       57.59189349695738       42.02701083810375