3258
 energy: -3427.566111007247 gnorm: 0.000678962319 xtb: 6.6.1 (8d0f1dd)
C          102.99422036109864      114.78260989139102       94.87220675940883
C          103.37906380059333      115.07336008659873       96.31633016550987
C          102.17700733636033      115.47154159202681       97.16836156987537
C          102.58568386076537      115.84484755255043       98.59054124363949
C          101.38617496102209      116.17352184559800       99.47534423456366
C          101.81228182867157      116.63313879247625      100.86704004717151
C          100.62067704708792      116.87570060383699      101.78983602038755
C          101.05182321837813      117.41482729160880      103.15121732374378
C           99.87543534558770      117.58168783253036      104.10993367298985
C          100.30335104202757      118.19831653892480      105.43919403706555
C           99.14308544990122      118.32284072242604      106.42393674351163
C           99.56422716143062      119.00954369784897      107.72079024628256
C           98.41030928439454      119.14515733504255      108.71170618121319
C           98.83278739745649      119.87718178649426      109.98345565464997
C           97.67645323780093      120.06969044947314      110.96278282533844
C           98.10932003258857      120.84402914403961      112.20583755895650
C           96.96876209734269      121.05674348796198      113.19989340622310
C           97.44083781117845      121.81634300007816      114.43772456433845
C           96.33743416047720      122.03061870852797      115.47299562642409
C           96.88299094675186      122.72189840684052      116.72087619693750
C           95.84193192182771      122.91835732955364      117.82183731788527
C           96.48504176213302      123.49892107268005      119.08094424116939
C           95.51194876010443      123.65811418709080      120.24812747775496
C           96.22696942043049      123.82089386397536      121.59235429870694
C           97.09817565202827      125.07361610284805      121.66962267990986
C           97.70351480549782      125.30117186489734      123.05773208882107
C           98.78102596291110      124.29361072423259      123.46815545009707
C          100.06933059802543      124.42329066995393      122.65794887767093
C          101.15301031217162      123.45384734316355      123.12734816113583
C          102.42528831919456      123.55609549852048      122.28673341762328
C          103.43671673261093      122.46985550377542      122.64434915376064
C          104.66993024844039      122.45577382951217      121.73900742963249
C          104.35915705314864      122.02466111854319      120.30837911624251
C          105.61512334069408      121.74008367428289      119.48735445035450
C          105.26021962510335      121.26712437097787      118.08060693874089
C          106.47883022392385      120.92337717240105      117.22812303292935
C          106.05706590414215      120.42912888958446      115.84656954130804
C          107.23250263925947      120.02266274754224      114.96084641182226
C          106.74600941625584      119.41248138782713      113.64809229308923
C          107.87960071619366      118.92751059735104      112.74844164605308
C          107.34469159884227      118.25625326669503      111.48562212558014
C          108.45005317637107      117.67131412401226      110.61023869495020
C          107.88663768785345      116.97857530533773      109.37206500879934
C          108.96820626176010      116.31893081886859      108.52083667267395
C          108.38248613933942      115.61146371614180      107.30147231856816
C          109.44520777499059      114.89180044037005      106.47680839226072
C          108.85137159743785      114.15074713697096      105.28130558097916
C          109.91763836157872      113.39774979908459      104.49259467770636
C          109.34564203082397      112.57885185549219      103.33832284998390
C          110.44971987239161      111.88202920618114      102.54708513627203
C          109.90814828369977      110.93481013777736      101.47687164903208
C          110.97154856171763      110.51319787025918      100.46148415384167
C          112.14334237587177      109.74427203223182      101.06944504532785
C          113.26682040696970      109.53347326241689      100.05446075680894
C          114.60770919227893      109.14845617720654      100.68107420660226
C          114.64748043906783      107.76205347579942      101.32258782793097
C          114.63418611211785      106.63636329629418      100.29100670103041
C          114.91827923677914      105.25759004781456      100.88622540182877
C          113.85473214578219      104.80764982944163      101.88397980186024
C          114.05156840385281      103.35811656089949      102.32174110186517
C          113.12375638883577      102.95083480384744      103.46551950739857
C          111.64903479027173      102.95235200918239      103.07432256711716
C          110.71688867707852      102.49977557680498      104.19840742058602
C          110.79856848172219      103.39805112325961      105.42946125024169
C          109.64222186374714      103.20011025877201      106.40527264103783
C          109.75939562129759      104.17405825401947      107.57370103909405
C          108.60656848935399      104.07824049838187      108.56997582868249
C          108.55191064333870      105.28430365570829      109.50831371171255
C          109.74900591107942      105.38638595938976      110.45078668896537
C          109.74683345684035      106.70312817786915      111.22371847408610
C          110.90755722125361      106.83370870943187      112.21077572908142
C          112.27747641812564      106.83193147585733      111.53489253953285
C          113.40000116959935      107.19467020321778      112.50471502719779
C          114.77849643837349      107.17275229366402      111.84257777258237
C          115.34287607259051      105.76760061779505      111.64482818055045
C          116.60415535841049      105.79104258258573      110.78612706030847
C          117.26125289493096      104.42039500255552      110.65115202123015
C          118.42464807851245      104.44793035510682      109.66338666292391
C          119.16744811954986      103.11556886230855      109.62231195050057
C          120.24404941149068      103.03671868386509      108.53746289979115
C          121.26642467277404      104.17410390293502      108.56148556361542
C          121.97644583432906      104.33420918665185      109.90338342899595
C          122.96802567469715      105.49492511940102      109.87298062286769
C          123.51530616289742      105.87380692033942      111.25079094270976
C          122.45776539746025      106.34153998096582      112.25658639777966
C          121.58351718322253      107.47367922223087      111.72198982360362
C          120.72514766747685      108.14302086909765      112.79405090594210
C          119.72806662713242      107.19731684582437      113.46504374945675
C          118.61270476893921      107.97225321389676      114.16455456907570
C          117.66075356689018      107.08881120936337      114.97198766981482
C          118.16005237161212      106.79831625176114      116.38455623717495
C          117.13892229462161      105.99505170142814      117.18459760164417
C          117.58297946710351      105.76929119629084      118.62726142930850
C          116.50364702174936      105.12902845533790      119.50371352256867
C          115.92037571346134      103.82073466112817      118.96768040362817
C          116.95693722654011      102.70698819077019      118.83683841579514
C          116.43683657743075      101.47644986539872      118.09342179407037
C          115.34826626100275      100.73096388953822      118.85871963129854
C          114.75039128557145       99.56178015163968      118.07751476503388
C          114.06273344583794      100.01458111872059      116.78709928257499
C          112.92956235354103       99.09344250192147      116.34103351131982
C          113.40802297786929       97.70150091198933      115.94511863485621
C          112.25909975848911       96.74505473168001      115.62846711555255
C          111.51284413743387       97.08108525996936      114.34011352360062
C          110.39975592663741       96.07312478318613      114.06741757345776
C          109.70723759333950       96.30982280949493      112.72893727229155
C          108.56848995195799       95.31953482492337      112.49802320787835
C          107.97414953586375       95.44272779596555      111.09826723912280
C          106.80044491270408       94.48996592813135      110.88542118254691
C          106.36649798326509       94.38878841873824      109.42318648421769
C          105.88027001383406       95.71461598065906      108.84381283111998
C          105.23748168100066       95.53412036058948      107.47153299515639
C          104.76481794209315       96.85952783079749      106.88148266978872
C          104.01927453717497       96.67624478837044      105.56217184227998
C          103.50088660900350       98.00492531829657      105.02047530526043
C          102.76746250792924       97.85585294345339      103.69031144115937
C          102.13382722525652       99.16975642508901      103.23861612039974
C          101.47507995312888       99.05609986687314      101.86666164129680
C          100.79003169341202      100.35465530357132      101.44702718001251
C          100.11179457461458      100.22949480857767      100.08843160834040
H          100.04531431128018      100.62733245775362      102.19905539851864
H          101.52980241561035      101.15691140569594      101.41006536378163
H          102.23210358970445       98.78965641798663      101.12446249804427
H          100.73701326626279       98.24993641042875      101.88689115815417
H          101.38324185521266       99.47734399656261      103.97162076133816
H          102.89933216033498       99.94888265677096      103.20740070552790
H          103.46860419320645       97.51082657327738      102.92641589515361
H          101.98697127035213       97.09616601081650      103.78695951012683
H          102.82577406756089       98.44832746648187      105.75628797802484
H          104.34161970821580       98.68800561134469      104.89036295796565
H          104.68476638071314       96.21684534404937      104.82789646654200
H          103.17774102519290       95.99402090434617      105.71371648789437
H          104.10760804353212       97.35836751125723      107.59751508283300
H          105.62626506938973       97.51164387217777      106.72108092468072
H          105.95508427655034       95.06905127612769      106.79209940411349
H          104.38553084871677       94.85407831272624      107.56129436549300
H          105.14964447754046       96.15599462805648      109.52375283912563
H          106.71794731358547       96.40820300126485      108.75964078198186
H          107.20136091637451       94.01685479870363      108.82358058680808
H          105.55918286416303       93.65445582585596      109.35036408597955
H          107.08633310771341       93.49274222114816      111.23182980600423
H          105.95286379779597       94.81650399804663      111.49349067003789
H          107.64475951968043       96.47055597275539      110.93974274830967
H          108.75039140273591       95.22371442404864      110.36128069255960
H          108.94237480877884       94.30165174874740      112.64103136512459
H          107.78592887825874       95.48447572717792      113.24365888668812
H          109.31663888273781       97.32922734603049      112.69263312783664
H          110.44017369846833       96.21089516147505      111.92413187203506
H          110.81806757174732       95.06229047136365      114.07835740909749
H          109.66134086655671       96.12404314848715      114.87251287250068
H          111.07954777339719       98.08023415177767      114.40863315586920
H          112.21784933858797       97.07780378692829      113.50501577351019
H          112.65720237048482       95.72920232786744      115.54534598313953
H          111.55296195509331       96.74425907816662      116.46336227000950
H          114.06828323152466       97.77674911292054      115.07912063742600
H          113.98755616528992       97.28004491433319      116.76981199883136
H          112.20742163249770       99.00282768813524      117.15400459667927
H          112.41911910589815       99.55503669251287      115.49298191533299
H          113.64108084258071      101.00964692294806      116.95264528568056
H          114.79792384587701      100.09520273100688      115.98339275071618
H          115.53477774816187       98.83658126074218      117.84948460683840
H          114.01471610286984       99.06782295822183      118.71769570238986
H          115.76301495338429      100.36081418665329      119.79950724839611
H          114.54258048633751      101.42484993418357      119.10285527918656
H          116.04791766995733      101.79375291038943      117.12347432823364
H          117.26974816220363      100.79148508968726      117.90756206231549
H          117.81828897832806      103.09235716268550      118.28817332480233
H          117.29926118094897      102.41611830107368      119.83185245633447
H          115.13041331863116      103.50536078280537      119.65322822601293
H          115.45532965079786      103.99979531184435      117.99663818675421
H          116.92529103262504      104.94854066301690      120.49592835050936
H          115.68332671316831      105.84201806048983      119.62306912810203
H          118.48752014032056      105.15627217664475      118.63524546966124
H          117.84687918782350      106.73451345407562      119.06973263985155
H          116.18590136362289      106.52954732497777      117.18273602036150
H          116.98526362227595      105.03519603207322      116.68883400967725
H          119.10338624285838      106.25025336428365      116.34350108742672
H          118.35463715743900      107.74482456738708      116.89641774209963
H          116.69444894699714      107.59277882926914      115.05021328641872
H          117.49782185550100      106.14859772585241      114.44028724748266
H          119.05286218733279      108.72379796605050      114.82535060839855
H          118.03784177873602      108.50468888424541      113.40421415173562
H          119.28350415687608      106.54498266878450      112.70879798457273
H          120.24853359418263      106.56339015653829      114.18459114869376
H          121.36995327421184      108.59029387485914      113.55486359878667
H          120.17087079356362      108.95801298475821      112.31973361872672
H          122.22636085059904      108.23216223795400      111.26860570681613
H          120.92457137961202      107.08811807505253      110.94163434304242
H          121.82915457216946      105.49956574371399      112.54967601743880
H          122.97562376086721      106.68552058630932      113.15633491950632
H          124.04500627222698      105.01600671454733      111.67439733481136
H          124.24780155609214      106.67516635718623      111.11639003097889
H          123.80952362651091      105.23188617128470      109.22533549656620
H          122.48252928042942      106.36604480886636      109.42995130040109
H          121.23452611112407      104.52119144324814      110.67785183545908
H          122.49819492226955      103.40852099635575      110.15961204771600
H          122.01054079955975      103.98859769993440      107.78167293657044
H          120.76721310209363      105.11294778335092      108.31136900714620
H          120.76959266664635      102.08318307562541      108.64218420224977
H          119.75838442683215      103.03520115620135      107.55907760521505
H          119.61893217026679      102.92871967582421      110.59906793727338
H          118.44361944024556      102.31571085804909      109.44250193535603
H          118.04712584147769      104.68533232406587      108.66585396821495
H          119.11060779743502      105.24578376808407      109.95441724007031
H          117.62533516609228      104.09160635882895      111.62766414496731
H          116.52172239604594      103.68892242802745      110.31539988876141
H          116.35054085898575      106.16099684270975      109.78969224961808
H          117.31993971391415      106.49376986620086      111.22013456514102
H          115.57332173539348      105.33313749274876      112.62085037326435
H          114.59652863037671      105.12920744434058      111.16836938852047
H          114.71007579645821      107.67010578722184      110.87138243201927
H          115.48283684776347      107.74237010874576      112.45476626897657
H          113.21007092938254      108.19832787228025      112.89431227032982
H          113.39337319380668      106.50456667744425      113.35137662365915
H          112.47429940478359      105.84775016951660      111.10829296727189
H          112.27109001826265      107.55371876139077      110.71457088955744
H          110.78969083049982      107.76981746072576      112.76391641474856
H          110.85945690916289      106.01826454795449      112.93752550978780
H          109.79052764180756      107.53131167922602      110.51107007790236
H          108.80485879852748      106.79361467808400      111.76987008927198
H          109.73202073297037      104.54921972396863      111.15373142367399
H          110.66896557181569      105.31898227785416      109.87044981140090
H          108.49402667226573      106.19356025228936      108.90464158963354
H          107.63653529194302      105.23336088027085      110.10250645651124
H          107.66556576493093      104.02731556152702      108.01544215440803
H          108.69530988082037      103.15831686807527      109.15400469931862
H          110.70643561398767      103.98871912750096      108.08455717673482
H          109.79216771108294      105.19195198296548      107.17547480357142
H          108.69226053107974      103.36175791552994      105.88870109558415
H          109.64776914255597      102.17253335855821      106.77875093367808
H          111.73211621208689      103.20534165082499      105.96000888157401
H          110.80787595978541      104.44313627891445      105.10721258763387
H          109.69104083030724      102.51337098401355      103.81817137037493
H          110.94954848973607      101.47147167091896      104.48120555180948
H          111.35554309556620      103.95786003297984      102.76958280817249
H          111.51196943134029      102.29129809404067      102.21543955533497
H          113.39742262036378      101.95079358049500      103.80706369664959
H          113.28414135477325      103.64047085758868      104.29539603091247
H          113.89768700825130      102.69493034388290      101.46639883791522
H          115.08701779978419      103.22803777826041      102.65034885198527
H          113.88557922791711      105.44983765244513      102.76667574750935
H          112.87217812211216      104.92118698387254      101.42085730595754
H          114.96632684095869      104.52964386551920      100.07092870432392
H          115.89535231768858      105.26633922086276      101.37717543858967
H          113.66706916687808      106.61100996428250       99.78515528766917
H          115.39306675690763      106.85089563882291       99.53332869166087
H          115.56446517577635      107.68181081450861      101.91408707730864
H          113.80690306231983      107.65475237759840      102.00833147936201
H          115.37857904942901      109.19506615375781       99.90706633944401
H          114.86400176303081      109.89475510416058      101.43690443320656
H          112.96849486638314      108.78524707598443       99.31872067361812
H          113.41721293745347      110.47417311780075       99.51613669379833
H          112.53995554588387      110.31219786332655      101.91136436465848
H          111.78878561081429      108.78473552580687      101.45141919371930
H          110.50437944202230      109.90024698393748       99.68508216401185
H          111.35588189538969      111.41282577005923       99.97651089924844
H          109.48572276152048      110.04900828806880      101.95774994216401
H          109.10008309745722      111.43590837163940      100.93590171683508
H          111.07545267626350      112.64104699833169      102.07144388750932
H          111.07592041935555      111.32286844593122      103.24398030685155
H          108.65681478149381      111.82782972115157      103.73523377828191
H          108.77457801979934      113.23096090084557      102.67330550934940
H          110.64450046266492      114.11216435834405      104.09927714334610
H          110.45020853862424      112.72813236907726      105.17158817532993
H          108.09931676636900      113.44025400180263      105.63645801077253
H          108.34515410318186      114.86213905357754      104.62576526916476
H          110.18094511133540      115.61720309308743      106.12137767996539
H          109.97308200743524      114.17927428525364      107.11520837279005
H          107.63664960592328      114.88404518632530      107.63490349557954
H          107.86754534235969      116.34043784558683      106.67261499708914
H          109.68371811206971      117.07632583669789      108.19082962814142
H          109.51824058184702      115.59699657690805      109.12942511709271
H          107.16760919837630      116.21677818872939      109.68671635551813
H          107.34416119966801      117.70747119841636      108.76623758510480
H          109.13170949404078      118.46839081308362      110.30235704364283
H          109.03417640291362      116.95481839518060      111.19306548466844
H          106.66023188373981      117.45409137744701      111.77522655584042
H          106.76966760516468      118.98246964922842      110.90646240644257
H          108.51837774476034      119.77092130216531      112.47429062728934
H          108.50246502129917      118.21831274322379      113.29883785586433
H          106.09473189612632      118.56499587366957      113.87793542823266
H          106.14507860440551      120.14900472939354      113.10856714264307
H          107.85942707595196      120.89418200068515      114.75439121600664
H          107.85209598515584      119.29670917665776      115.49276980990574
H          105.39641737424671      119.56599943437551      115.97049527613943
H          105.47834329626058      121.20977403400390      115.34555485809338
H          107.11816543177180      121.80350338645439      117.12736873263043
H          107.06437280345348      120.14762797902485      117.72710741660929
H          104.62660921524454      120.38018929160866      118.15956647741507
H          104.67465518190313      122.04064929791403      117.57672806916764
H          106.22885187934304      122.64203288403050      119.42810686823671
H          106.20707364020947      120.97011397036491      119.98700465526356
H          103.75041200956338      121.11848322719590      120.34328797481359
H          103.77668612468619      122.79941190037941      119.80847081991553
H          105.13053327132742      123.44668878941587      121.73687915282336
H          105.39524785128063      121.75116996621043      122.15595497233600
H          103.75529828005415      122.61265162514611      123.68035804321173
H          102.94486391424655      121.49523575177442      122.58303825623663
H          102.15961621932273      123.46668249010114      121.23252662857871
H          102.87969036544509      124.53955720601763      122.43215363289869
H          101.38971901510770      123.64912825709828      124.17659455286083
H          100.76802368810814      122.43253825850171      123.06527667956733
H           99.85281933557185      124.22506573048496      121.60652550137641
H          100.44206682192176      125.44818316054597      122.73367439370394
H           99.01400578345365      124.45248465500755      124.52473903595870
H           98.39136354785281      123.27854039881828      123.37166226469445
H           98.13957367575091      126.30331211816518      123.08803512373954
H           96.89872289977339      125.27281636616790      123.79733414322516
H           97.89682038116334      125.01392443813995      120.93088943933684
H           96.48262407342722      125.94139597880796      121.41798046071521
H           95.47569219608569      123.86423245683537      122.38571234831721
H           96.84205938751128      122.93676419749454      121.76824272307586
H           94.85908393530826      124.51610851928504      120.07121686204151
H           94.87677159399024      122.76964234987092      120.30373548157637
H           97.29248842872423      122.83422241393070      119.39402089459999
H           96.92747566098097      124.46702006599173      118.83839924349881
H           95.04876849019551      123.58212255827583      117.46950951698794
H           95.38392874101854      121.95491315525847      118.06081460265187
H           97.70205626735437      122.11788493625274      117.11852556458825
H           97.29515323228343      123.69519894759388      116.44152192916671
H           95.53468612443848      122.63116651970748      115.03824196212800
H           95.91139874725296      121.06390633576856      115.75295422469736
H           98.25859949977250      121.25953782093049      114.90091589652646
H           97.83576680034230      122.78902803161235      114.13242266901210
H           96.16043963869049      121.61102771935033      112.71605112282431
H           96.56709539058195      120.08650620088119      113.50245567529136
H           98.91859877901605      120.30243693513323      112.70007139130360
H           98.50215364128489      121.81790655883216      111.90130497271245
H           96.86529771402986      120.60766753720385      110.46490275166461
H           97.28772125495419      119.09299595243425      111.26132798810201
H           99.62982956552578      119.31438436273453      110.47389168815410
H           99.23615623209629      120.85701582675377      109.71311145252349
H           97.58935433433399      119.68949823682898      108.23707631275599
H           98.03807347461792      118.15135769708500      108.97193758266522
H          100.37118711633738      118.43796737887460      108.18420950780185
H           99.95428887795519      120.00443265223319      107.48833862008401
H           98.33418964978729      118.89342958297755      105.95941927868903
H           98.75441773990316      117.32745141790961      106.65155573775323
H          101.08725948566939      117.58135386427364      105.88414942277186
H          100.72643431038168      119.18976302602287      105.25500692740192
H           99.11553270861674      118.21582133066354      103.64507150589361
H           99.42060247399552      116.60568197821287      104.29465791157500
H          101.77859334607659      116.72917010667194      103.59299039508447
H          101.54657387974561      118.38039456230509      103.01550059285231
H           99.93543258719519      117.58617284785463      101.31937424789740
H          100.07717678002706      115.93825406971412      101.92896397948140
H          102.45907953191859      115.87282909624091      101.31152205528298
H          102.39469958984942      117.55402325494956      100.77941010771404
H          100.78952309556298      116.95806779322827       99.00182918250401
H          100.75222939590540      115.28843682146325       99.56596137845972
H          103.13903596723564      115.01290378031700       99.03357682642131
H          103.25572815754985      116.70743342232335       98.55688775352196
H          101.66908548830546      116.32086131859162       96.70314243380481
H          101.46709446881395      114.64194393708212       97.20151763309639
H          103.84639747563750      114.18570932005662       96.74969366163312
H          104.11544417709126      115.87887798528797       96.33735774778340
H          102.25914412169644      113.98252176297247       94.82794035154922
H          102.56507533824586      115.66654869681994       94.40402559413563
H          103.86704503593748      114.47968223536567       94.29750703784542
H          100.83691101005732       99.96840008525601       99.32085887324172
H           99.34757766360876       99.45519301676990      100.11195311052039
H           99.63989706495656      101.16840156917948       99.80761950019016
C          119.58246828118287      103.63225551626120      100.93988943845618
C          119.24164236330571      104.99986428493229      101.51515638531490
C          118.74830071579360      104.90844206723622      102.95613059132926
C          118.41637098590415      106.27955575539634      103.53611564416509
C          118.07904337866813      106.22862063992888      105.02366908159051
C          117.92330506587587      107.62844032332409      105.61067249542717
C          117.69895156205973      107.62021642229419      107.11940139443929
C          117.63207272130802      109.03604237834584      107.68581509907172
C          117.43306873651883      109.04907750236700      109.19724547391836
C          117.39671225497895      110.46078973995789      109.77500398088441
C          117.24882634385570      110.43748913635372      111.29266134607045
C          117.21386368723989      111.82995922628363      111.91251897839982
C          117.11125319430339      111.77639370535843      113.43455762246890
C          117.08825472782338      113.16899489966278      114.05737836110133
C          117.00026034966541      113.12547432753762      115.57991594550553
C          117.01824946555304      114.52160047042800      116.19486611227879
C          117.00642903739930      114.50248404011433      117.72130784720548
C          117.06280984330411      115.91401501417764      118.29758481132578
C          117.16953853982179      115.93420884333194      119.81930802161223
C          117.13314959649756      117.36205048559586      120.35878435347858
C          117.30148265826351      117.42642272067248      121.87289591206324