      -----------------------------------------------------------      
     |                   =====================                   |     
     |                           x T B                           |     
     |                   =====================                   |     
     |                         S. Grimme                         |     
     |          Mulliken Center for Theoretical Chemistry        |     
     |                    University of Bonn                     |     
      -----------------------------------------------------------      

   * xtb version 6.6.1 (8d0f1dd) compiled by 'stahn@M-Bot' on 2023-08-01

   xtb is free software: you can redistribute it and/or modify it under
   the terms of the GNU Lesser General Public License as published by
   the Free Software Foundation, either version 3 of the License, or
   (at your option) any later version.
   
   xtb is distributed in the hope that it will be useful,
   but WITHOUT ANY WARRANTY; without even the implied warranty of
   MERCHANTABILITY or FITNESS FOR A PARTICULAR PURPOSE.  See the
   GNU Lesser General Public License for more details.
   
   Cite this work as:
   * C. Bannwarth, E. Caldeweyher, S. Ehlert, A. Hansen, P. Pracht,
     J. Seibert, S. Spicher, S. Grimme, WIREs Comput. Mol. Sci., 2020, 11,
     e01493. DOI: 10.1002/wcms.1493
   
   for GFN2-xTB:
   * C. Bannwarth, S. Ehlert and S. Grimme., J. Chem. Theory Comput., 2019,
     15, 1652-1671. DOI: 10.1021/acs.jctc.8b01176
   for GFN1-xTB:
   * S. Grimme, C. Bannwarth, P. Shushkov, J. Chem. Theory Comput., 2017,
     13, 1989-2009. DOI: 10.1021/acs.jctc.7b00118
   for GFN0-xTB:
   * P. Pracht, E. Caldeweyher, S. Ehlert, S. Grimme, ChemRxiv, 2019, preprint.
     DOI: 10.26434/chemrxiv.8326202.v1
   for GFN-FF:
   * S. Spicher and S. Grimme, Angew. Chem. Int. Ed., 2020, 59, 15665-15673.
     DOI: 10.1002/anie.202004239
   
   for ALPB and GBSA implicit solvation:
   * S. Ehlert, M. Stahn, S. Spicher, S. Grimme, J. Chem. Theory Comput.,
     2021, 17, 4250-4261. DOI: 10.1021/acs.jctc.1c00471
   
   for DFT-D4:
   * E. Caldeweyher, C. Bannwarth and S. Grimme, J. Chem. Phys., 2017,
     147, 034112. DOI: 10.1063/1.4993215
   * E. Caldeweyher, S. Ehlert, A. Hansen, H. Neugebauer, S. Spicher,
     C. Bannwarth and S. Grimme, J. Chem. Phys., 2019, 150, 154122.
     DOI: 10.1063/1.5090222
   * E. Caldeweyher, J.-M. Mewes, S. Ehlert and S. Grimme, Phys. Chem. Chem. Phys.
     2020, 22, 8499-8512. DOI: 10.1039/D0CP00502A
   
   for sTDA-xTB:
   * S. Grimme and C. Bannwarth, J. Chem. Phys., 2016, 145, 054103.
     DOI: 10.1063/1.4959605
   
   in the mass-spec context:
   * V. Asgeirsson, C. Bauer and S. Grimme, Chem. Sci., 2017, 8, 4879.
     DOI: 10.1039/c7sc00601b
   * J. Koopman and S. Grimme, ACS Omega 2019, 4, 12, 15120-15133.
     DOI: 10.1021/acsomega.9b02011
   
   for metadynamics refer to:
   * S. Grimme, J. Chem. Theory Comput., 2019, 155, 2847-2862
     DOI: 10.1021/acs.jctc.9b00143
   
   for SPH calculations refer to:
   * S. Spicher and S. Grimme, J. Chem. Theory Comput., 2021, 17, 1701-1714
     DOI: 10.1021/acs.jctc.0c01306
   
   with help from (in alphabetical order)
   P. Atkinson, C. Bannwarth, F. Bohle, G. Brandenburg, E. Caldeweyher
   M. Checinski, S. Dohm, S. Ehlert, S. Ehrlich, I. Gerasimov, C. Hölzer
   A. Katbashev, J. Koopman, C. Lavigne, S. Lehtola, F. März, M. Müller,
   F. Musil, H. Neugebauer, J. Pisarek, C. Plett, P. Pracht, F. Pultar,
   J. Seibert, P. Shushkov, S. Spicher, M. Stahn, M. Steiner, T. Strunk,
   J. Stückrath, T. Rose, and J. Unsleber
   
 * started run on 2024/10/04 at 08:06:19.203     

           -------------------------------------------------
          |                Calculation Setup                |
           -------------------------------------------------

          program call               : /home/abt-grimme/AK-bin/xtb input.xyz --input input.inp --opt
          hostname                   : boar079.thch.uni-bonn.de
          coordinate file            : input.xyz
          omp threads                :                     8

   ID    Z sym.   atoms
    1    6 C      1-120, 363-482, 725-844, 1087-1206, 1449-1568, 1811-1930,
                  2173-2292, 2535-2654, 2897-3016
    2    1 H      121-362, 483-724, 845-1086, 1207-1448, 1569-1810,
                  1931-2172, 2293-2534, 2655-2896, 3017-3258

molecular fragmentation (1/2 indicates fragments):
111111111111111111111111111111111111111111111111111111111111111111111111
111111111111111111111111111111111111111111111111111111111111111111111111
111111111111111111111111111111111111111111111111111111111111111111111111
111111111111111111111111111111111111111111111111111111111111111111111111
111111111111111111111111111111111111111111111111111111111111111111111111
112222222222222222222222222222222222222222222222222222222222222222222222
222222222222222222222222222222222222222222222222222222222222222222222222
222222222222222222222222222222222222222222222222222222222222222222222222
222222222222222222222222222222222222222222222222222222222222222222222222
222222222222222222222222222222222222222222222222222222222222222222222222
222222222222222222222222222222222222222222222222222222222222222222222222
222222222222222222222222222222222222222222222222222222222222222222222222
222222222222222222222222222222222222222222222222222222222222222222222222
222222222222222222222222222222222222222222222222222222222222222222222222
222222222222222222222222222222222222222222222222222222222222222222222222
222222222222222222222222222222222222222222222222222222222222222222222222
222222222222222222222222222222222222222222222222222222222222222222222222
222222222222222222222222222222222222222222222222222222222222222222222222
222222222222222222222222222222222222222222222222222222222222222222222222
222222222222222222222222222222222222222222222222222222222222222222222222
222222222222222222222222222222222222222222222222222222222222222222222222
222222222222222222222222222222222222222222222222222222222222222222222222
222222222222222222222222222222222222222222222222222222222222222222222222
222222222222222222222222222222222222222222222222222222222222222222222222
222222222222222222222222222222222222222222222222222222222222222222222222
222222222222222222222222222222222222222222222222222222222222222222222222
222222222222222222222222222222222222222222222222222222222222222222222222
222222222222222222222222222222222222222222222222222222222222222222222222
222222222222222222222222222222222222222222222222222222222222222222222222
222222222222222222222222222222222222222222222222222222222222222222222222
222222222222222222222222222222222222222222222222222222222222222222222222
222222222222222222222222222222222222222222222222222222222222222222222222
222222222222222222222222222222222222222222222222222222222222222222222222
222222222222222222222222222222222222222222222222222222222222222222222222
222222222222222222222222222222222222222222222222222222222222222222222222
222222222222222222222222222222222222222222222222222222222222222222222222
222222222222222222222222222222222222222222222222222222222222222222222222
222222222222222222222222222222222222222222222222222222222222222222222222
222222222222222222222222222222222222222222222222222222222222222222222222
222222222222222222222222222222222222222222222222222222222222222222222222
222222222222222222222222222222222222222222222222222222222222222222222222
222222222222222222222222222222222222222222222222222222222222222222222222
222222222222222222222222222222222222222222222222222222222222222222222222
222222222222222222222222222222222222222222222222222222222222222222222222
222222222222222222222222222222222222222222222222222222222222222222222222
222222222222222222
# atoms in fragment 1/2:   362  2896
 fragment masses (1/2) :     1685.21    13481.68
CMA distance (Bohr)    :   3.469
constraining FC (au)   :  0.0500

           -------------------------------------------------
          |                 G F N 2 - x T B                 |
           -------------------------------------------------

        Reference                      10.1021/acs.jctc.8b01176
      * Hamiltonian:
        H0-scaling (s, p, d)           1.850000    2.230000    2.230000
        zeta-weighting                 0.500000
      * Dispersion:
        s8                             2.700000
        a1                             0.520000
        a2                             5.000000
        s9                             5.000000
      * Repulsion:
        kExp                           1.500000    1.000000
        rExp                           1.000000
      * Coulomb:
        alpha                          2.000000
        third order                    shell-resolved
        anisotropic                    true
        a3                             3.000000
        a5                             4.000000
        cn-shift                       1.200000
        cn-exp                         4.000000
        max-rad                        5.000000


          ...................................................
          :                      SETUP                      :
          :.................................................:
          :  # basis functions                6498          :
          :  # atomic orbitals                6498          :
          :  # shells                         4338          :
          :  # electrons                      6498          :
          :  max. iterations                   250          :
          :  Hamiltonian                  GFN2-xTB          :
          :  restarted?                      false          :
          :  GBSA solvation                  false          :
          :  PC potential                    false          :
          :  electronic temp.          300.0000000     K    :
          :  accuracy                    1.0000000          :
          :  -> integral cutoff          0.2500000E+02      :
          :  -> integral neglect         0.1000000E-07      :
          :  -> SCF convergence          0.1000000E-05 Eh   :
          :  -> wf. convergence          0.1000000E-03 e    :
          :  Broyden damping             0.4000000          :
          ...................................................

 iter      E             dE          RMSdq      gap      omega  full diag
   1  -3473.4526622 -0.347345E+04  0.244E+00   11.34       0.0  T
   2  -3478.5869081 -0.513425E+01  0.135E+00   11.44       1.0  T
   3  -3478.7912646 -0.204356E+00  0.598E-01   11.44       1.0  T
   4  -3478.8116567 -0.203921E-01  0.761E-02   11.46       1.0  T
   5  -3478.8128404 -0.118371E-02  0.402E-02   11.47       1.0  T
   6  -3478.8130505 -0.210130E-03  0.689E-03   11.47       1.0  T
   7  -3478.8130680 -0.175083E-04  0.127E-03   11.47       1.4  T
   8  -3478.8130692 -0.118184E-05  0.413E-04   11.47       4.2  T
   9  -3478.8130693 -0.787195E-07  0.144E-04   11.47      12.2  T
  10  -3478.8130693 -0.398541E-08  0.454E-05   11.47      38.6  T

   *** convergence criteria satisfied after 10 iterations ***

         #    Occupation            Energy/Eh            Energy/eV
      -------------------------------------------------------------
         1        2.0000           -0.6251120             -17.0102
       ...           ...                  ...                  ...
      3243        2.0000           -0.4016594             -10.9297
      3244        2.0000           -0.4015135             -10.9257
      3245        2.0000           -0.4013798             -10.9221
      3246        2.0000           -0.4013428             -10.9211
      3247        2.0000           -0.4012862             -10.9196
      3248        2.0000           -0.4007665             -10.9054
      3249        2.0000           -0.4003044             -10.8928 (HOMO)
      3250                          0.0212379               0.5779 (LUMO)
      3251                          0.0221248               0.6020
      3252                          0.0225302               0.6131
      3253                          0.0226293               0.6158
      3254                          0.0227511               0.6191
       ...                                ...                  ...
      6498                          0.3860268              10.5043
      -------------------------------------------------------------
                  HL-Gap            0.4215423 Eh           11.4708 eV
             Fermi-level           -0.1895333 Eh           -5.1575 eV

 SCC (total)                   0 d,  0 h, 13 min, 43.832 sec
 SCC setup                      ...        0 min,  0.438 sec (  0.053%)
 Dispersion                     ...        0 min,  3.576 sec (  0.434%)
 classical contributions        ...        0 min,  0.145 sec (  0.018%)
 integral evaluation            ...        0 min,  5.883 sec (  0.714%)
 iterations                     ...        9 min, 36.196 sec ( 69.941%)
 molecular gradient             ...        3 min, 49.855 sec ( 27.901%)
 printout                       ...        0 min,  7.739 sec (  0.939%)

         :::::::::::::::::::::::::::::::::::::::::::::::::::::
         ::                     SUMMARY                     ::
         :::::::::::::::::::::::::::::::::::::::::::::::::::::
         :: total energy           -3427.559355532695 Eh    ::
         :: gradient norm              0.018694989867 Eh/a0 ::
         :: HOMO-LUMO gap             11.470751007930 eV    ::
         ::.................................................::
         :: SCC energy             -3478.813069286954 Eh    ::
         :: -> isotropic ES            0.417485973516 Eh    ::
         :: -> anisotropic ES          1.122174908897 Eh    ::
         :: -> anisotropic XC          1.947329288908 Eh    ::
         :: -> dispersion             -4.050026912645 Eh    ::
         :: repulsion energy          50.618149741608 Eh    ::
         :: add. restraining           0.000000000000 Eh    ::
         :: total charge              -0.000000000012 e     ::
         :::::::::::::::::::::::::::::::::::::::::::::::::::::

      ----------------------------------------------------------- 
     |              Fast Inertial Relaxation Engine              |
      ----------------------------------------------------------- 

          ...................................................
          :                      SETUP                      :
          :.................................................:
          :   energy convergence        0.5000000E-05 Eh    :
          :   grad. convergence         0.1000000E-02 Eh/a0 :
          :   optimization log               true           :
          :   writing optlog all                1     steps :
          :   Hessian reset                    20     steps :
          :   time step scaling                 5     steps :
          :   maximium step len.        1.0000000     a0    :
          :   initial time step         0.2500000     fs    :
          :   maximum time step         1.2500000     fs    :
          :   power reset thr           0.0000000     au    :
          :   alpha parameter           0.1000000           :
          :   BFGS update                   false           :
          :   preconditioning               false           :
          ...................................................

........................................................................
.............................. CYCLE    1 ..............................
........................................................................

 iter      E             dE          RMSdq      gap      omega  full diag
   1  -3478.8166209 -0.347882E+04  0.272E-04   11.47       0.0  T
   2  -3478.8166209 -0.288064E-07  0.155E-04   11.47      11.3  T
   3  -3478.8166209 -0.681666E-09  0.493E-05   11.47      35.6  T
     SCC iter.                  ...        2 min, 44.620 sec
     gradient                   ...        3 min, 50.649 sec
 * total energy  : -3427.5593949 Eh     change    :  -0.3932050E-04 Eh
   gradient norm :     0.0171982 Eh/a0  converged?    E=F G=F D=F
   time step     :     0.2500000 fs     power     :   0.1999566E-08
   step length   :     0.0021910 a0     speed     :   0.2119923E-03

........................................................................
.............................. CYCLE    2 ..............................
........................................................................

 iter      E             dE          RMSdq      gap      omega  full diag
   1  -3478.8217894 -0.347882E+04  0.394E-04   11.47       0.0  T
   2  -3478.8217895 -0.605519E-07  0.224E-04   11.47       7.8  T
   3  -3478.8217895 -0.139880E-08  0.712E-05   11.47      24.6  T
     SCC iter.                  ...        2 min, 43.811 sec
     gradient                   ...        3 min, 49.990 sec
 * total energy  : -3427.5594464 Eh     change    :  -0.5153612E-04 Eh
   gradient norm :     0.0150445 Eh/a0  converged?    E=F G=F D=F
   time step     :     0.2500000 fs     power     :   0.2550610E-08
   step length   :     0.0031986 a0     speed     :   0.3094839E-03

........................................................................
.............................. CYCLE    3 ..............................
........................................................................

 iter      E             dE          RMSdq      gap      omega  full diag
   1  -3478.8283469 -0.347883E+04  0.501E-04   11.47       0.0  T
   2  -3478.8283470 -0.973014E-07  0.285E-04   11.47       6.1  T
   3  -3478.8283470 -0.222735E-08  0.902E-05   11.47      19.4  T
     SCC iter.                  ...        2 min, 43.613 sec
     gradient                   ...        3 min, 49.465 sec
 * total energy  : -3427.5595021 Eh     change    :  -0.5575280E-04 Eh
   gradient norm :     0.0123548 Eh/a0  converged?    E=F G=F D=F
   time step     :     0.2500000 fs     power     :   0.2660065E-08
   step length   :     0.0040790 a0     speed     :   0.3946672E-03

........................................................................
.............................. CYCLE    4 ..............................
........................................................................

 iter      E             dE          RMSdq      gap      omega  full diag
   1  -3478.8359987 -0.347884E+04  0.588E-04   11.47       0.0  T
   2  -3478.8359988 -0.131946E-06  0.335E-04   11.47       5.2  T
   3  -3478.8359988 -0.297541E-08  0.105E-04   11.47      16.7  T
     SCC iter.                  ...        2 min, 43.380 sec
     gradient                   ...        3 min, 49.768 sec
 * total energy  : -3427.5595536 Eh     change    :  -0.5147979E-04 Eh
   gradient norm :     0.0093217 Eh/a0  converged?    E=F G=F D=F
   time step     :     0.2500000 fs     power     :   0.2324311E-08
   step length   :     0.0047982 a0     speed     :   0.4642517E-03

........................................................................
.............................. CYCLE    5 ..............................
........................................................................

 iter      E             dE          RMSdq      gap      omega  full diag
   1  -3478.8443812 -0.347884E+04  0.650E-04   11.47       0.0  T
   2  -3478.8443814 -0.157380E-06  0.371E-04   11.47       4.7  T
   3  -3478.8443814 -0.354112E-08  0.114E-04   11.47      15.4  T
     SCC iter.                  ...        2 min, 55.618 sec
     gradient                   ...        3 min, 48.195 sec
 * total energy  : -3427.5595934 Eh     change    :  -0.3979890E-04 Eh
   gradient norm :     0.0062994 Eh/a0  converged?    E=F G=F D=F
   time step     :     0.2500000 fs     power     :   0.1621573E-08
   step length   :     0.0053270 a0     speed     :   0.5154204E-03

........................................................................
.............................. CYCLE    6 ..............................
........................................................................

 iter      E             dE          RMSdq      gap      omega  full diag
   1  -3478.8539288 -0.347885E+04  0.754E-04   11.47       0.0  T
   2  -3478.8539290 -0.201341E-06  0.431E-04   11.47       4.1  T
   3  -3478.8539290 -0.483578E-08  0.127E-04   11.47      13.7  T
     SCC iter.                  ...        2 min, 45.508 sec
     gradient                   ...        3 min, 48.906 sec
 * total energy  : -3427.5596182 Eh     change    :  -0.2475970E-04 Eh
   gradient norm :     0.0041127 Eh/a0  converged?    E=F G=F D=F
   time step     :     0.2750000 fs     power     :   0.6115328E-09
   step length   :     0.0062286 a0     speed     :   0.5478605E-03

........................................................................
.............................. CYCLE    7 ..............................
........................................................................

 iter      E             dE          RMSdq      gap      omega  full diag
   1  -3478.8636263 -0.347886E+04  0.806E-04   11.47       0.0  T
   2  -3478.8636265 -0.201558E-06  0.462E-04   11.47       3.8  T
   3  -3478.8636265 -0.496493E-08  0.124E-04   11.47      14.1  T
     SCC iter.                  ...        2 min, 47.705 sec
     gradient                   ...        3 min, 50.746 sec
 * total energy  : -3427.5596223 Eh     change    :  -0.4164322E-05 Eh
   gradient norm :     0.0051006 Eh/a0  converged?    E=T G=F D=F
   time step     :     0.3025000 fs     power     :  -0.3762636E-09
   step length   :     0.0067431 a0     speed     :   0.5391980E-03

........................................................................
.............................. CYCLE    8 ..............................
........................................................................
 * reset velocities

 iter      E             dE          RMSdq      gap      omega  full diag
   1  -3478.8635070 -0.347886E+04  0.137E-05   11.47       0.0  T
   2  -3478.8635070 -0.130967E-09  0.731E-06   11.47     239.8  T
   3  -3478.8635070 -0.236469E-10  0.331E-06   11.47     529.1  T
     SCC iter.                  ...        2 min, 48.988 sec
     gradient                   ...        3 min, 50.544 sec
 * total energy  : -3427.5596229 Eh     change    :  -0.5561278E-06 Eh
   gradient norm :     0.0050394 Eh/a0  converged?    E=T G=F D=T
   time step     :     0.1512500 fs     power     :   0.4836683E-10
   step length   :     0.0001094 a0     speed     :   0.1749607E-04

........................................................................
.............................. CYCLE    9 ..............................
........................................................................

 iter      E             dE          RMSdq      gap      omega  full diag
   1  -3478.8632700 -0.347886E+04  0.274E-05   11.47       0.0  T
   2  -3478.8632700 -0.224645E-09  0.160E-05   11.47     109.4  T
   3  -3478.8632700  0.181899E-11  0.393E-06   11.47     445.5  T
     SCC iter.                  ...        2 min, 50.158 sec
     gradient                   ...        3 min, 49.756 sec
 * total energy  : -3427.5596240 Eh     change    :  -0.1083538E-05 Eh
   gradient norm :     0.0049249 Eh/a0  converged?    E=T G=F D=T
   time step     :     0.1512500 fs     power     :   0.9395550E-10
   step length   :     0.0002175 a0     speed     :   0.3478204E-04

........................................................................
.............................. CYCLE   10 ..............................
........................................................................

 iter      E             dE          RMSdq      gap      omega  full diag
   1  -3478.8629207 -0.347886E+04  0.403E-05   11.47       0.0  T
   2  -3478.8629207 -0.395175E-09  0.235E-05   11.47      74.6  T
   3  -3478.8629207 -0.532054E-10  0.583E-06   11.47     300.4  T
     SCC iter.                  ...        2 min, 49.272 sec
     gradient                   ...        3 min, 48.601 sec
 * total energy  : -3427.5596256 Eh     change    :  -0.1568307E-05 Eh
   gradient norm :     0.0047580 Eh/a0  converged?    E=T G=F D=T
   time step     :     0.1512500 fs     power     :   0.1348014E-09
   step length   :     0.0003231 a0     speed     :   0.5167345E-04

........................................................................
.............................. CYCLE   11 ..............................
........................................................................

 iter      E             dE          RMSdq      gap      omega  full diag
   1  -3478.8624672 -0.347886E+04  0.529E-05   11.47       0.0  T
   2  -3478.8624672 -0.678483E-09  0.308E-05   11.47      56.9  T
   3  -3478.8624672 -0.100044E-09  0.760E-06   11.47     230.5  T
     SCC iter.                  ...        2 min, 49.057 sec
     gradient                   ...        3 min, 49.858 sec
 * total energy  : -3427.5596275 Eh     change    :  -0.1951423E-05 Eh
   gradient norm :     0.0045439 Eh/a0  converged?    E=T G=F D=T
   time step     :     0.1512500 fs     power     :   0.1692194E-09
   step length   :     0.0004251 a0     speed     :   0.6798634E-04

........................................................................
.............................. CYCLE   12 ..............................
........................................................................

 iter      E             dE          RMSdq      gap      omega  full diag
   1  -3478.8619201 -0.347886E+04  0.647E-05   11.47       0.0  T
   2  -3478.8619201 -0.102682E-08  0.377E-05   11.47      46.4  T
   3  -3478.8619201 -0.541149E-10  0.920E-06   11.47     190.4  T
     SCC iter.                  ...        2 min, 50.233 sec
     gradient                   ...        3 min, 49.326 sec
 * total energy  : -3427.5596298 Eh     change    :  -0.2303680E-05 Eh
   gradient norm :     0.0042900 Eh/a0  converged?    E=T G=F D=T
   time step     :     0.1512500 fs     power     :   0.1959600E-09
   step length   :     0.0005224 a0     speed     :   0.8354870E-04

........................................................................
.............................. CYCLE   13 ..............................
........................................................................

 iter      E             dE          RMSdq      gap      omega  full diag
   1  -3478.8612933 -0.347886E+04  0.757E-05   11.47       0.0  T
   2  -3478.8612933 -0.135424E-08  0.442E-05   11.47      39.7  T
   3  -3478.8612933 -0.536602E-10  0.106E-05   11.47     165.2  T
     SCC iter.                  ...        2 min, 54.856 sec
     gradient                   ...        3 min, 48.931 sec
 * total energy  : -3427.5596323 Eh     change    :  -0.2536692E-05 Eh
   gradient norm :     0.0040060 Eh/a0  converged?    E=T G=F D=T
   time step     :     0.1512500 fs     power     :   0.2143121E-09
   step length   :     0.0006141 a0     speed     :   0.9820465E-04

........................................................................
.............................. CYCLE   14 ..............................
........................................................................

 iter      E             dE          RMSdq      gap      omega  full diag
   1  -3478.8605268 -0.347886E+04  0.953E-05   11.47       0.0  T
   2  -3478.8605268 -0.208729E-08  0.557E-05   11.47      31.5  T
   3  -3478.8605268 -0.318323E-10  0.131E-05   11.47     133.5  T
     SCC iter.                  ...        2 min, 47.481 sec
     gradient                   ...        3 min, 48.465 sec
 * total energy  : -3427.5596353 Eh     change    :  -0.2956126E-05 Eh
   gradient norm :     0.0036716 Eh/a0  converged?    E=T G=F D=T
   time step     :     0.1663750 fs     power     :   0.2246213E-09
   step length   :     0.0007785 a0     speed     :   0.1131846E-03

........................................................................
.............................. CYCLE   15 ..............................
........................................................................

 iter      E             dE          RMSdq      gap      omega  full diag
   1  -3478.8596212 -0.347886E+04  0.118E-04   11.47       0.0  T
   2  -3478.8596212 -0.320415E-08  0.687E-05   11.47      25.5  T
   3  -3478.8596212  0.100044E-10  0.157E-05   11.47     111.5  T
     SCC iter.                  ...        2 min, 45.118 sec
     gradient                   ...        3 min, 50.603 sec
 * total energy  : -3427.5596386 Eh     change    :  -0.3308021E-05 Eh
   gradient norm :     0.0033018 Eh/a0  converged?    E=T G=F D=T
   time step     :     0.1830125 fs     power     :   0.2247492E-09
   step length   :     0.0009693 a0     speed     :   0.1281147E-03

........................................................................
.............................. CYCLE   16 ..............................
........................................................................

 iter      E             dE          RMSdq      gap      omega  full diag
   1  -3478.8585970 -0.347886E+04  0.142E-04   11.47       0.0  T
   2  -3478.8585970 -0.416594E-08  0.831E-05   11.47      21.1  T
   3  -3478.8585970 -0.103228E-09  0.182E-05   11.47      96.5  T
     SCC iter.                  ...        2 min, 46.411 sec
     gradient                   ...        3 min, 48.814 sec
 * total energy  : -3427.5596422 Eh     change    :  -0.3541522E-05 Eh
   gradient norm :     0.0029327 Eh/a0  converged?    E=T G=F D=F
   time step     :     0.2013138 fs     power     :   0.2137165E-09
   step length   :     0.0011858 a0     speed     :   0.1424856E-03

........................................................................
.............................. CYCLE   17 ..............................
........................................................................

 iter      E             dE          RMSdq      gap      omega  full diag
   1  -3478.8575089 -0.347886E+04  0.167E-04   11.47       0.0  T
   2  -3478.8575089 -0.523642E-08  0.981E-05   11.47      17.9  T
   3  -3478.8575089 -0.122782E-09  0.200E-05   11.47      87.6  T
     SCC iter.                  ...        2 min, 51.530 sec
     gradient                   ...        3 min, 48.537 sec
 * total energy  : -3427.5596458 Eh     change    :  -0.3600384E-05 Eh
   gradient norm :     0.0026287 Eh/a0  converged?    E=T G=F D=F
   time step     :     0.2214451 fs     power     :   0.1929999E-09
   step length   :     0.0014247 a0     speed     :   0.1556243E-03

........................................................................
.............................. CYCLE   18 ..............................
........................................................................

 iter      E             dE          RMSdq      gap      omega  full diag
   1  -3478.8564629 -0.347886E+04  0.191E-04   11.47       0.0  T
   2  -3478.8564629 -0.581031E-08  0.113E-04   11.47      15.6  T
   3  -3478.8564629 -0.886757E-10  0.206E-05   11.47      84.9  T
     SCC iter.                  ...        2 min, 48.764 sec
     gradient                   ...        3 min, 54.779 sec
 * total energy  : -3427.5596493 Eh     change    :  -0.3528942E-05 Eh
   gradient norm :     0.0024681 Eh/a0  converged?    E=T G=F D=F
   time step     :     0.2435896 fs     power     :   0.1678384E-09
   step length   :     0.0016787 a0     speed     :   0.1667001E-03

........................................................................
.............................. CYCLE   19 ..............................
........................................................................

 iter      E             dE          RMSdq      gap      omega  full diag
   1  -3478.8556237 -0.347886E+04  0.213E-04   11.47       0.0  T
   2  -3478.8556237 -0.535692E-08  0.125E-04   11.47      14.0  T
   3  -3478.8556237 -0.964064E-10  0.195E-05   11.47      89.7  T
     SCC iter.                  ...        2 min, 55.291 sec
     gradient                   ...        3 min, 48.950 sec
 * total energy  : -3427.5596527 Eh     change    :  -0.3445579E-05 Eh
   gradient norm :     0.0024781 Eh/a0  converged?    E=T G=F D=F
   time step     :     0.2679486 fs     power     :   0.1469280E-09
   step length   :     0.0019386 a0     speed     :   0.1750087E-03

........................................................................
.............................. CYCLE   20 ..............................
........................................................................

 iter      E             dE          RMSdq      gap      omega  full diag
   1  -3478.8551936 -0.347886E+04  0.231E-04   11.47       0.0  T
   2  -3478.8551936 -0.432101E-08  0.136E-04   11.47      12.9  T
   3  -3478.8551936 -0.436557E-10  0.172E-05   11.47     101.6  T
     SCC iter.                  ...        2 min, 48.585 sec
     gradient                   ...        3 min, 49.594 sec
 * total energy  : -3427.5596562 Eh     change    :  -0.3513575E-05 Eh
   gradient norm :     0.0025766 Eh/a0  converged?    E=T G=F D=F
   time step     :     0.2947435 fs     power     :   0.1383715E-09
   step length   :     0.0022032 a0     speed     :   0.1808147E-03
 * RMSD in coord.:     0.0005656 a0     energy gain  -0.3007060E-03 Eh

........................................................................
.............................. CYCLE   21 ..............................
........................................................................

 iter      E             dE          RMSdq      gap      omega  full diag
   1  -3478.8552958 -0.347886E+04  0.190E-04   11.47       0.0  T
   2  -3478.8552958 -0.177533E-08  0.112E-04   11.47      15.7  T
   3  -3478.8552958 -0.595719E-10  0.119E-05   11.47     147.3  T
     SCC iter.                  ...        2 min, 48.924 sec
     gradient                   ...        3 min, 49.966 sec
 * total energy  : -3427.5596592 Eh     change    :  -0.2938506E-05 Eh
   gradient norm :     0.0026102 Eh/a0  converged?    E=T G=F D=F
   time step     :     0.2500000 fs     power     :   0.1460379E-09
   step length   :     0.0018863 a0     speed     :   0.1825133E-03

........................................................................
.............................. CYCLE   22 ..............................
........................................................................

 iter      E             dE          RMSdq      gap      omega  full diag
   1  -3478.8558568 -0.347886E+04  0.186E-04   11.47       0.0  T
   2  -3478.8558568 -0.147793E-08  0.109E-04   11.47      16.1  T
   3  -3478.8558568 -0.345608E-10  0.119E-05   11.47     146.7  T
     SCC iter.                  ...        2 min, 48.922 sec
     gradient                   ...        3 min, 50.559 sec
 * total energy  : -3427.5596624 Eh     change    :  -0.3174569E-05 Eh
   gradient norm :     0.0025279 Eh/a0  converged?    E=T G=F D=F
   time step     :     0.2500000 fs     power     :   0.1580160E-09
   step length   :     0.0019097 a0     speed     :   0.1847748E-03

........................................................................
.............................. CYCLE   23 ..............................
........................................................................

 iter      E             dE          RMSdq      gap      omega  full diag
   1  -3478.8568343 -0.347886E+04  0.186E-04   11.47       0.0  T
   2  -3478.8568343 -0.184218E-08  0.108E-04   11.47      16.2  T
   3  -3478.8568343 -0.518412E-10  0.131E-05   11.47     133.7  T
     SCC iter.                  ...        2 min, 47.021 sec
     gradient                   ...        3 min, 49.760 sec
 * total energy  : -3427.5596657 Eh     change    :  -0.3323533E-05 Eh
   gradient norm :     0.0023159 Eh/a0  converged?    E=T G=F D=F
   time step     :     0.2500000 fs     power     :   0.1658152E-09
   step length   :     0.0019463 a0     speed     :   0.1883103E-03

........................................................................
.............................. CYCLE   24 ..............................
........................................................................

 iter      E             dE          RMSdq      gap      omega  full diag
   1  -3478.8581598 -0.347886E+04  0.189E-04   11.47       0.0  T
   2  -3478.8581598 -0.277896E-08  0.110E-04   11.47      16.0  T
   3  -3478.8581598 -0.841283E-10  0.149E-05   11.47     117.5  T
     SCC iter.                  ...        2 min, 53.402 sec
     gradient                   ...        3 min, 51.167 sec
 * total energy  : -3427.5596690 Eh     change    :  -0.3351221E-05 Eh
   gradient norm :     0.0019970 Eh/a0  converged?    E=T G=F D=F
   time step     :     0.2500000 fs     power     :   0.1630616E-09
   step length   :     0.0019948 a0     speed     :   0.1930116E-03

........................................................................
.............................. CYCLE   25 ..............................
........................................................................

 iter      E             dE          RMSdq      gap      omega  full diag
   1  -3478.8597390 -0.347886E+04  0.193E-04   11.47       0.0  T
   2  -3478.8597390 -0.382715E-08  0.111E-04   11.47      15.7  T
   3  -3478.8597390 -0.122327E-09  0.169E-05   11.47     103.8  T
     SCC iter.                  ...        2 min, 44.398 sec
     gradient                   ...        3 min, 48.764 sec
 * total energy  : -3427.5596721 Eh     change    :  -0.3085043E-05 Eh
   gradient norm :     0.0016317 Eh/a0  converged?    E=T G=F D=F
   time step     :     0.2500000 fs     power     :   0.1473195E-09
   step length   :     0.0020494 a0     speed     :   0.1982873E-03

........................................................................
.............................. CYCLE   26 ..............................
........................................................................

 iter      E             dE          RMSdq      gap      omega  full diag
   1  -3478.8616216 -0.347886E+04  0.215E-04   11.47       0.0  T
   2  -3478.8616217 -0.563568E-08  0.123E-04   11.47      14.2  T
   3  -3478.8616217 -0.133241E-09  0.202E-05   11.47      86.7  T
     SCC iter.                  ...        2 min, 46.744 sec
     gradient                   ...        3 min, 49.617 sec
 * total energy  : -3427.5596750 Eh     change    :  -0.2869695E-05 Eh
   gradient norm :     0.0013166 Eh/a0  converged?    E=T G=F D=F
   time step     :     0.2750000 fs     power     :   0.1179536E-09
   step length   :     0.0023198 a0     speed     :   0.2040506E-03

........................................................................
.............................. CYCLE   27 ..............................
........................................................................

 iter      E             dE          RMSdq      gap      omega  full diag
   1  -3478.8635938 -0.347886E+04  0.230E-04   11.47       0.0  T
   2  -3478.8635938 -0.647196E-08  0.132E-04   11.47      13.3  T
   3  -3478.8635938 -0.151431E-09  0.212E-05   11.47      82.5  T
     SCC iter.                  ...        2 min, 47.050 sec
     gradient                   ...        3 min, 49.108 sec
 * total energy  : -3427.5596774 Eh     change    :  -0.2412222E-05 Eh
   gradient norm :     0.0012814 Eh/a0  converged?    E=T G=F D=F
   time step     :     0.3025000 fs     power     :   0.8370630E-10
   step length   :     0.0026010 a0     speed     :   0.2079867E-03

........................................................................
.............................. CYCLE   28 ..............................
........................................................................

 iter      E             dE          RMSdq      gap      omega  full diag
   1  -3478.8652803 -0.347887E+04  0.229E-04   11.47       0.0  T
   2  -3478.8652803 -0.479349E-08  0.132E-04   11.47      13.3  T
   3  -3478.8652803 -0.195996E-09  0.181E-05   11.47      97.0  T
     SCC iter.                  ...        2 min, 43.392 sec
     gradient                   ...        3 min, 49.611 sec
 * total energy  : -3427.5596794 Eh     change    :  -0.1996725E-05 Eh
   gradient norm :     0.0015125 Eh/a0  converged?    E=T G=F D=F
   time step     :     0.3327500 fs     power     :   0.6188028E-10
   step length   :     0.0028377 a0     speed     :   0.2062861E-03

........................................................................
.............................. CYCLE   29 ..............................
........................................................................

 iter      E             dE          RMSdq      gap      omega  full diag
   1  -3478.8663520 -0.347887E+04  0.217E-04   11.47       0.0  T
   2  -3478.8663520 -0.238788E-08  0.125E-04   11.47      14.0  T
   3  -3478.8663520 -0.154614E-09  0.126E-05   11.47     138.7  T
     SCC iter.                  ...        2 min, 53.253 sec
     gradient                   ...        3 min, 49.140 sec
 * total energy  : -3427.5596814 Eh     change    :  -0.1986942E-05 Eh
   gradient norm :     0.0017181 Eh/a0  converged?    E=T G=F D=F
   time step     :     0.3660250 fs     power     :   0.6069876E-10
   step length   :     0.0030318 a0     speed     :   0.2003604E-03

........................................................................
.............................. CYCLE   30 ..............................
........................................................................

 iter      E             dE          RMSdq      gap      omega  full diag
   1  -3478.8666027 -0.347887E+04  0.205E-04   11.47       0.0  T
   2  -3478.8666027 -0.118735E-08  0.120E-04   11.47      14.6  T
   3  -3478.8666027 -0.151431E-09  0.989E-06   11.47     177.2  T
     SCC iter.                  ...        2 min, 53.350 sec
     gradient                   ...        3 min, 50.208 sec
 * total energy  : -3427.5596838 Eh     change    :  -0.2429186E-05 Eh
   gradient norm :     0.0017131 Eh/a0  converged?    E=T G=F D=F
   time step     :     0.4026275 fs     power     :   0.7198890E-10
   step length   :     0.0032486 a0     speed     :   0.1951668E-03

........................................................................
.............................. CYCLE   31 ..............................
........................................................................

 iter      E             dE          RMSdq      gap      omega  full diag
   1  -3478.8659537 -0.347887E+04  0.203E-04   11.47       0.0  T
   2  -3478.8659537 -0.275168E-08  0.120E-04   11.47      14.6  T
   3  -3478.8659537 -0.137334E-09  0.124E-05   11.47     141.5  T
     SCC iter.                  ...        2 min, 41.502 sec
     gradient                   ...        3 min, 48.904 sec
 * total energy  : -3427.5596868 Eh     change    :  -0.2993065E-05 Eh
   gradient norm :     0.0014799 Eh/a0  converged?    E=T G=F D=F
   time step     :     0.4428903 fs     power     :   0.7933537E-10
   step length   :     0.0035422 a0     speed     :   0.1934626E-03

........................................................................
.............................. CYCLE   32 ..............................
........................................................................

 iter      E             dE          RMSdq      gap      omega  full diag
   1  -3478.8645463 -0.347886E+04  0.210E-04   11.47       0.0  T
   2  -3478.8645463 -0.627779E-08  0.124E-04   11.47      14.1  T
   3  -3478.8645463 -0.208729E-09  0.191E-05   11.47      91.6  T
     SCC iter.                  ...        2 min, 41.490 sec
     gradient                   ...        3 min, 49.128 sec
 * total energy  : -3427.5596900 Eh     change    :  -0.3153949E-05 Eh
   gradient norm :     0.0012413 Eh/a0  converged?    E=T G=F D=F
   time step     :     0.4871793 fs     power     :   0.7141654E-10
   step length   :     0.0039275 a0     speed     :   0.1950035E-03

........................................................................
.............................. CYCLE   33 ..............................
........................................................................

 iter      E             dE          RMSdq      gap      omega  full diag
   1  -3478.8629481 -0.347886E+04  0.203E-04   11.47       0.0  T
   2  -3478.8629481 -0.732871E-08  0.120E-04   11.47      14.6  T
   3  -3478.8629481 -0.122782E-09  0.214E-05   11.47      81.9  T
     SCC iter.                  ...        2 min, 49.178 sec
     gradient                   ...        3 min, 48.783 sec
 * total energy  : -3427.5596929 Eh     change    :  -0.2946123E-05 Eh
   gradient norm :     0.0013605 Eh/a0  converged?    E=T G=F D=F
   time step     :     0.5358972 fs     power     :   0.5849589E-10
   step length   :     0.0043584 a0     speed     :   0.1967256E-03

........................................................................
.............................. CYCLE   34 ..............................
........................................................................

 iter      E             dE          RMSdq      gap      omega  full diag
   1  -3478.8620525 -0.347886E+04  0.179E-04   11.47       0.0  T
   2  -3478.8620525 -0.290720E-08  0.107E-04   11.47      16.5  T
   3  -3478.8620525 -0.168711E-09  0.114E-05   11.47     153.4  T
     SCC iter.                  ...        2 min, 48.903 sec
     gradient                   ...        3 min, 49.792 sec
 * total energy  : -3427.5596961 Eh     change    :  -0.3202779E-05 Eh
   gradient norm :     0.0015766 Eh/a0  converged?    E=T G=F D=F
   time step     :     0.5894869 fs     power     :   0.6358435E-10
   step length   :     0.0047743 a0     speed     :   0.1959080E-03

........................................................................
.............................. CYCLE   35 ..............................
........................................................................

 iter      E             dE          RMSdq      gap      omega  full diag
   1  -3478.8624962 -0.347886E+04  0.193E-04   11.47       0.0  T
   2  -3478.8624962 -0.960881E-09  0.113E-04   11.47      15.5  T
   3  -3478.8624962 -0.151431E-09  0.736E-06   11.47     238.0  T
     SCC iter.                  ...        2 min, 46.486 sec
     gradient                   ...        3 min, 48.460 sec
 * total energy  : -3427.5597004 Eh     change    :  -0.4271556E-05 Eh
   gradient norm :     0.0014607 Eh/a0  converged?    E=T G=F D=F
   time step     :     0.6484356 fs     power     :   0.8137216E-10
   step length   :     0.0052848 a0     speed     :   0.1971406E-03

........................................................................
.............................. CYCLE   36 ..............................
........................................................................

 iter      E             dE          RMSdq      gap      omega  full diag
   1  -3478.8643878 -0.347886E+04  0.258E-04   11.47       0.0  T
   2  -3478.8643878 -0.745058E-08  0.149E-04   11.47      11.8  T
   3  -3478.8643878 -0.167347E-09  0.225E-05   11.47      78.0  T
     SCC iter.                  ...        2 min, 44.622 sec
     gradient                   ...        3 min, 48.131 sec
 * total energy  : -3427.5597055 Eh     change    :  -0.5124298E-05 Eh
   gradient norm :     0.0011133 Eh/a0  converged?    E=F G=F D=F
   time step     :     0.7132792 fs     power     :   0.8267292E-10
   step length   :     0.0060093 a0     speed     :   0.2037889E-03

........................................................................
.............................. CYCLE   37 ..............................
........................................................................

 iter      E             dE          RMSdq      gap      omega  full diag
   1  -3478.8667839 -0.347887E+04  0.293E-04   11.47       0.0  T
   2  -3478.8667839 -0.124037E-07  0.171E-04   11.47      10.3  T
   3  -3478.8667839 -0.409727E-09  0.303E-05   11.47      57.9  T
     SCC iter.                  ...        2 min, 50.629 sec
     gradient                   ...        3 min, 50.020 sec
 * total energy  : -3427.5597104 Eh     change    :  -0.4950753E-05 Eh
   gradient norm :     0.0012309 Eh/a0  converged?    E=T G=F D=F
   time step     :     0.7846071 fs     power     :   0.6796955E-10
   step length   :     0.0069003 a0     speed     :   0.2127324E-03

........................................................................
.............................. CYCLE   38 ..............................
........................................................................

 iter      E             dE          RMSdq      gap      omega  full diag
   1  -3478.8677946 -0.347887E+04  0.269E-04   11.47       0.0  T
   2  -3478.8677946 -0.586670E-08  0.158E-04   11.47      11.1  T
   3  -3478.8677946 -0.339242E-09  0.226E-05   11.47      77.5  T
     SCC iter.                  ...        2 min, 44.963 sec
     gradient                   ...        3 min, 47.961 sec
 * total energy  : -3427.5597158 Eh     change    :  -0.5354986E-05 Eh
   gradient norm :     0.0013151 Eh/a0  converged?    E=F G=F D=F
   time step     :     0.8630678 fs     power     :   0.7406801E-10
   step length   :     0.0077610 a0     speed     :   0.2175146E-03

........................................................................
.............................. CYCLE   39 ..............................
........................................................................

 iter      E             dE          RMSdq      gap      omega  full diag
   1  -3478.8666825 -0.347887E+04  0.300E-04   11.47       0.0  T
   2  -3478.8666825 -0.996715E-08  0.174E-04   11.47      10.1  T
   3  -3478.8666825 -0.420641E-09  0.298E-05   11.47      58.8  T
     SCC iter.                  ...        2 min, 51.550 sec
     gradient                   ...        3 min, 48.698 sec
 * total energy  : -3427.5597222 Eh     change    :  -0.6385817E-05 Eh
   gradient norm :     0.0010267 Eh/a0  converged?    E=F G=F D=F
   time step     :     0.9493746 fs     power     :   0.7640910E-10
   step length   :     0.0088200 a0     speed     :   0.2247213E-03

........................................................................
.............................. CYCLE   40 ..............................
........................................................................

 iter      E             dE          RMSdq      gap      omega  full diag
   1  -3478.8651636 -0.347887E+04  0.314E-04   11.47       0.0  T
   2  -3478.8651636 -0.987256E-08  0.182E-04   11.47       9.6  T
   3  -3478.8651636 -0.226919E-09  0.254E-05   11.47      69.0  T
     SCC iter.                  ...        2 min, 52.291 sec
     gradient                   ...        3 min, 48.223 sec
 * total energy  : -3427.5597286 Eh     change    :  -0.6385812E-05 Eh
   gradient norm :     0.0012819 Eh/a0  converged?    E=F G=F D=F
   time step     :     1.0443120 fs     power     :   0.6772306E-10
   step length   :     0.0101149 a0     speed     :   0.2342854E-03

........................................................................
.............................. CYCLE   41 ..............................
........................................................................

 iter      E             dE          RMSdq      gap      omega  full diag
   1  -3478.8661652 -0.347887E+04  0.310E-04   11.47       0.0  T
   2  -3478.8661652 -0.480259E-08  0.181E-04   11.47       9.7  T
   3  -3478.8661652 -0.387899E-09  0.134E-05   11.47     131.1  T
     SCC iter.                  ...        2 min, 47.634 sec
     gradient                   ...        3 min, 50.219 sec
 * total energy  : -3427.5597365 Eh     change    :  -0.7937895E-05 Eh
   gradient norm :     0.0011277 Eh/a0  converged?    E=F G=F D=F
   time step     :     1.1487432 fs     power     :   0.8427336E-10
   step length   :     0.0114518 a0     speed     :   0.2411383E-03

........................................................................
.............................. CYCLE   42 ..............................
........................................................................

 iter      E             dE          RMSdq      gap      omega  full diag
   1  -3478.8685503 -0.347887E+04  0.380E-04   11.47       0.0  T
   2  -3478.8685503 -0.182213E-07  0.222E-04   11.47       7.9  T
   3  -3478.8685503 -0.686214E-09  0.331E-05   11.47      53.0  T
     SCC iter.                  ...        2 min, 45.252 sec
     gradient                   ...        3 min, 48.669 sec
 * total energy  : -3427.5597454 Eh     change    :  -0.8882546E-05 Eh
   gradient norm :     0.0012105 Eh/a0  converged?    E=F G=F D=F
   time step     :     1.2500000 fs     power     :   0.7876964E-10
   step length   :     0.0131252 a0     speed     :   0.2539870E-03
 * RMSD in coord.:     0.0016729 a0     energy gain  -0.8915722E-04 Eh

........................................................................
.............................. CYCLE   43 ..............................
........................................................................

 iter      E             dE          RMSdq      gap      omega  full diag
   1  -3478.8685847 -0.347887E+04  0.598E-05   11.47       0.0  T
   2  -3478.8685847 -0.119144E-09  0.352E-05   11.47      49.8  T
   3  -3478.8685847  0.172804E-10  0.206E-06   11.47     850.1  T
     SCC iter.                  ...        2 min, 47.183 sec
     gradient                   ...        3 min, 47.419 sec
 * total energy  : -3427.5597471 Eh     change    :  -0.1721343E-05 Eh
   gradient norm :     0.0012273 Eh/a0  converged?    E=T G=F D=F
   time step     :     0.2500000 fs     power     :   0.8985819E-10
   step length   :     0.0025355 a0     speed     :   0.2453199E-03

........................................................................
.............................. CYCLE   44 ..............................
........................................................................

 iter      E             dE          RMSdq      gap      omega  full diag
   1  -3478.8682191 -0.347887E+04  0.613E-05   11.47       0.0  T
   2  -3478.8682191 -0.292857E-09  0.357E-05   11.47      49.1  T
   3  -3478.8682191 -0.441105E-10  0.478E-06   11.47     366.4  T
     SCC iter.                  ...        2 min, 45.739 sec
     gradient                   ...        3 min, 49.794 sec
 * total energy  : -3427.5597490 Eh     change    :  -0.1906872E-05 Eh
   gradient norm :     0.0011357 Eh/a0  converged?    E=T G=F D=F
   time step     :     0.2500000 fs     power     :   0.9871047E-10
   step length   :     0.0024741 a0     speed     :   0.2393830E-03

........................................................................
.............................. CYCLE   45 ..............................
........................................................................

 iter      E             dE          RMSdq      gap      omega  full diag
   1  -3478.8675445 -0.347887E+04  0.727E-05   11.47       0.0  T
   2  -3478.8675445 -0.946784E-09  0.421E-05   11.47      41.6  T
   3  -3478.8675445  0.341061E-10  0.816E-06   11.47     214.8  T
     SCC iter.                  ...        2 min, 49.669 sec
     gradient                   ...        3 min, 49.314 sec
 * total energy  : -3427.5597510 Eh     change    :  -0.1966708E-05 Eh
   gradient norm :     0.0009908 Eh/a0  converged?    E=T G=T D=F
   time step     :     0.2500000 fs     power     :   0.1009605E-09
   step length   :     0.0024458 a0     speed     :   0.2366483E-03

   *** GEOMETRY OPTIMIZATION CONVERGED AFTER 45 CYCLES ***

------------------------------------------------------------------------
 total energy gain   :        -0.0003955 Eh       -0.2482 kcal/mol
 total RMSD          :         0.0020268 a0        0.0011 Å
 total power (kW/mol):        -0.0230728 (step)   -0.0001 (real)
------------------------------------------------------------------------

 FIRE (total)                  0 d,  5 h, 11 min, 40.296 sec
 setup                          ...        0 min,  0.117 sec (  0.001%)
 velocities                     ...        0 min,  0.003 sec (  0.000%)
 propagation                    ...        0 min,  0.005 sec (  0.000%)
 singlepoint calculation        ...      311 min, 39.433 sec ( 99.995%)
 log and printout               ...        0 min,  0.684 sec (  0.004%)
 preconditioner                 ...        0 min,  0.000 sec (  0.000%)
 model hessian                  ...        0 min,  0.000 sec (  0.000%)
 hessian update                 ...        0 min,  0.000 sec (  0.000%)

================
 final structure:
================
3258
 xtb: 6.6.1 (8d0f1dd)
C          102.99431397794869      114.78149537030964       94.87237971653745
C          103.37928394179468      115.07270701203451       96.31646559662218
C          102.17671138164910      115.47089033255465       97.16805039940999
C          102.58555680971061      115.84447475713669       98.59031716731964
C          101.38571004059399      116.17310846279206       99.47497119533648
C          101.81222904210725      116.63289806007968      100.86671687449551
C          100.62034974756419      116.87547570731354      101.78946447742446
C          101.05188250628716      117.41484111899686      103.15086283479566
C           99.87519112938239      117.58163159128448      104.10953364848153
C          100.30349022910825      118.19851979708936      105.43879009089019
C           99.14293026398879      118.32294592700248      106.42350221910350
C           99.56440957236978      119.00996681026363      107.72031972350831
C           98.41020426886779      119.14547471957067      108.71121237751115
C           98.83296458865360      119.87782635051083      109.98290240226524
C           97.67645552773776      120.07005060986720      110.96232882014895
C           98.10961536966825      120.84476068077633      112.20522697244529
C           96.96886290149091      121.05751033707028      113.19924379269357
C           97.44118522432623      121.81725174945134      114.43702964211143
C           96.33760857833248      122.03136437478844      115.47229712805368
C           96.88356066022007      122.72238996116937      116.72023923901968
C           95.84239600917029      122.91852525648972      117.82123770981998
C           96.48584073679213      123.49920799778241      119.08014946418635
C           95.51269246015876      123.65792591621367      120.24739162141840
C           96.22776994752526      123.82054463504345      121.59144708755260
C           97.09884483295214      125.07339570200162      121.66825170324339
C           97.70394777508426      125.30074032894386      123.05635365588111
C           98.78095681402090      124.29307469221811      123.46722184331306
C          100.06903131919444      124.42276915223751      122.65666642822403
C          101.15247957425206      123.45332432716832      123.12673347614718
C          102.42464304350013      123.55602623269195      122.28581810063747
C          103.43578363417838      122.46957133311487      122.64412121984356
C          104.66961821416214      122.45566460499634      121.73932280965681
C          104.35882788103966      122.02465480444300      120.30834423338553
C          105.61533824370734      121.74027028982528      119.48748993825151
C          105.25994825616840      121.26695030065953      118.08062069898521
C          106.47917791299004      120.92343527917443      117.22827571526921
C          106.05683721654788      120.42905810605366      115.84656286766452
C          107.23293799460947      120.02253616192783      114.96108729943934
C          106.74587428330403      119.41225026156445      113.64817427170092
C          107.88009629159738      118.92734398988993      112.74862432665377
C          107.34449817837780      118.25609463240437      111.48563940225704
C          108.45047558235281      117.67115156923641      110.61035062898220
C          107.88633617752903      116.97845943469206      109.37199714311150
C          108.96855487031792      116.31883084753457      108.52085487129017
C          108.38210732061496      115.61138435395814      107.30132912628734
C          109.44550507235687      114.89181574453531      106.47670180818753
C          108.85096961293725      114.15067644717770      105.28110001056203
C          109.91796372883087      113.39790207707479      104.49238194536443
C          109.34545725497667      112.57872280177703      103.33805538211236
C          110.45035162690110      111.88210908659896      102.54698898128427
C          109.90822306606771      110.93429239954513      101.47702840529780
C          110.97167942150676      110.51259246452709      100.46136496230748
C          112.14337228876225      109.74351075393658      101.07011641096285
C          113.26678747327709      109.53297931951764      100.05451392029180
C          114.60765728731661      109.14793052944576      100.68173047966128
C          114.64643823174831      107.76134288911270      101.32356121586767
C          114.63309865411475      106.63602010006922      100.29111765068077
C          114.91817458269077      105.25749642759806      100.88695971589605
C          113.85401042724665      104.80846229318418      101.88498718313464
C          114.05120809580727      103.35835067251948      102.32175421962339
C          113.12346377084501      102.95097561583479      103.46588435595795
C          111.64849957996952      102.95319490045304      103.07421079556173
C          110.71656625202424      102.49984533211681      104.19860469573010
C          110.79862720774879      103.39868509559368      105.42975730156039
C          109.64166171896237      103.20024043341689      106.40539894861128
C          109.75966487703009      104.17404836519718      107.57440920772068
C          108.60636575811060      104.07770597854980      108.57067608023412
C          108.55186206561676      105.28417184320223      109.50897528971740
C          109.74956931925220      105.38534571746379      110.45145944623016
C          109.74713026504458      106.70262084187426      111.22425517712855
C          110.90783164020192      106.83341942705020      112.21179869309022
C          112.27772301712967      106.83132494122565      111.53506694955674
C          113.40043305127823      107.19435057706821      112.50520787143256
C          114.77889438672341      107.17252907172303      111.84219216312776
C          115.34306047450772      105.76685420494084      111.64475459731672
C          116.60472120552559      105.79087966751165      110.78588703651087
C          117.26171738824955      104.41977215280524      110.65096243037657
C          118.42535167025997      104.44786973364154      109.66298031781109
C          119.16827684559588      103.11519610112298      109.62204728425584
C          120.24489675540519      103.03743307189607      108.53694597061457
C          121.26691510705136      104.17522314520593      108.56180605242302
C          121.97619585614966      104.33471114031903      109.90431620639966
C          122.96777730082344      105.49561652929071      109.87350756850479
C          123.51455930851439      105.87404023776577      111.25154199768583
C          122.45716949628618      106.34113270865386      112.25768286571022
C          121.58354961463297      107.47373350538477      111.72268206367150
C          120.72542831490094      108.14367668513145      112.79483387583667
C          119.72832900636226      107.19747350912293      113.46561669620728
C          118.61305853925370      107.97282649827234      114.16527094696451
C          117.66045744647381      107.08897606364587      114.97217742999058
C          118.16001409884454      106.79849022199001      116.38485877739295
C          117.13814212545110      105.99469308898794      117.18389148750499
C          117.58298311822230      105.76856292206017      118.62656204908802
C          116.50346276668300      105.12831965037897      119.50310389926921
C          115.91977470405068      103.81999989746916      118.96656558994010
C          116.95671964257200      102.70616882004850      118.83599457288346
C          116.43619515429499      101.47590087179373      118.09200846356606
C          115.34814074312426      100.73011376750485      118.85834742509321
C          114.75080762793557       99.56032956399255      118.07715618368917
C          114.06280538826476      100.01358065487625      116.78675930767703
C          112.92929484742407       99.09203019325918      116.34104871528818
C          113.40825112281922       97.70014448788862      115.94447481311055
C          112.25897356091403       96.74380935009307      115.62814087095195
C          111.51237706235779       97.08039507538120      114.33979405961324
C          110.39943423813334       96.07172350421430      114.06748318871063
C          109.70672388438064       96.30915894202803      112.72893984916938
C          108.56791150372338       95.31855952926418      112.49819259159709
C          107.97370418728005       95.44244213463008      111.09819289221583
C          106.79965145432342       94.48977634566360      110.88547071661914
C          106.36639086640422       94.38846312121997      109.42306462891452
C          105.87999411798890       95.71440308918942      108.84355725646101
C          105.23700538252213       95.53317566354086      107.47119591792374
C          104.76444048803721       96.85890459495562      106.88121173068465
C          104.01860163033602       96.67551462666674      105.56182626611925
C          103.50074130197119       98.00486741338561      105.02059310015431
C          102.76718174596770       97.85611807273737      103.69030124679597
C          102.13371484730575       99.17046444409071      103.23918270569943
C          101.47577737459252       99.05618815360583      101.86676268719316
C          100.79107512941353      100.35488482695314      101.44706747068845
C          100.11320870050706      100.22926233522863      100.08842281277019
H          100.04599943072064      100.62659437272917      102.19863745700829
H          101.53033152153722      101.15782752322757      101.41123691241059
H          102.23284270270020       98.78885060215812      101.12511505179491
H          100.73733316076674       98.25111505915893      101.88814718258077
H          101.38255285206245       99.47706448799099      103.97153682908309
H          102.89876221934490       99.95042635224026      103.20941772325551
H          103.46834141807030       97.51100422432505      102.92674956580389
H          101.98663407322569       97.09753451277092      103.78783596771214
H          102.82605393980312       98.44818620767626      105.75656107910329
H          104.34189795594419       98.68779031146845      104.89103507830164
H          104.68400427866818       96.21624027685064      104.82783068813799
H          103.17702291551349       95.99472207529568      105.71435911119575
H          104.10753434947904       97.35775747289865      107.59736034743466
H          105.62598819771294       97.51124970259899      106.72116990133780
H          105.95449700226231       95.06828770775792      106.79202776073417
H          104.38497782096850       94.85448331974237      107.56201027582391
H          105.14925837450438       96.15573404139073      109.52327430116000
H          106.71720376931164       96.40882069936028      108.75944137690139
H          107.20132093395594       94.01700679392717      108.82375695572054
H          105.55869755096332       93.65542641655244      109.35032851598940
H          107.08660302122435       93.49335029691599      111.23135442322975
H          105.95230925377733       94.81638008031051      111.49338654989502
H          107.64528298652132       96.47068119123664      110.93920847744320
H          108.74987034634378       95.22275630889959      110.36155502035157
H          108.94286599379819       94.30167061840741      112.63963367006744
H          107.78567139285687       95.48308862925613      113.24378350601117
H          109.31673584927557       97.32892466873447      112.69236489869149
H          110.43955802903791       96.21005321911663      111.92431342488590
H          110.81873296952307       95.06215598369047      114.07681598141855
H          109.66147977087695       96.12227885501525      114.87255130965528
H          111.07919837378618       98.07974949982423      114.40799507895494
H          112.21728544760350       97.07723111349375      113.50482529899961
H          112.65756342667575       95.72912717799400      115.54350652509804
H          111.55340033711606       96.74291293361117      116.46307153628521
H          114.06758692431302       97.77707699491820      115.07819288122872
H          113.98750369073194       97.27954114228932      116.76911492063424
H          112.20777962799455       99.00141950991006      117.15444635507586
H          112.41842416123887       99.55414181402092      115.49360335213419
H          113.64098595980477      101.00860623530382      116.95242171157297
H          114.79745785204014      100.09402331609131      115.98301323425433
H          115.53553177061484       98.83678149699230      117.84832666167034
H          114.01519332736457       99.06668775449958      118.71703616799444
H          115.76369880770480      100.36014289187580      119.79830451710794
H          114.54232651438227      101.42380925938633      119.10280408755619
H          116.04628617718369      101.79384954849374      117.12277590658717
H          117.26847139295052      100.79119202830222      117.90623521889309
H          117.81727349702273      103.09205210164330      118.28722042358922
H          117.29776805598490      102.41552081776933      119.83102955252114
H          115.12984882766024      103.50510415508015      119.65214238295663
H          115.45492047063341      103.99927465436009      117.99555458840111
H          116.92524508517872      104.94674901679113      120.49456411671859
H          115.68289445996486      105.84080196882105      119.62279592720746
H          118.48641347766858      105.15505956826229      118.63366764971454
H          117.84628752584891      106.73353310643870      119.06879330441781
H          116.18498212097725      106.52898753731131      117.18208637111717
H          116.98436265082422      105.03531490646034      116.68751388500655
H          119.10217071863758      106.24982948041648      116.34311988140102
H          118.35363167066544      107.74454392280691      116.89678882070035
H          116.69394217716619      107.59277016308936      115.04976008729994
H          117.49762241313280      106.14883340092301      114.44066106441318
H          119.05297469639284      108.72316096039181      114.82670601010939
H          118.03764310672109      108.50572626639243      113.40566586787969
H          119.28326568002637      106.54529408898195      112.70964572656243
H          120.24822846845402      106.56454759474828      114.18554147288521
H          121.36998327137614      108.58962553113668      113.55569967322073
H          120.17104318792268      108.95892274269784      112.32107885739570
H          122.22672339443558      108.23218619000529      111.27048513735866
H          120.92432435293094      107.08948839895349      110.94175930003405
H          121.82816010348407      105.49972667221901      112.55101827753322
H          122.97453844620668      106.68626309478398      113.15660905052377
H          124.04314188348883      105.01608898701973      111.67469153241282
H          124.24617412860789      106.67558735714267      111.11733256781493
H          123.80881419208974      105.23165562613222      109.22665074976460
H          122.48219150074382      106.36638929109824      109.42977831249067
H          121.23398771802904      104.52146737612422      110.67857656316789
H          122.49754999674541      103.40925291158322      110.15931056986838
H          122.01084807175582      103.98896683905841      107.78264522089262
H          120.76765666818117      105.11395887810393      108.31094030575082
H          120.77035340917564      102.08477600488634      108.64274085318311
H          119.75930740299628      103.03589605937101      107.55863158945286
H          119.61974093364191      102.92990017813442      110.59852458281652
H          118.44420078438984      102.31590880930383      109.44244646706279
H          118.04730907534858      104.68584447336065      108.66590002937926
H          119.11059538660774      105.24563243093984      109.95461780693948
H          117.62546461054491      104.09187996995385      111.62731616332491
H          116.52176083423988      103.68918821628301      110.31513788034056
H          116.35067971175992      106.16111330228019      109.78979954359343
H          117.31957014173963      106.49351912264380      111.22053699883125
H          115.57350590252962      105.33370631911335      112.62080689590709
H          114.59662010306518      105.12892132764514      111.16841639421985
H          114.70963415731327      107.66961231948642      110.87117689732780
H          115.48263043136099      107.74186122109465      112.45452862304329
H          113.21031756250954      108.19787462009326      112.89426200524511
H          113.39420886658210      106.50400232208499      113.35119866873791
H          112.47430000128873      105.84721062737196      111.10908360284311
H          112.27089388944083      107.55312156862429      110.71510771942154
H          110.78974736586579      107.76994342950445      112.76370176507619
H          110.85997287293691      106.01838125559983      112.93830212468531
H          109.79148569103083      107.53040483702019      110.51171871857159
H          108.80571517539784      106.79312244603754      111.77063917743698
H          109.73172081536603      104.54882575353950      111.15432503499703
H          110.66917071448110      105.31840975379977      109.87107338884933
H          108.49444681536058      106.19350521209464      108.90586062284645
H          107.63727335206129      105.23274590313819      110.10351904496717
H          107.66570693114950      104.02763047823619      108.01635658712655
H          108.69559073003063      103.15885368654882      109.15523510352554
H          110.70615854305690      103.98764802441362      108.08516040826345
H          109.79230814840516      105.19198128236123      107.17685775792188
H          108.69211188614631      103.36271513534636      105.88917304413398
H          109.64822190975390      102.17328266451509      106.77884884680185
H          111.73157959365341      103.20546042231639      105.96050972015851
H          110.80796071772315      104.44343943877713      105.10726036402301
H          109.69091690976924      102.51363533783987      103.81894643648245
H          110.95025761976837      101.47227909501045      104.48159400331507
H          111.35543646136341      103.95886404268504      102.77043991687250
H          111.51147837474163      102.29228959104654      102.21578928179723
H          113.39636812043607      101.95085962779991      103.80647083299580
H          113.28365039003454      103.64045277270216      104.29562627227655
H          113.89647534075090      102.69611234991004      101.46661020620601
H          115.08600329894918      103.22888021348089      102.65073592678085
H          113.88550249494712      105.45007175831383      102.76788314189193
H          112.87200069210309      104.92252195153860      101.42166516882818
H          114.96530727733855      104.52984483983984      100.07214126227265
H          115.89459791095356      105.26723421211018      101.37813813562130
H          113.66574285288175      106.61058782741276       99.78645202539455
H          115.39179995289459      106.85138692690292       99.53417869763358
H          115.56320547075376      107.68124487357666      101.91461220659959
H          113.80565632987806      107.65460622528704      102.00867325925863
H          115.37795240478363      109.19382009334390       99.90772726777293
H          114.86373017698263      109.89427672945280      101.43729997435582
H          112.96819406462258      108.78464062715788       99.31972146953524
H          113.41722069825460      110.47368810546745       99.51697820013703
H          112.53993196520621      110.31137358837559      101.91198079437601
H          111.78834012052309      108.78423750395163      101.45088847931204
H          110.50423242121266      109.89855254725349       99.68688298815783
H          111.35587162408741      111.41188799045764       99.97624226530193
H          109.48693757723740      110.04889278424967      101.95851722854785
H          109.10075153994657      111.43580461785008      100.93651463872338
H          111.07535163695492      112.64117902509140      102.07121346223131
H          111.07622535325486      111.32354340800750      103.24426284834686
H          108.65764063105910      111.82771931569097      103.73539877285661
H          108.77487058018401      113.23090292543995      102.67340990378159
H          110.64399848118416      114.11254101153716      104.09893718583390
H          110.45035032701905      112.72861443530797      105.17138380355944
H          108.09979411496826      113.44012332541649      105.63649939468463
H          108.34530339837765      114.86211930521469      104.62584856529126
H          110.18040035767994      115.61734532993903      106.12104462630761
H          109.97317867916576      114.17947401500196      107.11493732025139
H          107.63693731647666      114.88400651237239      107.63482116754076
H          107.86793652088672      116.34047407194610      106.67265354492260
H          109.68324455557776      117.07625850467782      108.19058811225875
H          109.51837050218712      115.59699254040038      109.12918659034332
H          107.16782211719683      116.21676115184270      109.68660271130956
H          107.34477857099525      117.70751613636072      108.76627047409640
H          109.13136834005847      118.46815167631732      110.30218822475611
H          109.03441419316196      116.95465988823862      111.19285485684604
H          106.66048703893873      117.45399277772594      111.77515749556127
H          106.77042698130882      118.98242305984117      110.90648847863697
H          108.51816411438379      119.77059565957292      112.47411730950458
H          108.50285948983324      118.21808267297794      113.29859932689770
H          106.09502949140570      118.56470077846667      113.87775911148492
H          106.14588304102251      120.14878068514740      113.10853710419384
H          107.85924570774895      120.89374227960597      114.75397081261958
H          107.85233872564753      119.29653733581004      115.49271747443534
H          105.39667743502370      119.56585266082809      115.97023819441277
H          105.47899622188591      121.20958264814942      115.34533533645630
H          107.11769979534097      121.80351574671491      117.12680772273987
H          107.06465489260131      120.14766468209086      117.72670837364117
H          104.62692533752258      120.37980563702807      118.15924657673723
H          104.67500475857892      122.04020982451183      117.57643441068151
H          106.22824986256038      122.64211979891763      119.42704079763679
H          106.20742259198533      120.97032363799838      119.98656980830249
H          103.75047280489399      121.11830337960066      120.34255396613104
H          103.77711286149007      122.79919241214517      119.80784772057298
H          105.12972157307189      123.44631704029828      121.73642368292677
H          105.39470706963510      121.75040274889918      122.15529540936969
H          103.75474730023852      122.61329725919435      123.67936431263018
H          102.94464938694099      121.49459010201751      122.58295781417421
H          102.15977824591349      123.46676483391288      121.23131138363438
H          102.87952612919190      124.53864756292975      122.43190005069815
[...]
  3011   6 C     3012   6 C                                       1.5262732
  3012   6 C     3013   6 C                                       1.5272448
  3013   6 C     3014   6 C                                       1.5263126
  3014   6 C     3015   6 C                                       1.5271340
  3015   6 C     3016   6 C                                       1.5238301
  3015   6 C     3017   1 H                                       1.0923457
  3015   6 C     3018   1 H                                       1.0924469
  3014   6 C     3019   1 H                                       1.0925850
  3014   6 C     3020   1 H                                       1.0934356
  3013   6 C     3021   1 H                                       1.0924978
  3013   6 C     3022   1 H                                       1.0926573
  3012   6 C     3023   1 H                                       1.0925044
  3012   6 C     3024   1 H                                       1.0932771
  3011   6 C     3025   1 H                                       1.0922275
  3011   6 C     3026   1 H                                       1.0926312
  3010   6 C     3027   1 H                                       1.0924237
  3010   6 C     3028   1 H                                       1.0930184
  3009   6 C     3029   1 H                                       1.0922784
  3009   6 C     3030   1 H                                       1.0927229
  3008   6 C     3031   1 H                                       1.0924436
  3008   6 C     3032   1 H                                       1.0927093
  3007   6 C     3033   1 H                                       1.0925114
  3007   6 C     3034   1 H                                       1.0926585
  3006   6 C     3035   1 H                                       1.0926570
  3006   6 C     3036   1 H                                       1.0924582
  3005   6 C     3037   1 H                                       1.0927920
  3005   6 C     3038   1 H                                       1.0925776
  3004   6 C     3039   1 H                                       1.0929650
  3004   6 C     3040   1 H                                       1.0926114
  3003   6 C     3041   1 H                                       1.0930092
  3003   6 C     3042   1 H                                       1.0911286
  3002   6 C     3043   1 H                                       1.0927916
  3002   6 C     3044   1 H                                       1.0932747
  3001   6 C     3045   1 H                                       1.0936554
  3001   6 C     3046   1 H                                       1.0930368
  3000   6 C     3047   1 H                                       1.0901169
  3000   6 C     3048   1 H                                       1.0923902
  2999   6 C     3049   1 H                                       1.0918212
  2999   6 C     3050   1 H                                       1.0921372
  2998   6 C     3051   1 H                                       1.0924778
  2998   6 C     3052   1 H                                       1.0923680
  2997   6 C     3053   1 H                                       1.0914996
  2997   6 C     3054   1 H                                       1.0913457
  2996   6 C     3055   1 H                                       1.0929791
  2996   6 C     3056   1 H                                       1.0923922
  2995   6 C     3057   1 H                                       1.0913428
  2995   6 C     3058   1 H                                       1.0928002
  2994   6 C     3059   1 H                                       1.0925497
  2994   6 C     3060   1 H                                       1.0911207
  2993   6 C     3061   1 H                                       1.0925582
  2993   6 C     3062   1 H                                       1.0920886
  2992   6 C     3063   1 H                                       1.0926188
  2992   6 C     3064   1 H                                       1.0920050
  2991   6 C     3065   1 H                                       1.0928430
  2991   6 C     3066   1 H                                       1.0920894
  2990   6 C     3067   1 H                                       1.0921391
  2990   6 C     3068   1 H                                       1.0929539
  2989   6 C     3069   1 H                                       1.0923454
  2989   6 C     3070   1 H                                       1.0925171
  2988   6 C     3071   1 H                                       1.0919010
  2988   6 C     3072   1 H                                       1.0921865
  2987   6 C     3073   1 H                                       1.0933145
  2987   6 C     3074   1 H                                       1.0928906
  2986   6 C     3075   1 H                                       1.0912883
  2986   6 C     3076   1 H                                       1.0940511
  2985   6 C     3077   1 H                                       1.0908799
  2985   6 C     3078   1 H                                       1.0902546
  2984   6 C     3079   1 H                                       1.0932660
  2984   6 C     3080   1 H                                       1.0926094
  2983   6 C     3081   1 H                                       1.0930365
  2983   6 C     3082   1 H                                       1.0924647
  2982   6 C     3083   1 H                                       1.0913352
  2982   6 C     3084   1 H                                       1.0924938
  2981   6 C     3085   1 H                                       1.0911823
  2981   6 C     3086   1 H                                       1.0926918
  2980   6 C     3087   1 H                                       1.0932736
  2980   6 C     3088   1 H                                       1.0917019
  2979   6 C     3089   1 H                                       1.0921119
  2979   6 C     3090   1 H                                       1.0919402
  2978   6 C     3091   1 H                                       1.0904637
  2978   6 C     3092   1 H                                       1.0920567
  2977   6 C     3093   1 H                                       1.0917397
  2977   6 C     3094   1 H                                       1.0904864
  2976   6 C     3095   1 H                                       1.0930071
  2976   6 C     3096   1 H                                       1.0914631
  2975   6 C     3097   1 H                                       1.0921549
  2975   6 C     3098   1 H                                       1.0919210
  2974   6 C     3099   1 H                                       1.0929222
  2974   6 C     3100   1 H                                       1.0914579
  2973   6 C     3101   1 H                                       1.0925782
  2973   6 C     3102   1 H                                       1.0919240
  2972   6 C     3103   1 H                                       1.0929947
  2972   6 C     3104   1 H                                       1.0915409
  2971   6 C     3105   1 H                                       1.0929553
  2971   6 C     3106   1 H                                       1.0920881
  2970   6 C     3107   1 H                                       1.0927554
  2970   6 C     3108   1 H                                       1.0917549
  2969   6 C     3109   1 H                                       1.0932547
  2969   6 C     3110   1 H                                       1.0924231
  2968   6 C     3111   1 H                                       1.0919946
  2968   6 C     3112   1 H                                       1.0920222
  2967   6 C     3113   1 H                                       1.0934430
  2967   6 C     3114   1 H                                       1.0926480
  2966   6 C     3115   1 H                                       1.0914292
  2966   6 C     3116   1 H                                       1.0923757
  2965   6 C     3117   1 H                                       1.0935805
  2965   6 C     3118   1 H                                       1.0921225
  2964   6 C     3119   1 H                                       1.0926489
  2964   6 C     3120   1 H                                       1.0926107
  2963   6 C     3121   1 H                                       1.0918459
  2963   6 C     3122   1 H                                       1.0918633
  2962   6 C     3123   1 H                                       1.0927815
  2962   6 C     3124   1 H                                       1.0922807
  2961   6 C     3125   1 H                                       1.0936774
  2961   6 C     3126   1 H                                       1.0921671
  2960   6 C     3127   1 H                                       1.0926682
  2960   6 C     3128   1 H                                       1.0897439
  2959   6 C     3129   1 H                                       1.0930761
  2959   6 C     3130   1 H                                       1.0934010
  2958   6 C     3131   1 H                                       1.0929286
  2958   6 C     3132   1 H                                       1.0928642
  2957   6 C     3133   1 H                                       1.0906975
  2957   6 C     3134   1 H                                       1.0924428
  2956   6 C     3135   1 H                                       1.0920022
  2956   6 C     3136   1 H                                       1.0923687
  2955   6 C     3137   1 H                                       1.0929909
  2955   6 C     3138   1 H                                       1.0927447
  2954   6 C     3139   1 H                                       1.0919613
  2954   6 C     3140   1 H                                       1.0924314
  2953   6 C     3141   1 H                                       1.0938923
  2953   6 C     3142   1 H                                       1.0928872
  2952   6 C     3143   1 H                                       1.0916220
  2952   6 C     3144   1 H                                       1.0917060
  2951   6 C     3145   1 H                                       1.0931744
  2951   6 C     3146   1 H                                       1.0899861
  2950   6 C     3147   1 H                                       1.0911101
  2950   6 C     3148   1 H                                       1.0936900
  2949   6 C     3149   1 H                                       1.0930796
  2949   6 C     3150   1 H                                       1.0922075
  2948   6 C     3151   1 H                                       1.0934693
  2948   6 C     3152   1 H                                       1.0931786
  2947   6 C     3153   1 H                                       1.0930992
  2947   6 C     3154   1 H                                       1.0911583
  2946   6 C     3155   1 H                                       1.0921335
  2946   6 C     3156   1 H                                       1.0924985
  2945   6 C     3157   1 H                                       1.0937348
  2945   6 C     3158   1 H                                       1.0928730
  2944   6 C     3159   1 H                                       1.0917206
  2944   6 C     3160   1 H                                       1.0922300
  2943   6 C     3161   1 H                                       1.0928025
  2943   6 C     3162   1 H                                       1.0912494
  2942   6 C     3163   1 H                                       1.0926032
  2942   6 C     3164   1 H                                       1.0931467
  2941   6 C     3165   1 H                                       1.0930812
  2941   6 C     3166   1 H                                       1.0917773
  2940   6 C     3167   1 H                                       1.0930760
  2940   6 C     3168   1 H                                       1.0933891
  2939   6 C     3169   1 H                                       1.0933217
  2939   6 C     3170   1 H                                       1.0924916
  2938   6 C     3171   1 H                                       1.0927712
  2938   6 C     3172   1 H                                       1.0916336
  2937   6 C     3173   1 H                                       1.0915402
  2937   6 C     3174   1 H                                       1.0930482
  2936   6 C     3175   1 H                                       1.0936497
  2936   6 C     3176   1 H                                       1.0923440
  2935   6 C     3177   1 H                                       1.0923428
  2935   6 C     3178   1 H                                       1.0902312
  2934   6 C     3179   1 H                                       1.0914674
  2934   6 C     3180   1 H                                       1.0923889
  2933   6 C     3181   1 H                                       1.0934792
  2933   6 C     3182   1 H                                       1.0912918
  2932   6 C     3183   1 H                                       1.0906487
  2932   6 C     3184   1 H                                       1.0933042
  2931   6 C     3185   1 H                                       1.0927354
  2931   6 C     3186   1 H                                       1.0923588
  2930   6 C     3187   1 H                                       1.0922884
  2930   6 C     3188   1 H                                       1.0929464
  2929   6 C     3189   1 H                                       1.0910520
  2929   6 C     3190   1 H                                       1.0932126
  2928   6 C     3191   1 H                                       1.0927265
  2928   6 C     3192   1 H                                       1.0924560
  2927   6 C     3193   1 H                                       1.0920539
  2927   6 C     3194   1 H                                       1.0926356
  2926   6 C     3195   1 H                                       1.0929877
  2926   6 C     3196   1 H                                       1.0903217
  2925   6 C     3197   1 H                                       1.0929015
  2925   6 C     3198   1 H                                       1.0928083
  2924   6 C     3199   1 H                                       1.0932057
  2924   6 C     3200   1 H                                       1.0920141
  2923   6 C     3201   1 H                                       1.0918468
  2923   6 C     3202   1 H                                       1.0932049
  2922   6 C     3203   1 H                                       1.0925103
  2922   6 C     3204   1 H                                       1.0922690
  2921   6 C     3205   1 H                                       1.0908230
  2921   6 C     3206   1 H                                       1.0930747
  2920   6 C     3207   1 H                                       1.0924263
  2920   6 C     3208   1 H                                       1.0929051
  2919   6 C     3209   1 H                                       1.0928766
  2919   6 C     3210   1 H                                       1.0932109
  2918   6 C     3211   1 H                                       1.0927954
  2918   6 C     3212   1 H                                       1.0920297
  2917   6 C     3213   1 H                                       1.0906394
  2917   6 C     3214   1 H                                       1.0928031
  2916   6 C     3215   1 H                                       1.0940576
  2916   6 C     3216   1 H                                       1.0918586
  2915   6 C     3217   1 H                                       1.0935164
  2915   6 C     3218   1 H                                       1.0927019
  2914   6 C     3219   1 H                                       1.0920081
  2914   6 C     3220   1 H                                       1.0906566
  2913   6 C     3221   1 H                                       1.0938867
  2913   6 C     3222   1 H                                       1.0925169
  2912   6 C     3223   1 H                                       1.0922350
  2912   6 C     3224   1 H                                       1.0927165
  2911   6 C     3225   1 H                                       1.0934477
  2911   6 C     3226   1 H                                       1.0926701
  2910   6 C     3227   1 H                                       1.0925411
  2910   6 C     3228   1 H                                       1.0923917
  2909   6 C     3229   1 H                                       1.0932140
  2909   6 C     3230   1 H                                       1.0926970
  2908   6 C     3231   1 H                                       1.0926452
  2908   6 C     3232   1 H                                       1.0921695
  2907   6 C     3233   1 H                                       1.0932878
  2907   6 C     3234   1 H                                       1.0925226
  2906   6 C     3235   1 H                                       1.0926596
  2906   6 C     3236   1 H                                       1.0920032
  2905   6 C     3237   1 H                                       1.0934864
  2905   6 C     3238   1 H                                       1.0923091
  2904   6 C     3239   1 H                                       1.0926535
  2904   6 C     3240   1 H                                       1.0919420
  2903   6 C     3241   1 H                                       1.0936721
  2903   6 C     3242   1 H                                       1.0922012
  2902   6 C     3243   1 H                                       1.0926684
  2902   6 C     3244   1 H                                       1.0920320
  2901   6 C     3245   1 H                                       1.0937368
  2901   6 C     3246   1 H                                       1.0923246
  2900   6 C     3247   1 H                                       1.0928808
  2900   6 C     3248   1 H                                       1.0923358
  2899   6 C     3249   1 H                                       1.0935861
  2899   6 C     3250   1 H                                       1.0925106
  2898   6 C     3251   1 H                                       1.0920291
  2898   6 C     3252   1 H                                       1.0923173
  2897   6 C     3253   1 H                                       1.0884953
  2897   6 C     3254   1 H                                       1.0867396
  2897   6 C     3255   1 H                                       1.0880205
  3016   6 C     3256   1 H                                       1.0878344
  3016   6 C     3257   1 H                                       1.0885689
  3016   6 C     3258   1 H                                       1.0878740

 * 2 distinct bonds (by element types)

   Z      Z             #   av. dist./Å        max./Å        min./Å
   1 H    6 C        2178     1.0923085     1.0942637     1.0860108
   6 C    6 C        1071     1.5273371     1.5360062     1.5220270


optimized geometry written to: xtbopt.xyz


           -------------------------------------------------
          | TOTAL ENERGY            -3427.559750990871 Eh   |
          | GRADIENT NORM               0.000991505133 Eh/α |
          | HOMO-LUMO GAP              11.465995018378 eV   |
           -------------------------------------------------

------------------------------------------------------------------------
 * finished run on 2024/10/04 at 13:39:15.255     
------------------------------------------------------------------------
 total:
 * wall-time:     0 d,  5 h, 32 min, 56.050 sec
 *  cpu-time:     1 d,  4 h, 17 min, 44.040 sec
 * ratio c/w:     5.099 speedup
 SCF:
 * wall-time:     0 d,  0 h, 13 min, 43.956 sec
 *  cpu-time:     0 d,  1 h, 27 min,  2.776 sec
 * ratio c/w:     6.339 speedup
 ANC optimizer:
 * wall-time:     0 d,  5 h, 18 min, 30.371 sec
 *  cpu-time:     1 d,  2 h, 49 min, 44.884 sec
 * ratio c/w:     5.054 speedup

