3258
 energy: -3427.486526443128 gnorm: 0.000963640074 xtb: 6.6.1 (8d0f1dd)
C          112.86883232129307      128.72530626655080      102.53502862426032
C          111.72026251623272      127.87168120980721      103.05897553240305
C          111.15884350368580      128.42379887385681      104.36650570808629
C          109.93588376518454      127.66378397737608      104.88040084184499
C          110.19635011462972      126.22736264690256      105.34111170497005
C          111.16895217161829      126.13442389599723      106.51653938545050
C          111.18489831227078      124.75425796654116      107.17991823301382
C          109.96354600197535      124.50255209174692      108.06319272017470
C          110.08303201157868      123.21838078168982      108.88311253119340
C          108.89795684498067      123.05112263677614      109.83296690811468
C          109.06493339410962      121.93080251625861      110.85996903584055
C          109.12582404387332      120.53211463139874      110.24995227391359
C          109.05245501962031      119.41179102890867      111.29345130282594
C          110.12129201227634      119.53894845063223      112.38546469388045
C          110.66054068737903      118.21007341005311      112.92028479764605
C          109.61348717154412      117.25182283783548      113.48249717976717
C          110.28903407341785      116.03894302966400      114.12578557641739
C          109.30022407830417      114.93823375116432      114.50117062027159
C          109.96649631349962      113.79716758526203      115.26850045372163
C          109.00267859963067      112.63911360928770      115.52186669911821
C          109.59095869223977      111.57637398672090      116.44668043254968
C          108.66747717153629      110.36900047942028      116.59666605883582
C          109.18546562027372      109.37506048014110      117.63321610112612
C          108.30571181707825      108.13131873578138      117.73692822224433
C          108.78794379613214      107.18125064246490      118.83058648972923
C          107.90966293247304      105.93831523717613      118.95835233421917
C          108.45356255482420      104.95911304568604      119.99601093976297
C          107.50809261405260      103.78641038634325      120.25221558396646
C          108.17854670803237      102.69678693250744      121.08608881426700
C          107.24564143034138      101.53628914955776      121.43727771853275
C          106.34613268598990      101.86070493505432      122.62712695385220
C          105.44947389553644      100.69664441971972      123.05103333765966
C          104.38327766654686      100.29889376697447      122.02775499245134
C          103.46252114144335      101.45928469638828      121.65444949374921
C          102.20771251226826      101.00075070782840      120.91376624743263
C          101.38183417493839      102.17027114672722      120.37615215737523
C          100.83956989105808      103.07940096901460      121.47675259141035
C           99.97550707474490      104.20952139734686      120.92271854047999
C           99.51221595684503      105.15483964346434      122.03034293397046
C           98.54040777583427      106.22989362067662      121.54270540914808
C           99.17089386972400      107.29398908900200      120.64341426367862
C          100.01763313348110      108.32153329793110      121.39290668671934
C          100.58152245141825      109.36342481419294      120.42911932990596
C          101.25285722644713      110.54178622444738      121.13014461942862
C          101.77701652817828      111.56062995978998      120.11986280261286
C          102.28908192495598      112.84010784194076      120.77532966682530
C          102.73555688146286      113.86912553199920      119.73885936208521
C          103.21990713546445      115.16488285192584      120.38300742857550
C          103.60883522000611      116.21811281416888      119.34828942600281
C          104.12874388200912      117.49330977383808      120.00575753861179
C          104.48535956806118      118.57564285616655      118.99017047253102
C          105.04552127348137      119.82159487899578      119.67017136024965
C          105.39976921159183      120.92724872350958      118.67951348166250
C          105.99014510108674      122.14532443407469      119.38515618984991
C          106.40806183830082      123.23460200640912      118.40130151671333
C          106.88444288429554      124.51965527445073      119.07889203072008
C          108.11695102979421      124.32512405247566      119.96091495572443
C          108.69652792054038      125.66141083270902      120.42111613855913
C          109.93477015310152      125.50733929684490      121.30709776746089
C          111.18816092021426      125.12323480865328      120.52389196111562
C          112.39525895549257      124.90793955917009      121.43312408904916
C          113.67084956969140      124.63526038167994      120.63870541902757
C          114.85214881005545      124.31713740401155      121.55153826988163
C          116.14877525192060      124.03240662993407      120.79324458785732
C          116.15713756332055      122.67956816760008      120.08601017662369
C          117.52461693631787      122.37552886817156      119.47830389856287
C          117.59374675004968      121.02634718992408      118.76238542915014
C          117.41533552201983      119.84499475149534      119.71305972353441
C          117.74393520148958      118.50426493403153      119.06054962812748
C          117.37530157941708      117.34263657314540      119.97898740978265
C          117.72879329433174      115.98248350289438      119.38721073591290
C          117.30672254511917      114.83581656059174      120.30124052144602
C          117.64369286206176      113.46629143667725      119.71710535650742
C          117.45213251710166      112.35053113715404      120.74108317325845
C          117.80115302077687      110.97440354956376      120.17561357433226
C          118.14327289475820      109.95477766767000      121.26133752457184
C          116.96294504892252      109.57831122492993      122.15102190209716
C          117.37302647821137      108.57356442537548      123.22609359524598
C          116.16403543416907      107.98519198214599      123.94675447033943
C          116.51831696905774      106.86390658689143      124.92340301662593
C          117.21111916763795      107.34949708133772      126.19582498711145
C          117.44070586897983      106.21987985335539      127.20198660671771
C          118.58464697214467      105.29312740504220      126.79445059380750
C          118.71618084011369      104.05399371799511      127.68150116058519
C          117.51776074040983      103.10083044713251      127.63924827720074
C          117.15306962095627      102.64704203270190      126.22735025251393
C          116.07639089794129      101.56295339092561      126.23084595602528
C          115.60766767363738      101.19270289930124      124.82119317922781
C          114.69086273579181      102.25031003034961      124.20953782999619
C          114.33480581669761      101.93824485178180      122.75759932093499
C          113.27517296812341      102.87912205125710      122.18153662622770
C          113.72172133993482      104.33814891736179      122.17114939850691
C          112.72635075418121      105.26615213691194      121.47692593005577
C          113.21498869331838      106.70927725044382      121.55272709093271
C          112.33094476760380      107.72293819170959      120.83181904243075
C          112.91150550212470      109.12471401624251      120.99644279016664
C          112.09201399777290      110.22832296861533      120.33584423170912
C          112.78423487716690      111.57838859744655      120.51388533610431
C          111.93249044737136      112.75313844263502      120.04420266119088
C          112.67005294198879      114.09054835745488      120.12440039959058
C          113.18098235805489      114.41099621976439      121.52829636343796
C          113.62985778666913      115.86251694635175      121.66379984106281
C          114.21625573336227      116.15039563250340      123.04308968342487
C          114.79084821163821      117.56026455714145      123.15569057764760
C          115.36580832460284      117.82144133232818      124.54560006182788
C          116.02667964811546      119.19317778768107      124.69317603950475
C          117.26629567105320      119.41270734866140      123.82182122610260
C          118.36026885246736      118.37075502414397      124.04980908894429
C          119.67814207624056      118.76092945034188      123.38041271979935
C          120.73094362363672      117.65136628393181      123.45640426157446
C          120.46583800328825      116.52814667880992      122.45712199690450
C          121.45480728377059      115.37137481990177      122.57862027446376
C          121.15154333509993      114.28925925929002      121.54606376270601
C          122.05716082572604      113.06557842171948      121.65682275258817
C          121.63939297389626      111.99190514854941      120.65588201042208
C          122.50721082216923      110.73801595540506      120.71038225821788
C          121.97360558805116      109.65885643394689      119.77048342336336
C          122.88901776633625      108.44073170558546      119.68420693864499
C          122.24448186025796      107.30804179027837      118.88919850447077
C          123.16908057556284      106.10592505931098      118.74682095554694
H          121.32514671231543      106.99765046699055      119.39022643967911
H          121.96816506012907      107.67668416722623      117.89902515638640
H          123.83155369423355      108.72838484836443      119.21188065659217
H          123.12014779047838      108.08618774994433      120.69029775601254
H          120.98754730136561      109.34278649176665      120.11930263960929
H          121.84338714380014      110.08007976510559      118.77032904787154
H          123.53302710261669      110.99054944654020      120.43461828996280
H          122.52418081098675      110.35039390354268      121.73130205336241
H          120.60271662610359      111.71312070398491      120.85372461940302
H          121.67993175088978      112.40939146637572      119.64666181108093
H          123.09439976776338      113.35550963476980      121.47620419024673
H          122.00123571984808      112.65820523192315      122.66969329781013
H          120.11372780981769      113.97036603114940      121.66648856474050
H          121.24885522402168      114.71488805144388      120.54469733918988
H          122.47447219163557      115.73872318164861      122.43936461525719
H          121.39328048933399      114.94579216551931      123.58338312469385
H          119.45859200556080      116.13606387898875      122.60969671619603
H          120.51302119137320      116.93459919604157      121.44404404447647
H          121.71809354482301      118.07544275496500      123.25527512222359
H          120.75201613723939      117.24347451441874      124.46991079102759
H          119.49700641345842      119.00825696756444      122.33134713564074
H          120.06528124226523      119.66004440762613      123.86626191052534
H          118.52895730606257      118.25234896902128      125.12311608056731
H          118.02671617011460      117.40964328395432      123.65762502770770
H          116.98251800395816      119.41367695548703      122.76825578289603
H          117.66724306134768      120.40400051647293      124.04975552955605
H          115.29312139177487      119.96790680516374      124.45497844006374
H          116.31151935640985      119.32286367871872      125.74049047281811
H          114.55809933820500      117.74878912408224      125.27903154173691
H          116.09090169187766      117.04236910869504      124.78755605163749
H          115.57492361396423      117.68053102485982      122.40724112885201
H          114.00786543286620      118.29224995154998      122.94284234392988
H          113.44189336706737      116.01124746807537      123.80228846821653
H          115.01131254245006      115.42868156511850      123.24540049792660
H          114.38261160728135      116.07591757259279      120.90157979489734
H          112.78159280362223      116.52488620564642      121.47964635891555
H          112.39046147642561      114.21182799845496      122.25405899992640
H          114.02311574185316      113.75966406153600      121.76967931401904
H          113.51330298096248      114.08268086814809      119.42966613262122
H          111.98879997207172      114.88411378053928      119.80578713471341
H          111.61941811931159      112.58268663342250      119.01033117219768
H          111.03081023503832      112.80344326972286      120.65828545260659
H          113.01614328819676      111.70747071919246      121.57262712233435
H          113.73003151739343      111.57634572154673      119.96537930784690
H          111.96342954236322      110.01204613878423      119.27299962363013
H          111.09945235892019      110.26396647612987      120.78962982107849
H          113.00162433846135      109.34544162399554      122.06368454215944
H          113.92064243149665      109.13921190776585      120.57699574119198
H          112.26842630503482      107.47366919309513      119.77026346676452
H          111.31977409429243      107.68939373529561      121.24113160072595
H          113.28509097211803      106.99711256308618      122.60560278523577
H          114.22200748109151      106.76034634934459      121.13001014834086
H          112.61018931073123      104.96793246430491      120.43334261766091
H          111.74813409533206      105.18223273413702      121.95437040024345
H          113.85620722406674      104.68373081108064      123.19789886563132
H          114.69065925384031      104.41429333808168      121.67017833739983
H          113.04931382577421      102.56850305171432      121.15856187516886
H          112.35744313036837      102.78843662366535      122.76545378455452
H          115.24039194201056      101.99561249234000      122.14871940180161
H          113.96474700439823      100.91169421001869      122.69366410798929
H          113.77452825022323      102.31237242243913      124.80199391786887
H          115.18295171623075      103.22165700570353      124.25540446320117
H          116.48022245276323      101.05169441995612      124.17846626282929
H          115.07136475872866      100.24127152634071      124.85976759404393
H          116.47445816522500      100.67229385280390      126.72270075349122
H          115.21835975969420      101.90438885360719      126.81549058081286
H          116.79358580305630      103.50357056978507      125.65773622494619
H          118.04657067524072      102.26365472511610      125.72837670880017
H          117.76114111290167      102.22307243655486      128.24360341269971
H          116.64870880495280      103.57463290678609      128.10035742885833
H          119.60732498707500      103.50498054020078      127.36626637650923
H          118.87344085811806      104.36950516352634      128.71604770170845
H          118.45314012239785      104.97275897312470      125.76137291331372
H          119.52222146999206      105.85348074468516      126.84171353056077
H          117.66743323858566      106.64757877342676      128.18164092712075
H          116.51667530724384      105.64769944252468      127.30029911603829
H          118.17023784514042      107.80853042900671      125.95151131015643
H          116.58837903747597      108.11830852074046      126.66162239878288
H          115.59777130330748      106.34743217809660      125.20759590927531
H          117.15362549532077      106.13899494996517      124.40976536505268
H          115.63581374961997      108.77908904256813      124.47690238999893
H          115.48106735684978      107.58163505443557      123.19550124011863
H          117.93779668698303      107.76270758707069      122.76084897096652
H          118.03214467662740      109.06673700411525      123.94150102067255
H          116.55366590739509      110.47052091894351      122.62637685422841
H          116.17397951081071      109.14468597868189      121.53243882825603
H          118.51923131223371      109.04724151974843      120.78181443844883
H          118.94746570340359      110.35345812470490      121.88563384829931
H          116.97355852251320      110.60303851113645      119.56917402521978
H          118.66814903282001      111.07494888698930      119.51715065837455
H          118.09842356016917      112.55122693343291      121.59883055409236
H          116.41926918234857      112.35743399857198      121.09575598935825
H          117.01875377841624      113.27465701711066      118.84146138048015
H          118.68408174981926      113.46568066647053      119.38457729511634
H          117.81495855338004      114.95034853504266      121.26187772259158
H          116.23303547775151      114.89122213515914      120.49123786940298
H          117.24301238029207      115.87519207666752      118.41525377804329
H          118.80681996858046      115.92951311404663      119.22314413516776
H          117.88944372975457      117.46251105431908      120.93510097790569
H          116.30046848395358      117.38060416365580      120.17309173611564
H          117.19667271629019      118.40943951643916      118.11986017145647
H          118.81000716700058      118.46308434933434      118.82345392973767
H          118.06372161566530      119.98715806037241      120.58162947552144
H          116.38435041117810      119.81574844774080      120.07065875275491
H          116.82924515611084      120.98589816704171      117.98177608786369
H          118.56739274572585      120.94091774006201      118.27404945402084
H          117.77948175102270      123.16706977124750      118.76864214016460
H          118.27569140102200      122.39074952785262      120.27209712240833
H          115.89829793264590      121.90577788947505      120.81042211954680
H          115.40574370033966      122.66919121007533      119.29444610162972
H          116.32016779009079      124.82481091610668      120.06198465378293
H          116.97761122592358      124.05432273042727      121.50435772111520
H          115.01353271314790      125.16878877253102      122.21688726111243
H          114.60733763742469      123.45570806598214      122.17819548320504
H          113.49492637333461      123.80113088886208      119.95615649383086
H          113.91360652948700      125.51258805145311      120.03529351914896
H          112.54260075092554      125.79173177965727      122.05704708226985
H          112.19587591688904      124.06504796634722      122.10011857303505
H          111.00442209249726      124.20811716264976      119.95855412341059
H          111.41680552484281      125.91673969148727      119.80761180871043
H          110.12388539589344      126.45188796295551      121.82221463844169
H          109.73841976220199      124.75121073814739      122.07112250641168
H          108.95079904688239      126.26498773247499      119.54650770247389
H          107.92699867071865      126.20151163565460      120.97837070756019
H          107.85148241912566      123.73483546911753      120.83973278349330
H          108.87205829388097      123.77124567686241      119.40226173866361
H          107.11950889400791      125.25324757795943      118.30289135865014
H          106.07158735886783      124.93047922089839      119.68219201450859
H          107.20338643211335      122.84901332374233      117.75929390877158
H          105.55782705693186      123.47576056619150      117.75824013192997
H          105.25147642237540      122.54989597011773      120.08057612415668
H          106.85711513510238      121.82666464331595      119.96629607705458
H          106.12254775864410      120.54708966168583      117.95431549011987
H          104.50316452924608      121.22410632477107      118.12943040441803
H          104.31035502583413      120.20131092044826      120.38325112365622
H          105.94087975853067      119.54703785112275      120.23326441457668
H          105.22640676707189      118.18463388322203      118.28950213673403
H          103.59421620875916      118.84314467024460      118.41646065716084
H          103.36901797006334      117.87992642077475      120.68895209637188
H          105.01505066288765      117.25303482822279      120.59772273184844
H          104.38117974806113      115.81169282801417      118.69112084836122
H          102.74052413136945      116.45587284425530      118.72852336414242
H          102.42918068353650      115.56575059636766      121.02148488251783
H          104.08192067643014      114.94952316891198      121.01865362817337
H          103.54008367868117      113.44604422910052      119.13240048605719
H          101.90141672273228      114.08944013236760      119.06808727046096
H          101.49359433020143      113.27202716772922      121.38711918574147
H          103.12504622128809      112.60294946104135      121.43736195338600
H          102.58108975756538      111.10754492894537      119.53467662355243
H          100.97376398472404      111.81681843813398      119.42529027329049
H          100.52603917769646      111.02786912308429      121.78519473457835
H          102.07473227857280      110.18565127709677      121.75571886205046
H          101.29687570436749      108.88282710633050      119.75717743144780
H           99.76517384646949      109.74691996311971      119.81340608961048
H           99.39766759179555      108.82030148605814      122.14192488751893
H          100.83683635477978      107.82803076995252      121.91903035105281
H           99.78044632239916      106.81406070294770      119.87693512238667
H           98.36677046904401      107.82900402399781      120.13218976046558
H           97.73229951370304      105.73955530711416      120.99336079022835
H           98.09343885905103      106.72406609857920      122.40905266418342
H           99.01457883920854      104.56453731919930      122.80399757179342
H          100.38073752911527      105.62745665351925      122.49282300070767
H          100.55052774090817      104.76164030972230      120.17732128470644
H           99.10248411173338      103.78782654300545      120.41904335903479
H          100.25120663725491      102.48350864884388      122.17865392640233
H          101.67101687993855      103.51803211877873      122.02950457222771
H          102.00277185714698      102.76055653124189      119.69748609761226
H          100.54445864640208      101.77506951752011      119.79636131061162
H          102.49854420064251      100.36462848650051      120.07427245050826
H          101.59020174869568      100.39807730802107      121.58387252667841
H          103.17002720454323      101.97497917572856      122.57073691097789
H          104.00139261245803      102.16822013684720      121.02291460291674
H          104.86076218996774       99.89932471030659      121.13129853295705
H          103.78232923571659       99.49415707903609      122.45951796067280
H          106.07559356319489       99.82531717578667      123.26143939303223
H          104.94769629770620      100.97087467768716      123.98313788455900
H          106.98179854221436      102.12659063015202      123.47621863835190
H          105.73216937972128      102.73188188012031      122.39899670053700
H          106.63982837310495      101.28851186259968      120.56427488105562
H          107.84475405690617      100.65721084942481      121.68754968412614
H          109.03634820773465      102.31301652674975      120.52946287407255
H          108.55753919695066      103.13856919043714      122.00952619935138
H          106.61877257965115      104.14992986351179      120.76897426265815
H          107.18752186211978      103.36423298190753      119.29749570312100
H          109.42108699491251      104.57971908628615      119.65720644509348
H          108.62529563437329      105.49036424721741      120.93496474502395
H          106.89869905039899      106.23838969980893      119.24122595543609
H          107.84124307738323      105.43687062228352      117.98957871150473
H          109.81443204327151      106.87738015173011      118.61577640735223
H          108.79687786164718      107.71185579741376      119.78568821292106
H          107.27716799056171      108.43192150084185      117.94627401775799
H          108.30118365750498      107.61037901297159      116.77635911946885
H          110.20110953131021      109.07378409240273      117.36817693350166
H          109.23214301493510      109.86558566520036      118.60833704228732
H          107.67274651985602      110.70940972737709      116.89086523390876
H          108.56803240368558      109.86833694924105      115.63118042223458
H          110.55345490446862      111.24567025339447      116.05178206599845
H          109.77247443163513      112.01671297877022      117.43041261476129
H          108.08217374962430      113.02735366778624      115.96237938754706
H          108.73686100631474      112.17616494107000      114.56911862279894
H          110.82700318873802      113.43306480732072      114.70244940658424
H          110.34063101479059      114.17530561654237      116.22318046486295
H          108.49825431702526      115.36189527622740      115.10910286322063
H          108.84512793671435      114.54034001886929      113.59098580698605
H          111.02681035720538      115.62902236495903      113.43087583947712
H          110.82830836515726      116.36259543367095      115.01981421192239
H          108.99826011085847      117.76591261837653      114.22380046366770
H          108.95046627655654      116.91663438249026      112.68180989823135
H          111.20466759656799      117.69942652593176      112.12157815207510
H          111.38439301518595      118.43042804557007      113.71029881098347
H          110.97274664115052      120.08677384389061      111.97631498729322
H          109.72347574912951      120.12509107518750      113.21681374604289
H          108.06047606693964      119.41139466827748      111.75008088595277
H          109.16879724386693      118.45901126791880      110.77319098463653
H          108.29253141541108      120.41220365453719      109.55294521183166
H          110.04985383149956      120.42446421776573      109.67960424774303
H          109.96699087742100      122.11948300626996      111.44491304704522
H          108.21615126636623      121.97433779842525      111.54533067472215
H          108.75949853534232      123.98882098985221      110.37905176521087
H          107.98910984553430      122.87717705027264      109.25268882738754
H          110.14853022091494      122.35984936387548      108.21286178216515
H          111.00911558758101      123.25131413984406      109.46200386393450
H          109.84744891432904      125.34642974109401      108.74900418272475
H          109.06250593216755      124.45084680660179      107.44881433683322
H          111.24924967124842      123.98246919962637      106.41028672647298
H          112.08157969482437      124.67544288323218      107.80043128847876
H          112.17669237512582      126.36236366345140      106.16637457772204
H          110.90198138064071      126.88498545141429      107.26543788963635
H          109.23719706046326      125.79652646581658      105.63601750555682
H          110.57765643425557      125.63170835460086      104.50896598701631
H          109.51308052520564      128.22447534991582      105.71854620313535
H          109.18250427571067      127.64515961144875      104.08774707483983
H          111.93889336578133      128.42114720045569      105.12935465439199
H          110.86731175571606      129.46521965191860      104.20371450780479
H          110.92424800053544      127.83896242214162      102.31096002303799
H          112.07474053238222      126.85041302601418      103.21185433664800
H          113.68862809186139      128.74477104586009      103.25016744407685
H          113.24402452060724      128.32918641408176      101.59416608473222
H          112.53744031888418      129.74800148877370      102.36688814665580
H          124.08128409068864      106.38290387709269      118.22224325656966
H          123.44467562065260      105.71840089441594      119.72544966479643
H          122.68096392400669      105.30910424752700      118.18987561748094
C           95.80425085116474      113.55088766586233       97.55950512769169
C           97.13852742564653      114.25952457720362       97.36436671391137
C           98.18827168760060      113.32657402042692       96.76467233758483
C           99.56019756693307      113.98154960153158       96.60241397247309
C           99.57450532652528      115.09695158655585       95.55820546714897
C          100.98133321648713      115.59452573090402       95.22457295890968
C          101.69217743603814      116.25137304716138       96.40580508469913
C          103.04623698447421      116.82859320967393       96.00121308217498
C          103.81099744578898      117.38028482253686       97.20202777951901
C          105.21758606449589      117.86662607650265       96.84888251825284
C          106.17164475480624      116.71376482345289       96.54706100126866
C          107.60494137023741      117.16551143864213       96.27602934148780
C          108.47855670072703      115.97299579791822       95.89482609024702
C          109.94953705789931      116.32885524632606       95.70190748069821
C          110.75718481976728      115.09713903666491       95.29767136290319
C          112.26039821458805      115.35672923561093       95.28020306943877
C          113.05746254071357      114.09810263565591       94.94432870897155
C          114.55346655690578      114.26894313034080       95.19862374413371
C          115.32080961602128      112.96517561544263       94.99026586145078
C          116.77091209892902      113.05896123340422       95.45977848257537
C          117.49755277537741      111.72246896030761       95.32093790057114