3864
 energy: -5104.220942700652 gnorm: 0.000779445224 xtb: 6.6.1 (8d0f1dd)
C           44.16150782637040       35.65056850932130       65.94988589224323
C           45.21889813972927       35.87493952838020       65.07726903996095
C           45.11037539253124       35.40341766376262       63.77363702658950
C           43.97624359605944       34.73472552093070       63.35111900116495
C           42.92953839248984       34.51922748205504       64.23178904368923
C           43.02535309183381       34.97884537604896       65.53348716611312
C           46.44828209703685       36.61612103414478       65.54231664156873
C           47.68025538358582       35.71217031296747       65.45383816312992
C           46.65112433267408       37.90451242509007       64.73179255773829
C           45.42559462144286       38.82024718666386       64.81983351932864
C           45.16556134658310       39.26929520827240       66.23753050170818
C           46.12920971770053       39.95219014112696       66.97154943263730
C           45.86478383036000       40.39074629107130       68.25675056940867
C           44.62747017741214       40.15542850527029       68.83209787062422
C           43.65787962290320       39.47812333157098       68.11233817891234
C           43.92846005621675       39.04058887897970       66.82728549396427
C           45.54865946585901       40.07193349205119       63.93752331350333
C           45.71462429026894       39.83357784187107       62.42475795526094
C           45.64129701473725       41.18717704631329       61.75825244784032
C           46.80381295363078       41.83016248216282       61.35581381042622
C           46.76232924901205       43.10037257816328       60.80784261091500
C           45.55015847672261       43.74268595494419       60.63009898703820
C           44.38100312232661       43.10811132496976       61.01600937366337
C           44.43061770670484       41.84923219930221       61.58734307988175
C           44.67520007717241       38.84362021686694       61.88452898947357
C           44.64509379382750       38.76725041420323       60.35209225434574
C           46.02125424983426       38.60577744050880       59.75724080714035
C           46.45492876653490       39.46920790991749       58.75990017868615
C           47.69772791792986       39.30838834734563       58.17569319591800
C           48.53155331783564       38.28574459146686       58.58929846319845
C           48.11297327849019       37.41973525840132       59.58499215495691
C           46.86449572527103       37.57598518909582       60.15773576371537
C           43.77679270259588       37.59695661708187       59.85798660660836
C           42.34728804377687       37.55975852733938       60.42128816081795
C           41.68406782835184       36.26892074320144       60.01159199292059
C           41.44715703386154       35.94909447726555       58.68040909846457
C           40.87118466165911       34.74014731020413       58.33289761875464
C           40.51700029322165       33.82895262447222       59.31272101086201
C           40.74391044891385       34.13620805986122       60.64314145583804
C           41.32428862029063       35.34448990813769       60.98492630289278
C           41.53716578771211       38.79052411879643       59.99835367234544
C           40.13600813975421       38.84420863407479       60.62926806387961
C           40.20578411968221       38.60000644376068       62.11560931909993
C           39.56524540926864       37.50945424676057       62.68967661680585
C           39.66619931118738       37.25702625311395       64.04772361004498
C           40.41013878681062       38.09633372523465       64.85908671590148
C           41.03772411419992       39.19898874797025       64.30356167846010
C           40.93134284210488       39.44680941896571       62.94774159621425
C           39.49008079375390       40.20652955520708       60.33813872032590
C           37.97149873735226       40.20930959903760       60.58856976428090
C           37.25372840018514       39.77105204459194       59.33912661707308
C           36.60885033142710       38.54265792226065       59.28725294346125
C           35.98670042703674       38.11571542014109       58.12609955970637
C           35.99541927930471       38.91830328232578       56.99897095236682
C           36.62699954474958       40.14935582208881       57.04214826464128
C           37.25384282044249       40.56819800171456       58.20000420777551
C           37.49911411103199       41.58894020211655       61.08357519938282
C           37.70338328274737       41.70095733665125       62.60462287023829
C           36.62478770651502       40.93046647581775       63.32357108605344
C           36.93065270099365       39.77160527430647       64.02448210800885
C           35.94492749870528       39.05266059172336       64.67699578075629
C           34.63287021351647       39.48851549318208       64.64823243476734
C           34.31426325177614       40.64354065700605       63.95327804160021
C           35.29994081524895       41.35295239407526       63.29318496929544
C           37.75295631317086       43.16046520957540       63.07786440915410
C           37.88564169342175       43.27598189131797       64.60716345256608
C           37.67738706953033       44.70351646303337       65.04700843136807
C           38.62183287725358       45.69229542171624       64.79650696921416
C           38.43645343530017       46.98436152883773       65.25267845417309
C           37.29537133138023       47.31682618721591       65.96305246679250
C           36.33284429161391       46.34952256929578       66.19298657707250
C           36.52436701784046       45.05648102707298       65.73767215432594
C           39.23198649031619       42.73680187036337       65.10692256358332
C           39.35773902225876       42.80551206537230       66.63534539786232
C           38.32385151492132       41.92399649196088       67.28730813542707
C           38.34811577414262       40.54391871178301       67.12268789006852
C           37.40023480685294       39.74138793739134       67.72940494116993
C           36.40356963065826       40.30467976956633       68.50736083011722
C           36.36757258441438       41.67755618962381       68.67810668615056
C           37.32323587768050       42.47694110114679       68.07611220509106
C           40.77287719588429       42.40008995774254       67.07800781893228
C           41.80754903264672       43.52164134360683       66.85531038443091
C           42.08040944792682       44.26459403055676       68.13775598164479
C           41.70180499417853       45.59250538027899       68.28090241977826
C           41.98165373502184       46.29164128174357       69.44247071413263
C           42.64211802652977       45.66632381845659       70.48496765310151
C           43.01154823541572       44.33716965796451       70.36089896380264
C           42.73157084103362       43.64365830272770       69.19835650932649
C           43.10399276938467       42.95425975414877       66.26051655512532
C           44.20221825221137       44.01492180967597       66.11904665903381
C           43.77185337648183       45.16635520560968       65.24554131032583
C           43.74382312806569       46.46239730665398       65.74442601024592
C           43.40279761715897       47.52895805593533       64.93080303177047
C           43.08160850469513       47.31772173198403       63.60169982227529
C           43.10654937388499       46.03059824583794       63.09291219190727
C           43.44422718348449       44.96668280751151       63.90908391961312
C           45.47408824893551       43.37767910182212       65.54978153591969
C           46.66881525173216       44.34205039367035       65.59277524361977
C           47.22684321760865       44.41423390067595       66.98855987261604
C           47.94675005558553       43.35820409442937       67.53591679522125
C           48.42442346407634       43.42232644500393       68.83184544451179
C           48.17562505554628       44.53821574388606       69.61289298034524
C           47.45820857735039       45.59436027716642       69.08026399626776
C           46.99896785062628       45.53451219915792       67.77672573118917
C           47.70797052127580       43.91059176301029       64.55489535897556
C           49.00046653921289       44.73274846104603       64.60247540926552
C           48.74381210610326       46.21750971940642       64.66481767290641
C           49.41538907273166       47.00187054757149       65.59447084993685
C           49.22446888937820       48.37204505561125       65.64543008132678
C           48.34673624166702       48.98209843282915       64.76611390203236
C           47.66407662747270       48.21028140880269       63.84091114628703
C           47.86601136462640       46.84272017135685       63.78644588375086
C           49.87177787092573       44.41914891020694       63.37564246888779
C           50.54519234452719       43.03781103356761       63.44398473482037
C           50.79925578552935       42.50854263032256       62.05688271915976
C           50.37065237151533       41.23879196906648       61.69069366806678
C           50.56832958966496       40.76299342635619       60.40465114994080
C           51.22276075312627       41.54847870193121       59.47161499980886
C           51.67012465488079       42.80819701098811       59.83113293716185
C           51.44799831224983       43.28954502204203       61.10777976937491
C           51.84640608936121       43.12765683160180       64.25251720987389
C           52.49024536544211       41.76315263996525       64.52440349139644
C           51.55225722819285       40.82098741648188       65.23684630673499
C           51.33250925494610       39.54846107049866       64.72242275533200
C           50.50643701009798       38.64882320915908       65.37257932015265
C           49.88823262147825       39.00767097296195       66.55820499499590
C           50.10208351165636       40.27120711243459       67.08224634796962
C           50.92571311432044       41.16994721567380       66.42797729390789
C           53.77076913038659       41.91822857927569       65.36420712899508
C           54.98043493609357       42.46128703376753       64.58168065385527
C           55.97110330271398       43.01658098038087       65.57490740600353
C           56.72718965617573       42.17385375674606       66.38187322649391
C           57.61380390847381       42.68964002075921       67.30965915970690
C           57.75612491562561       44.05999401652351       67.45120768031536
C           57.00465176083853       44.90950734369604       66.65855368453427
C           56.12197855628001       44.38915867567130       65.72808603072572
C           55.63154767658789       41.39288505207825       63.68121747292161
C           55.19272588706619       41.43827055216870       62.20536097044915
C           55.10819220652968       40.04372174509164       61.63070341414495
C           53.91687221365234       39.57518700183631       61.09343845720255
C           53.83502251911042       38.30695814481486       60.54540366117615
C           54.95027114683367       37.48958079424870       60.51575874641210
C           56.14428384575611       37.94542580981547       61.04843676855867
C           56.21991454081560       39.20869463913944       61.60556355510818
C           56.15045847209574       42.25006541902422       61.32106973450955
C           56.20268412694602       43.76164463684660       61.58509397655281
H           46.30098067655213       36.89339121222263       66.59308155295818
H           47.53631552581682       38.42472063150040       65.10093071048263
H           46.83330231063926       37.64421875095842       63.68905643908123
H           44.55226183457092       38.24868159890313       64.48986635281275
H           44.64670504226558       40.66864788929843       64.09748218149618
H           46.39697645551704       40.66881774106220       64.27985725051839
H           46.71275648912613       39.42409087115183       62.23909293897549
H           44.88684956178687       37.85018600343498       62.28261370427684
H           43.68888896684772       39.13163349218855       62.24955918002900
H           44.23256856565819       39.70338584557234       59.96469922969921
H           44.26792381329483       36.65851928180567       60.12871768100383
H           42.41252675393169       37.54875792948936       61.51302991807663
H           42.08542135980433       39.68573384329431       60.29216223012541
H           41.43071354220081       38.80498346209544       58.91256837164391
H           39.52241971511243       38.05768387400406       60.17542015259336
H           39.96120364049424       40.96188022375098       60.96700626386171
H           39.67876079221890       40.47762679209442       59.29803510468254
H           37.74341591778857       39.48416044898506       61.37777316097420
H           38.05328240112495       42.38024956105077       60.57606273274173
H           36.44139151386108       41.72080005420685       60.84744577708802
H           38.66345894258336       41.23341077592803       62.84184364396975
H           37.09332092222659       42.66757377377002       65.05950556937715
H           39.33300725026473       41.69498643879353       64.80327261629112
H           40.04685912740126       43.30113950279720       64.65248734624660
H           39.17934973191075       43.83592815643403       66.96224501370551
H           40.75140108189625       42.13345704861370       68.13705299237161
H           41.07481769849250       41.50864507636699       66.52668339372897
H           41.40177609070980       44.24205852008531       66.13801712654988
H           43.47911436944351       42.14675265930931       66.89287249188538
H           42.88007729013306       42.52837278803258       65.28023550525489
H           44.43189968384182       44.40102937244382       67.11890148097612
H           45.70969820755137       42.47656209918731       66.11986188591500
H           45.29759269458491       43.08358813892875       64.51362327238827
H           46.31121568849990       45.34047895383494       65.32013703736216
H           47.95115098916105       42.85720695782562       64.70453636388406
H           47.25472512167539       43.99379397189075       63.56444205894239
H           49.55131294562663       44.45605928510140       65.50846620711648
H           49.24439147254952       44.47389530112316       62.48338289016498
H           50.64130478057533       45.18815012174187       63.27937099125227
H           49.87701078997265       42.33808254173901       63.95464655442897
H           52.55204334654887       43.75857194861157       63.70828259482349
H           51.63646453451815       43.62306310171297       65.20252247029590
H           52.75256496111791       41.30032594274745       63.56939617300783
H           53.56073194040820       42.59303042243027       66.19895762798221
H           54.03558722413348       40.94947713939810       65.79569094326344
H           54.63690235815435       43.29078122379055       63.96095430475621
H           56.71717835509696       41.50888857490060       63.72434781650268
H           55.39930988939494       40.40388613297460       64.08361549836732
H           44.22866933064957       36.00815210812797       66.96854232729957
H           42.21361620700210       34.81233571069774       66.22787048585148
H           42.04487828645445       33.99017107319948       63.90716044405768
H           43.91059603149789       34.38179989699381       62.33194563771940
H           45.92161472363120       35.54988285616337       63.07516415969176
H           47.10203617718396       40.13927529668376       66.54038654203363
H           46.62124463853112       40.92766299329529       68.81118126266324
H           44.42261846897343       40.49593257073195       69.83752870763715
H           42.68843479388929       39.29243279408629       68.55409541025276
H           43.17108275277533       38.50302764921182       66.27415743749502
H           47.75659576502773       41.33454720084720       61.47211450632568
H           47.68080153948650       43.58714404033089       60.51337631925432
H           45.51959441024307       44.73239795563873       60.19705916231520
H           43.42796448905929       43.59725236120557       60.86968286189781
H           43.51312893992968       41.37527343628828       61.90586883695676
H           45.80962652294024       40.27341636185672       58.43510277567113
H           48.02008201338852       39.97726789724612       57.39271613662277
H           49.49872187393223       38.16111946062902       58.12723703326220
H           48.75230259236289       36.61006830427906       59.91017485678897
H           46.54262422929119       36.87896643307546       60.91877384542677
H           43.73857605904818       37.64131840003385       58.76687908123150
H           41.71405537121805       36.64520103052049       57.89951865181649
H           40.69201597084425       34.50903960800110       57.29286141947940
H           40.06784340673146       32.88249143018052       59.04453469888481
H           40.47064338423011       33.42918592970529       61.41518806366552
H           41.50174749840475       35.57612557009236       62.02566922408871
H           38.98717192644915       36.84245198767285       62.06434781782205
H           39.16402148307075       36.39926546810200       64.47358818450688
H           40.49649918151039       37.89189330178105       65.91726281499128
H           41.61807092452696       39.86397203944842       64.92831292054042
H           41.42856388526777       40.31136529486625       62.53350505800580
H           36.59067890197963       37.91164661948692       60.16653122520073
H           35.49357401467013       37.15301398900932       58.10286149011594
H           35.51325307234806       38.59012729083509       56.08936655668887
H           36.62067572802404       40.78059639975443       56.16726947472393
H           37.74080916489962       41.53135138137167       58.22397179903020
H           37.95172616375418       39.42069926222378       64.06105298787116
H           36.20236967210603       38.14925088077695       65.21099076873003
H           33.86148110011057       38.93332274007422       65.16292588298083
H           33.29032138235097       40.99025679910542       63.92576682877073
H           35.03287660704595       42.25031294018799       62.75315737504740
H           38.59222969248349       43.66551989607304       62.59731236844576
H           36.84311067771031       43.67625906860498       62.76484199560333
H           39.52169128218312       45.45273944542880       64.25015607425134
H           39.18505112968207       47.73638620089547       65.05045554632743
H           37.15156096202043       48.31921190844642       66.34320716452511
H           35.43300621906685       46.60175810914514       66.73738970309704
H           35.77282165412407       44.30209985498475       65.93282980030367
H           39.11467177758608       40.08704242453025       66.51563814243400
H           37.43789076253051       38.66950985382243       67.59716887224279
H           35.66008178210031       39.67827745913146       68.97920411669841
H           35.59369215856687       42.12669851191340       69.28502540034756
H           37.29020447524934       43.54882851685851       68.21691384223678
H           41.18689297832038       46.08794805023562       67.46966583495734
H           41.68476361205353       47.32679356102658       69.53463351731858
H           42.86774898044992       46.21120594426076       71.39068547865888
H           43.52585787861245       43.84234150776494       71.17328569841305
H           43.03212895549482       42.60951446232713       69.11037784584305
H           43.99409292508195       46.63733170586482       66.78294712798341
H           43.39730758420589       48.52866555492093       65.33718967789963
H           42.81639970978319       48.14966579401878       62.96562675727200
H           42.87013246684703       45.85672544549090       62.05344031449565
H           43.46686718951923       43.97035191260222       63.49360813186858
H           48.14212520705051       42.47635687165243       66.94392428299449
H           48.99273202594890       42.59839174272746       69.24278865523581
H           48.54001171490096       44.58265866890402       70.63001432873675
H           47.25053925349674       46.46837327819392       69.67978052973415
H           46.45529792360310       46.37448313632920       67.36718808113699
H           50.09770281818416       46.53677847327870       66.29449811001679
H           49.76536218604126       48.96211944496935       66.37316910407864
H           48.19868597148201       50.05217390522198       64.80151038587090
H           46.97123495722069       48.67966649023056       63.15713204172226
H           47.33094494767411       46.25214911708321       63.05742800507031
H           49.87660801285658       40.61436364301475       62.42344286692831
H           50.20371319001710       39.78184109182740       60.13446452861726
H           51.38699905836970       41.19103615564232       58.46559698138027
H           52.18618415354661       43.42095235311768       59.10894033014410
H           51.76846061874986       44.28919461294881       61.36082864651151
H           51.81905021302818       39.25712983472182       63.80161150637199
H           50.34876107555355       37.66548568943999       64.95297337924100
H           49.24708094216842       38.30971241921064       67.07825393185983
H           49.62580384827724       40.55233613079219       68.01081572385418
H           51.08086354802799       42.14943682093040       66.85635467414956
H           56.62158570785234       41.10342204680724       66.28483313276693
H           58.19499128070824       42.02064600482323       67.92827169020384
H           58.44740068495089       44.46239974091888       68.17756350375798
H           57.10516863235763       45.98014912501650       66.76889835118918
H           55.53699284718363       45.06123550181922       65.11474269048266
H           57.15642806884389       39.54577830922726       62.02573622064827
H           57.02067314706192       37.31274535266392       61.03010056027449
H           54.89425930117035       36.49960319670220       60.08567246468595
H           52.89558214992748       37.95748489054137       60.14320909665367
H           53.04152383444011       40.20934092088102       61.09994416811808
H           48.54936067154151       36.21455650425801       65.87138556072766
H           47.51494904934819       34.79227768044553       66.01162129959654
H           47.89625820341478       35.45070995951821       64.42072001345257
H           54.19753639164444       41.88346949842249       62.13359231952122
H           57.16085885692786       41.84934202766527       61.43939046777877
H           55.85143271272530       42.08677558324152       60.28389936362188
C           54.87837800352824       44.43822798364182       61.21525696909558
C           57.34047166221119       44.36313544561056       60.79702171003476
C           58.30602617911101       45.13473008997824       61.43160137160181
C           59.36265534771563       45.67589979773866       60.72026548921239
C           59.47595336436146       45.43877543761521       59.36194148593656
C           58.51318531939005       44.68242916645809       58.71492298343833
C           57.45033847870564       44.15851134602071       59.42608766572307
H           58.23377838591212       45.31279238400830       62.49638228222411
H           60.10310312599134       46.28126110019461       61.22514799485965
H           60.31330204834713       45.84703706919213       58.81777391363416
H           58.58440322683941       44.49943306318006       57.65174241307055
H           56.70588494326827       43.57512124507736       58.90434579044135
C           54.89968164255324       45.95461380617577       61.43604302017787
H           54.64504237166888       44.22875998954957       60.17012928341402
H           54.07532961363363       44.01097716824044       61.81732904361455
C           53.52816210601154       46.52586029114519       61.21186232417612
C           52.73983356164579       46.94423300132613       62.27597596078325
C           51.45944224230466       47.42747116583316       62.06358428754158
C           50.95004327554192       47.49142581582859       60.77910857016454
C           51.72676630831712       47.07946289391702       59.71002488841992
C           53.00555339860510       46.60259537045444       59.92571721041321
H           53.13223220867247       46.89860477601999       63.28376445050620
H           50.85813060081187       47.75198681001983       62.90091130940995
H           49.95220066448714       47.86825451452160       60.61567469535144
H           51.34070586656340       47.14135493927247       58.70301049122792
H           53.61691953093968       46.30383658854020       59.08664374665612
H           56.40453264433465       43.92984691075451       62.64802564198173
H           55.23180570425298       46.16959694561999       62.45520499924596
H           55.61580997399277       46.41000875955608       60.74676065693765
C           57.70331780196418       64.22170934235155       46.23751031302941
C           57.07610372472715       63.98695110207816       45.02018559850297
C           57.49344155193302       62.89832776069343       44.26121234981356
C           58.51052155721865       62.07306286959312       44.70663539039543
C           59.13355311111501       62.32282849416633       45.91750147915863
C           58.72510964581994       63.40089234807619       46.68368147718870
C           55.98840039116300       64.91330903848046       44.52892733400910
C           56.53358174706214       65.76506230844574       43.37940377053879
C           54.74769619291051       64.11445772819449       44.10825043657169
C           53.46745569845521       64.95279951196427       43.96358604865254
C           52.47298486785847       64.20330946142323       43.11013959752965
C           52.09197527055649       62.90729580861918       43.44057171088058
C           51.19074674570336       62.20916623225431       42.65930210639566
C           50.63908251253353       62.80517451822134       41.53729918381355
C           50.99940733968020       64.09818876892417       41.20277964432300
C           51.91432043574729       64.78706071659100       41.98116579518054
C           52.83331844750619       65.28010120190538       45.32290909735822
C           51.68662015038453       66.29422852595816       45.17175163159609
C           52.21566661071978       67.70058327278787       45.06262639924396
C           52.88109456900700       68.30472667014112       46.12307135370221
C           53.34962807185969       69.60186865185766       46.02608636466018
C           53.17128106045432       70.31787761440788       44.85479713022927
C           52.52497202494878       69.72363201757591       43.78440864588480
C           52.05122632600307       68.42754743482458       43.89059907390063
C           50.67487220221228       66.15497517237915       46.31684508593116
C           49.42217645122165       67.03325444498459       46.14490286885780
C           48.88818444961908       66.93789261736399       44.73940426575509
C           48.80615143624360       68.07132086099935       43.94150636668709
C           48.36570510372762       67.98767347437366       42.63201186422327
C           48.00785014701052       66.76250344807809       42.09777741087663
C           48.07451281411824       65.62734689178090       42.88700076818107
C           48.50324822985392       65.71647093329129       44.19740677505546
C           48.36733452049227       66.59780800978407       47.17063796853258
C           47.06527233345569       67.40869011823717       47.12243271098077
C           47.29127028790225       68.84356820281775       47.52262180278772
C           47.12127305485479       69.87088209721294       46.60396877389817
C           47.30768344075858       71.19220089801358       46.97355705241633
C           47.66701299476089       71.50598668257066       48.27237095397184
C           47.84038360234496       70.49143206602905       49.19771152891101
C           47.65037614286240       69.17474117510649       48.82414544639996
C           46.02060408681482       66.73647889486783       48.03430351607487
C           45.18593423233646       65.67666542325826       47.28877523285870
C           44.91675654186835       64.46444607992547       48.14387996838258
C           44.46669537486304       64.60385551241116       49.45196443920440
C           44.20242542888573       63.49180013898330       50.23125774599135
C           44.35649714096996       62.22055510124912       49.70321903843341
C           44.81010669078341       62.06805577428338       48.40362548316406
C           45.09994751659006       63.18313310186463       47.63646619128125
C           43.85828355299643       66.30618748097652       46.83508652181669
C           43.05935517454993       65.42944497603436       45.86059481193421
C           43.74633955277729       65.33761339940452       44.52044744228800
C           43.94013271019362       66.47195485524854       43.73922990384857
C           44.52172866811461       66.38123087056887       42.48858161514745
C           44.91693172357485       65.15042945800363       41.99237624704202
C           44.74100602026794       64.01679668408070       42.76431655783404
C           44.16353937537288       64.11283403781478       44.01756560526511
C           41.61909081021557       65.96748018932924       45.68925927420027
C           40.54799057290546       65.04542491254490       46.29402475899072
C           39.16590663340040       65.50490076276036       45.89842295433087
C           38.71352020526513       66.78059532813789       46.21731721354634
C           37.43979037389243       67.19099944105584       45.86916766857106