3864
 energy: -5104.072634885634 gnorm: 0.000744077615 xtb: 6.6.1 (8d0f1dd)
C           44.15074843854637       35.70701866476316       65.89626215094374
C           45.21874100794294       35.90827090367605       65.03105487580004
C           45.11580125804908       35.42765529593210       63.73039735008002
C           43.97586977673538       34.77119765020108       63.30360722773709
C           42.91802166649099       34.57972400265665       64.17640740579080
C           43.00851858953626       35.04939048534873       65.47472751608863
C           46.45209963671651       36.64046760482739       65.50064409550147
C           47.68069376141229       35.73261819028673       65.41390431675460
C           46.66096171974517       37.92917194525669       64.69161934030312
C           45.43652571006969       38.84655256436007       64.77879708584814
C           45.17244951933176       39.29759023289378       66.19572286292677
C           46.13477609414025       39.97980726805947       66.93176405616695
C           45.86441550360771       40.42382003719571       68.21405749109339
C           44.62307715330707       40.19464003974380       68.78279159005635
C           43.65547460165835       39.51702583578363       68.06085865170976
C           43.93160648594655       39.07350907674987       66.77905612511366
C           45.56215866555479       40.09928689539623       63.89880228832039
C           45.72776107538373       39.86382189415760       62.38538132721443
C           45.65629393310166       41.21984218979932       61.72417092767677
C           46.82125075900255       41.86881487692534       61.33792364760264
C           46.78258958580426       43.14235364919139       60.79784111099749
C           45.57067990500803       43.78271634766498       60.61066955042572
C           44.39928344448514       43.14296131823856       60.98119720615770
C           44.44601057369632       41.88080488446838       61.54563016246862
C           44.68754646853169       38.87635916610880       61.84212538716807
C           44.66302655932098       38.80158523968470       60.30912460073238
C           46.04369485190685       38.64125290797844       59.72497581260927
C           46.49353141115906       39.51837928964395       58.74694047466571
C           47.74310565460170       39.36048806867368       58.17620657568452
C           48.56635928491387       38.32699466725215       58.58403728814778
C           48.13161855485583       37.44812926791673       59.56137646815077
C           46.87735789959351       37.60194295259654       60.12134816250819
C           43.79532748371716       37.63317837745061       59.80891960152552
C           42.36461626564597       37.59550217862098       60.36843588603107
C           41.70175043416577       36.30392571068893       59.95813041265964
C           41.45637310903732       35.98805885821217       58.62788410820183
C           40.88018350689443       34.77844128627076       58.28186129072152
C           40.53722189076687       33.86383389204784       59.26224489407850
C           40.77273855559326       34.16803787150977       60.59164325816232
C           41.35142897271067       35.37727236821157       60.93248218491578
C           41.55449367416166       38.82660116897101       59.94571189034091
C           40.15190128550462       38.87642092054156       60.57407537426683
C           40.22231407874904       38.62623226104465       62.05978043874485
C           39.59302998644326       37.52506343294947       62.62621143222167
C           39.69918220906592       37.26338222160478       63.98189984257296
C           40.43571761484717       38.10387659960003       64.79858177203219
C           41.05053580406136       39.21753759212601       64.25108909182957
C           40.94046470195725       39.47426040470415       62.89686932975265
C           39.50232737170945       40.23709926827193       60.28420329147087
C           37.98429169071053       40.23663174289845       60.53924102984639
C           37.26457764572994       39.79801986200524       59.29045230433230
C           36.62729934693019       38.56581695186860       59.23796953775187
C           36.00235449740546       38.13916240814870       58.07855743758607
C           35.99918811147037       38.94560691246176       56.95427030793564
C           36.62442692672025       40.17968027527048       56.99806086118590
C           37.25584428304379       40.59829885904308       58.15389834693105
C           37.51049558905289       41.61315737801252       61.04075778067678
C           37.73079721830766       41.72510624014564       62.55983267073474
C           36.66074553545604       40.95219059197645       63.28994602789529
C           36.97564179300656       39.78720870575613       63.97573373356406
C           35.99856012177058       39.06649936287846       64.63919422485770
C           34.68871955518268       39.50883053585586       64.63767710615356
C           34.36186518979898       40.66983303716716       63.95721656050677
C           35.33769391717617       41.38059279872564       63.28416994284810
C           37.78355761598527       43.18504079948205       63.03207700671378
C           37.90832229728839       43.30244733387931       64.56174289385899
C           37.71438939099250       44.73356527540808       64.99741090072226
C           38.68023116105684       45.70708131445632       64.76994509126600
C           38.50737049441305       47.00036967995496       65.22850979597820
C           37.35851243217488       47.34832424917651       65.91874736907006
C           36.37354467331680       46.39758948999494       66.12080123184165
C           36.55181182892564       45.10387959370028       65.66285576309332
C           39.24245197768052       42.74579518264807       65.07497133408523
C           39.34783204362427       42.81243629084175       66.60568886426705
C           38.30754614075406       41.91972869827247       67.23323629156720
C           38.35854755339792       40.53950033420991       67.07944821160227
C           37.39822641251083       39.72781207297309       67.65366873291246
C           36.36287037502344       40.28287286990187       68.38500584722971
C           36.30137120747678       41.65584394867987       68.54510782497724
C           37.26948201726102       42.46491546393875       67.97728556492086
C           40.75934139768489       42.42078981317145       67.06956849923414
C           41.79113317757925       43.54302849740301       66.83681904183328
C           42.07581008653149       44.29977815947381       68.10912772580373
C           41.70621859895640       45.63181120205255       68.23595511195136
C           42.01515199533812       46.34966326866676       69.37875946632792
C           42.69580607703044       45.73885378515767       70.41669680591697
C           43.05186853733618       44.40478314241565       70.31045818241185
C           42.74202512611057       43.69168347345897       69.16754284931116
C           43.08669634650991       42.97346064482589       66.24115279994130
C           44.18624871155355       44.03275664384845       66.10274192606852
C           43.76303746693997       45.18245790882868       65.22364639653600
C           43.73904873302293       46.48091571815918       65.71723990372092
C           43.40726644927339       47.54570379986334       64.89782989301924
C           43.09054414187101       47.33165236235995       63.56801712669073
C           43.11303042742954       46.04238886240385       63.06417097467035
C           43.44161026413326       44.97995636437653       63.88610342214226
C           45.46261069769793       43.39630256781728       65.54354144631920
C           46.65352539269225       44.36503725256112       65.59582873914832
C           47.20103509853213       44.43907084717520       66.99640587255134
C           47.93125415998991       43.39067612003121       67.54414067789826
C           48.39690114737631       43.45641579834594       68.84450756353692
C           48.12276086444344       44.56409584678028       69.62833231336771
C           47.39317518199255       45.61152078074933       69.09543367633212
C           46.94829001886461       45.55227111882567       67.78688773362434
C           47.69930098790120       43.93678786773794       64.56367832054053
C           48.98377461899877       44.77106976586225       64.60994401526149
C           48.71555616608846       46.25479850668801       64.65908071020772
C           49.40374884570671       47.05533836957126       65.56259837598985
C           49.20324266944220       48.42442441511256       65.60128495050563
C           48.29752724317982       49.01644442671272       64.73793533570770
C           47.59784525529177       48.22841338183302       63.83953419252295
C           47.81151593413040       46.86189434572591       63.79452533017639
C           49.86120560494273       44.45659934343850       63.38777447924642
C           50.52841464292620       43.07205992679552       63.45751737776501
C           50.77553139055479       42.53796526309635       62.07112116050024
C           50.34939748618961       41.26456933354756       61.71411183205884
C           50.53993142517898       40.78322137098920       60.42908112069738
C           51.18414802280262       41.56685461099633       59.48730423478240
C           51.62927741995126       42.83002734317170       59.83746924254852
C           51.41451334579323       43.31683075197357       61.11351520337279
C           51.83161827019362       43.15704986971712       64.26341242659794
C           52.47123069570086       41.78995681666415       64.53325231243430
C           51.53131754497717       40.84989108156814       65.24611775986050
C           51.31184560072140       39.57739383836256       64.73168385765059
C           50.48257447710195       38.67961694449279       65.38023778935121
C           49.86172360803317       39.04014586696672       66.56386692495799
C           50.07663584812376       40.30328846747233       67.08825634691237
C           50.90327158485294       41.20063409830870       66.43580610266291
C           53.75586635942619       41.94223197328309       65.36707128364530
C           54.96116687600225       42.47779696514387       64.57303801741278
C           55.96224143304637       43.03803602558699       65.55346330134594
C           56.72941365470695       42.19906580489565       66.35323490956827
C           57.62557261942597       42.72015880432923       67.26862423814123
C           57.76521871987291       44.09101825014505       67.40475477178421
C           57.00193227725285       44.93663135397609       66.61966432485804
C           56.11009088139349       44.41145579273168       65.70077139196995
C           55.59927455668694       41.40241588230854       63.67121868310135
C           55.15793326963239       41.45454822209403       62.19625909330910
C           55.06768897108862       40.06211204190155       61.61664202753347
C           53.86533902524630       39.59005018948225       61.10795442733637
C           53.77570138126723       38.32369510219605       60.55665568337837
C           54.89421155876849       37.51277608074862       60.49418449696669
C           56.09896904790804       37.97251702348195       60.99813020535726
C           56.18243497490959       39.23290190476512       61.56013988538694
C           56.11567699577809       42.26863294727956       61.31444247538991
C           56.16916081457568       43.77888512289325       61.58483927365337
H           46.30404284838296       36.91908082926028       66.55043834514163
H           47.54616277285780       38.44897245750875       65.06172345448843
H           46.84453864028591       37.67028919198758       63.64823933804474
H           44.56291936303901       38.27777914048370       64.44492099571565
H           44.66135979269246       40.69858143226413       64.05784254965873
H           46.41146363914905       40.69539405875671       64.24059472508273
H           46.72551127262460       39.45472379458175       62.19781889325662
H           44.89731213649822       37.88260310427355       62.23935190717215
H           43.70059680229091       39.16696333862889       62.20349265040395
H           44.25402169448224       39.73929102771463       59.92055122628285
H           44.28540653287029       36.69421381226577       60.07801298482326
H           42.42885475967779       37.58653241918462       61.46018518266197
H           42.10072584478876       39.72364079145503       60.24141650187878
H           41.45209079285836       38.84543514793913       58.85892060018892
H           39.54212074025035       38.09076181757207       60.11503246868494
H           39.97647861180577       40.99586335345589       60.90836334456357
H           39.68882257561736       40.50917179251786       59.24293022078629
H           37.76212121144859       39.51032323975757       61.32848239455567
H           38.05336988201567       42.40900268111652       60.52606168582220
H           36.44948348946198       41.73787698441537       60.81685656926661
H           38.69579398818552       41.26091576505394       62.78602474665402
H           37.10590381271862       42.70450726252444       65.00811027756212
H           39.33425175172503       41.70265612508148       64.77146886685189
H           40.07029199341016       43.29781150809976       64.62654686604650
H           39.15709194986767       43.84118747502583       66.93019617277605
H           40.72748527922079       42.17420088836138       68.13278647719407
H           41.07203333142330       41.52128607608156       66.53668145554828
H           41.38253553896343       44.25733268193623       66.11456491297557
H           43.46147385262589       42.16581199513033       66.87310011485978
H           42.86397609985124       42.54698176349303       65.25996758702912
H           44.41041253641979       44.42138504237338       67.10172157921852
H           45.69605410898926       42.49646761305482       66.11630673533745
H           45.29465128670770       43.09977795039469       64.50610383266830
H           46.29393233217156       45.36142394745220       65.31926692503636
H           47.95075205079967       42.88635868419152       64.72060964307235
H           47.24886316449221       44.00830772043302       63.57054351176333
H           49.53389879945518       44.50558734801225       65.51890442232022
H           49.23896186964269       44.51635988342098       62.49188285091944
H           50.63432364004667       45.22239126966102       63.29734901973686
H           49.85847648043121       42.37586826728838       63.96993896378170
H           52.53739475672545       43.78600919346555       63.71690865183084
H           51.62371917679715       43.65294724781237       65.21331384087553
H           52.72861387247195       41.32799946363496       63.57639569509234
H           53.55283263946746       42.62104208503959       66.19991822821888
H           54.01859014525052       40.97351608389559       65.79893430753346
H           54.61282342642712       43.30405888936518       63.95010041113347
H           56.68600475446819       41.50604634755450       63.71109255678763
H           55.35546269200142       40.41557645042736       64.07163904519882
H           44.21595677729710       36.07176949129766       66.91206477277323
H           42.18856654532651       34.90124600349173       66.16276870272286
H           42.02973827277967       34.05998957371461       63.84838225772294
H           43.91590051251389       34.41026837288084       62.28720074023882
H           45.93582348733364       35.55628714817406       63.03816410274639
H           47.10958673428299       40.16286028762174       66.50303296413810
H           46.61961101516408       40.96050113496332       68.76942964407640
H           44.41406476194172       40.53979326729618       69.78493513373779
H           42.68303962962474       39.33556252822441       68.49662108568189
H           43.17703718294352       38.53651619723041       66.22197911602127
H           47.77367888846720       41.37504447511550       61.46050130572532
H           47.70201977493782       43.63428110988193       60.51665174416740
H           45.54160349686597       44.77414053812307       60.18184253823664
H           43.44646930826561       43.63111679794843       60.82841578568927
H           43.52557310163260       41.40420061654360       61.85180665432328
H           45.85630960569023       40.33097789488398       58.42648342775712
H           48.07864369291688       40.04099914779177       57.40849257685697
H           49.53786981882714       38.20578759675292       58.13042731117566
H           48.76323068771963       36.63158011632861       59.88151751573292
H           46.54247646942480       36.89689709980020       60.86796374301476
H           43.76107292346789       37.68193707928776       58.71743325804927
H           41.71670157509102       36.68811709219175       57.84753139630819
H           40.69380588468226       34.55235750679714       57.24260842975336
H           40.08923185703512       32.91810600802361       58.99381403787365
H           40.50812264759018       33.45954365366261       61.36385314127966
H           41.53619354021550       35.61054188613042       61.97088524452692
H           39.02173523781291       36.85945319016729       61.99488450572256
H           39.20674591522118       36.39830604397233       64.40139271870733
H           40.52643967067673       37.89445266327299       65.85473354512236
H           41.62380562680787       39.88689445387136       64.87810383976678
H           41.42858847970120       40.34804486800852       62.48840275595472
H           36.61869407600662       37.93451604344124       60.11605370627820
H           35.51579286961856       37.17451458218698       58.05493982456240
H           35.51447713442360       38.62050681419678       56.04594535850037
H           36.61153653412282       40.81628606476924       56.12723383795566
H           37.74009285527058       41.56374881075572       58.17723195436417
H           37.99688360254402       39.43560072800931       63.99136780731159
H           36.26331807250929       38.15744442429714       65.15850202345140
H           33.92499539314078       38.95301231818304       65.16144446575021
H           33.33995327610904       41.02131574363268       63.94966387873816
H           35.06701224474190       42.28242290573147       62.75361725194432
H           38.62674202951997       43.68797894933351       62.55395091275576
H           36.87776867316935       43.70390579829018       62.71268351420000
H           39.58829751995655       45.45526925270235       64.24142413450402
H           39.27422097229766       47.73887039758843       65.04255871934640
H           37.22778769696351       48.34949351377500       66.30505293716692
H           35.46769315476205       46.66446914352385       66.64573640799863
H           35.78491306870374       44.36107850340132       65.83585695657909
H           39.15544097075409       40.09077652126838       66.50582528092427
H           37.45841633639914       38.65611684905464       67.53139345079673
H           35.60980343895838       39.64921021931872       68.82996594169563
H           35.49839423639055       42.09851750289902       69.11690518830927
H           37.21908474025948       43.53691781026622       68.10881356879771
H           41.17842656215443       46.11422320762568       67.42476902085311
H           41.72730379622526       47.38815422336680       69.45780090777673
H           42.94694547870223       46.30024390882345       71.30459626271727
H           43.57952626823528       43.92054005458809       71.11966265954294
H           43.03267648004270       42.65421833309962       69.09004854632698
H           43.98451550152176       46.65903925266534       66.75513060985392
H           43.40592467871562       48.54777976189495       65.29829254886991
H           42.83048040501477       48.16201040597851       62.92671808051079
H           42.88263021210296       45.86555456274331       62.02350216135887
H           43.46122208602678       43.98238420400602       63.47251566929870
H           48.14291771097807       42.51500261584980       66.94850010964177
H           48.97466253169998       42.63932931101181       69.25465164429156
H           48.47692587906396       44.60861638084813       70.64813607246532
H           47.16425149286241       46.47850861374646       69.69628115755009
H           46.39739544075046       46.38548704764321       67.37402218493634
H           50.10567686161854       46.60372266230976       66.25026532129448
H           49.75693949520942       49.02835501802712       66.30636384163797
H           48.13935901792696       50.08520551212253       64.76353782523158
H           46.88234975121681       48.68342618550958       63.16906808625605
H           47.26377531344294       46.25948213965108       63.08459592533795
H           49.86346136372448       40.64165845033460       62.45315103272571
H           50.17790104047653       39.79948364204829       60.16595562042741
H           51.34229399454043       41.20548301730329       58.48177366635410
H           52.13833719486622       43.44084546556059       59.10874152372348
H           51.73284990264636       44.31894051657881       61.35861812096817
H           51.80163707578650       39.28474428885339       63.81282776003863
H           50.32589574031513       37.69638348656810       64.96014538994312
H           49.21848093212944       38.34304989043529       67.08183287603583
H           49.59981511087573       40.58526431340211       68.01569021237073
H           51.06039476977032       42.17979397207027       66.86367625132677
H           56.62379155907073       41.12838376552686       66.25958500082128
H           58.21543041760637       42.05411338989183       67.88150092507357
H           58.46337685206424       44.49755805602111       68.12143989507709
H           57.09863948962398       46.00763067031797       66.72717660411921
H           55.51447733870216       45.07943167668149       65.09255489353745
H           57.12636754708306       39.57301535042644       61.95956879355921
H           56.97724078737435       37.34506801708374       60.95407748205816
H           54.83050510312358       36.52462912970547       60.06182902903059
H           52.82658450324501       37.97223997042925       60.17849095924269
H           52.98759643027704       40.22015920606080       61.13899301865190
H           48.54946127098131       36.22831012218926       65.84034364814899
H           47.50664730217156       34.81021785739310       65.96407065687811
H           47.90266113043652       35.47732247333555       64.38030703021025
H           54.16321180587473       41.90233028820070       62.12777095050980
H           57.12577151175375       41.86826036468297       61.43117039790305
H           55.81532014217616       42.10992812926415       60.27671204606404
C           54.84858004163440       44.45859585296881       61.20703920758275
C           57.31376072933386       44.38247143259074       60.80839729624486
C           58.26882020365174       45.15880168939716       61.45290966736689
C           59.33363294519294       45.69869772062792       60.75332484748132
C           59.46509482221884       45.45482892287894       59.39778872751540
C           58.51120108875450       44.69606483066752       58.74044818133373
C           57.43974430699380       44.17339012667014       59.43973000098226
H           58.18136992490308       45.33894574430348       62.51554798108246
H           60.06645399634314       46.30657297582656       61.26425679548321
H           60.30949200551188       45.85897160924417       58.86237115318960
H           58.59518880945810       44.50842456107644       57.67901486246447
H           56.70245719009419       43.58736720661705       58.91059575120344
C           54.86959412667259       45.97444133023661       61.43305841425964
H           54.62295279707899       44.25335762903214       60.15899420761063
H           54.03903654417021       44.02999185723000       61.79965122631238
C           53.50247683224378       46.54762193097078       61.18880773134653
C           52.69439129378058       46.95674540861164       62.24180807684967
C           51.41765086686521       47.44058796490573       62.00984728912429
C           50.93225670247736       47.51566099263692       60.71661798237013
C           51.72901081144030       47.11371938635679       59.65833936553155
C           53.00366493567993       46.63472128485507       59.89371117646603
H           53.06858719445710       46.90328228437629       63.25533186107698
H           50.79974730302443       47.75723122671783       62.83718789118377
H           49.93791249217381       47.89397989056766       60.53717928658473
H           51.36355475740390       47.18623630182074       58.64419767577294
H           53.62979406711227       46.34438803443259       59.06249484341296
H           56.36233115387522       43.94301832110020       62.64944507005982
H           55.18510434394463       46.18566689390126       62.45770318431866
H           55.59611808711212       46.43032356838236       60.75532278435065
C           57.67259040894256       64.18144443612444       46.21595863435007
C           57.05066249864665       63.94699908151996       44.99594347609111
C           57.46771851920136       62.85635207308066       44.23969544750741
C           58.48061802779928       62.02873946520662       44.69056997688993
C           59.09951408195585       62.27872210793487       45.90348756018852
C           58.69057458625536       63.35860805430640       46.66696049612228
C           55.96927576510876       64.87699297150965       44.49833487601579
C           56.52321023220464       65.72743190375967       43.35258959217485
C           54.72857107659067       64.08284902521170       44.06826595307922
C           53.45025368912967       64.92529628669823       43.93507833606161
C           52.44842396737410       64.19176947834085       43.07631816371160
C           52.07160088196200       62.88927711074303       43.38437376159455
C           51.15714971667899       62.20918166923489       42.60218127472179
C           50.58782134171997       62.83061029522887       41.50312765809333
C           50.94512082869359       64.12992039810170       41.19078459582692
C           51.87370246065962       64.80022776921810       41.96855800650513
C           52.81905090208735       65.23798855656682       45.29967466413236
C           51.67239839232193       66.25327455088852       45.16140661189096
C           52.19893452603805       67.66120718387786       45.05511785541223
C           52.86347163656333       68.26382391238003       46.11658465261316
C           53.32326447011950       69.56458484977487       46.02406476241624
C           53.13695281487118       70.28374634614565       44.85620009465253
C           52.49317316095345       69.68988115185606       43.78444009108777
C           52.02776684002585       68.39059821684435       43.88573042903366
C           50.66610370727560       66.11177232039628       46.31102931865694
C           49.41370608163722       66.99047208942709       46.13968483304817
C           48.87218732839022       66.87999717324386       44.73753260553776
C           48.79938230804070       68.00274673437359       43.92396669874157
C           48.36196709731221       67.90162964081141       42.61482295391579
C           47.99892512975957       66.67092670258937       42.09770434150066
C           48.05293887176935       65.54732858445426       42.90401046518399
C           48.47769384886909       65.65347146073390       44.21466923946395
C           48.36477886133714       66.57079799302744       47.17718977042666
C           47.06822028670615       67.39054265403848       47.12768755921000
C           47.30598732227453       68.82565309669857       47.52170962368098
C           47.15855366202909       69.84813913910126       46.59418479954196
C           47.35597203134171       71.16908451895505       46.95870219267251
C           47.70253898877843       71.48676399790432       48.25986949661020
C           47.85440889317534       70.47650369437393       49.19351723475147
C           47.65473157289155       69.15953982670995       48.82502984931787
C           46.01997149397900       66.72863477756596       48.04221468371526
C           45.18513034424929       65.66613499999877       47.30060483933965
C           44.92628031543492       64.45124654005666       48.15411827333545
C           44.48088134889393       64.58515593947035       49.46454262850490
C           44.22360430542420       63.47039324077554       50.24206997074176
C           44.37989210743980       62.20082289456180       49.71032242012502
C           44.82989755316592       62.05354088673304       48.40874111104682
C           45.11302839881525       63.17152830560958       47.64336612644996
C           43.85213195918107       66.29039108759804       46.85523507830423
C           43.05793966372172       65.41350553227674       45.87763169545232
C           43.74896863230459       65.32401242137584       44.53897748561025
C           43.95726416205227       66.46116955486363       43.76597728200013
C           44.53972719634206       66.37100414690853       42.51587542380786
C           44.91868510196723       65.13852554094730       42.01175549516481
C           44.72905232416504       64.00206896076385       42.77595617635962
C           44.15283039889494       64.09750849462530       44.02986610721231
C           41.61644600836431       65.94785447482207       45.70440152343528
C           40.54921604462744       65.02284820127160       46.31058386866857
C           39.16226692757747       65.47327591771253       45.92020826011941
C           38.70295900854139       66.74445994756577       46.24568696642230
C           37.42271816451038       67.14380737878403       45.90928026912454