      -----------------------------------------------------------      
     |                   =====================                   |     
     |                           x T B                           |     
     |                   =====================                   |     
     |                         S. Grimme                         |     
     |          Mulliken Center for Theoretical Chemistry        |     
     |                    University of Bonn                     |     
      -----------------------------------------------------------      

   * xtb version 6.6.1 (8d0f1dd) compiled by 'stahn@M-Bot' on 2023-08-01

   xtb is free software: you can redistribute it and/or modify it under
   the terms of the GNU Lesser General Public License as published by
   the Free Software Foundation, either version 3 of the License, or
   (at your option) any later version.
   
   xtb is distributed in the hope that it will be useful,
   but WITHOUT ANY WARRANTY; without even the implied warranty of
   MERCHANTABILITY or FITNESS FOR A PARTICULAR PURPOSE.  See the
   GNU Lesser General Public License for more details.
   
   Cite this work as:
   * C. Bannwarth, E. Caldeweyher, S. Ehlert, A. Hansen, P. Pracht,
     J. Seibert, S. Spicher, S. Grimme, WIREs Comput. Mol. Sci., 2020, 11,
     e01493. DOI: 10.1002/wcms.1493
   
   for GFN2-xTB:
   * C. Bannwarth, S. Ehlert and S. Grimme., J. Chem. Theory Comput., 2019,
     15, 1652-1671. DOI: 10.1021/acs.jctc.8b01176
   for GFN1-xTB:
   * S. Grimme, C. Bannwarth, P. Shushkov, J. Chem. Theory Comput., 2017,
     13, 1989-2009. DOI: 10.1021/acs.jctc.7b00118
   for GFN0-xTB:
   * P. Pracht, E. Caldeweyher, S. Ehlert, S. Grimme, ChemRxiv, 2019, preprint.
     DOI: 10.26434/chemrxiv.8326202.v1
   for GFN-FF:
   * S. Spicher and S. Grimme, Angew. Chem. Int. Ed., 2020, 59, 15665-15673.
     DOI: 10.1002/anie.202004239
   
   for ALPB and GBSA implicit solvation:
   * S. Ehlert, M. Stahn, S. Spicher, S. Grimme, J. Chem. Theory Comput.,
     2021, 17, 4250-4261. DOI: 10.1021/acs.jctc.1c00471
   
   for DFT-D4:
   * E. Caldeweyher, C. Bannwarth and S. Grimme, J. Chem. Phys., 2017,
     147, 034112. DOI: 10.1063/1.4993215
   * E. Caldeweyher, S. Ehlert, A. Hansen, H. Neugebauer, S. Spicher,
     C. Bannwarth and S. Grimme, J. Chem. Phys., 2019, 150, 154122.
     DOI: 10.1063/1.5090222
   * E. Caldeweyher, J.-M. Mewes, S. Ehlert and S. Grimme, Phys. Chem. Chem. Phys.
     2020, 22, 8499-8512. DOI: 10.1039/D0CP00502A
   
   for sTDA-xTB:
   * S. Grimme and C. Bannwarth, J. Chem. Phys., 2016, 145, 054103.
     DOI: 10.1063/1.4959605
   
   in the mass-spec context:
   * V. Asgeirsson, C. Bauer and S. Grimme, Chem. Sci., 2017, 8, 4879.
     DOI: 10.1039/c7sc00601b
   * J. Koopman and S. Grimme, ACS Omega 2019, 4, 12, 15120-15133.
     DOI: 10.1021/acsomega.9b02011
   
   for metadynamics refer to:
   * S. Grimme, J. Chem. Theory Comput., 2019, 155, 2847-2862
     DOI: 10.1021/acs.jctc.9b00143
   
   for SPH calculations refer to:
   * S. Spicher and S. Grimme, J. Chem. Theory Comput., 2021, 17, 1701-1714
     DOI: 10.1021/acs.jctc.0c01306
   
   with help from (in alphabetical order)
   P. Atkinson, C. Bannwarth, F. Bohle, G. Brandenburg, E. Caldeweyher
   M. Checinski, S. Dohm, S. Ehlert, S. Ehrlich, I. Gerasimov, C. Hölzer
   A. Katbashev, J. Koopman, C. Lavigne, S. Lehtola, F. März, M. Müller,
   F. Musil, H. Neugebauer, J. Pisarek, C. Plett, P. Pracht, F. Pultar,
   J. Seibert, P. Shushkov, S. Spicher, M. Stahn, M. Steiner, T. Strunk,
   J. Stückrath, T. Rose, and J. Unsleber
   
 * started run on 2024/10/04 at 21:06:25.294     

           -------------------------------------------------
          |                Calculation Setup                |
           -------------------------------------------------

          program call               : /home/abt-grimme/AK-bin/xtb input.xyz --input input.inp --opt
          hostname                   : boar070.thch.uni-bonn.de
          coordinate file            : input.xyz
          omp threads                :                     8

   ID    Z sym.   atoms
    1    6 C      1-146, 294-300, 306, 309-314, 323-468, 616-622, 628,
                  631-636, 645-790, 938-944, 950, 953-958, 967-1112,
                  1260-1266, 1272, 1275-1280, 1289-1434, 1582-1588, 1594,
                  1597-1602, 1611-1756, 1904-1910, 1916, 1919-1924,
                  1933-2078, 2226-2232, 2238, 2241-2246, 2255-2400,
                  2548-2554, 2560, 2563-2568, 2577-2722, 2870-2876, 2882,
                  2885-2890, 2899-3044, 3192-3198, 3204, 3207-3212,
                  3221-3366, 3514-3520, 3526, 3529-3534, 3543-3688,
                  3836-3842, 3848, 3851-3856
    2    1 H      147-293, 301-305, 307, 308, 315-322, 469-615, 623-627, 629,
                  630, 637-644, 791-937, 945-949, 951, 952, 959-966,
                  1113-1259, 1267-1271, 1273, 1274, 1281-1288, 1435-1581,
                  1589-1593, 1595, 1596, 1603-1610, 1757-1903, 1911-1915,
                  1917, 1918, 1925-1932, 2079-2225, 2233-2237, 2239, 2240,
                  2247-2254, 2401-2547, 2555-2559, 2561, 2562, 2569-2576,
                  2723-2869, 2877-2881, 2883, 2884, 2891-2898, 3045-3191,
                  3199-3203, 3205, 3206, 3213-3220, 3367-3513, 3521-3525,
                  3527, 3528, 3535-3542, 3689-3835, 3843-3847, 3849, 3850,
                  3857-3864

molecular fragmentation (1/2 indicates fragments):
111111111111111111111111111111111111111111111111111111111111111111111111
111111111111111111111111111111111111111111111111111111111111111111111111
111111111111111111111111111111111111111111111111111111111111111111111111
111111111111111111111111111111111111111111111111111111111111111111111111
111111111111111111111111111111111122222222222222222222222222222222222222
222222222222222222222222222222222222222222222222222222222222222222222222
222222222222222222222222222222222222222222222222222222222222222222222222
222222222222222222222222222222222222222222222222222222222222222222222222
222222222222222222222222222222222222222222222222222222222222222222222222
222222222222222222222222222222222222222222222222222222222222222222222222
222222222222222222222222222222222222222222222222222222222222222222222222
222222222222222222222222222222222222222222222222222222222222222222222222
222222222222222222222222222222222222222222222222222222222222222222222222
222222222222222222222222222222222222222222222222222222222222222222222222
222222222222222222222222222222222222222222222222222222222222222222222222
222222222222222222222222222222222222222222222222222222222222222222222222
222222222222222222222222222222222222222222222222222222222222222222222222
222222222222222222222222222222222222222222222222222222222222222222222222
222222222222222222222222222222222222222222222222222222222222222222222222
222222222222222222222222222222222222222222222222222222222222222222222222
222222222222222222222222222222222222222222222222222222222222222222222222
222222222222222222222222222222222222222222222222222222222222222222222222
222222222222222222222222222222222222222222222222222222222222222222222222
222222222222222222222222222222222222222222222222222222222222222222222222
222222222222222222222222222222222222222222222222222222222222222222222222
222222222222222222222222222222222222222222222222222222222222222222222222
222222222222222222222222222222222222222222222222222222222222222222222222
222222222222222222222222222222222222222222222222222222222222222222222222
222222222222222222222222222222222222222222222222222222222222222222222222
222222222222222222222222222222222222222222222222222222222222222222222222
222222222222222222222222222222222222222222222222222222222222222222222222
222222222222222222222222222222222222222222222222222222222222222222222222
222222222222222222222222222222222222222222222222222222222222222222222222
222222222222222222222222222222222222222222222222222222222222222222222222
222222222222222222222222222222222222222222222222222222222222222222222222
222222222222222222222222222222222222222222222222222222222222222222222222
222222222222222222222222222222222222222222222222222222222222222222222222
222222222222222222222222222222222222222222222222222222222222222222222222
222222222222222222222222222222222222222222222222222222222222222222222222
222222222222222222222222222222222222222222222222222222222222222222222222
222222222222222222222222222222222222222222222222222222222222222222222222
222222222222222222222222222222222222222222222222222222222222222222222222
222222222222222222222222222222222222222222222222222222222222222222222222
222222222222222222222222222222222222222222222222222222222222222222222222
222222222222222222222222222222222222222222222222222222222222222222222222
222222222222222222222222222222222222222222222222222222222222222222222222
222222222222222222222222222222222222222222222222222222222222222222222222
222222222222222222222222222222222222222222222222222222222222222222222222
222222222222222222222222222222222222222222222222222222222222222222222222
222222222222222222222222222222222222222222222222222222222222222222222222
222222222222222222222222222222222222222222222222222222222222222222222222
222222222222222222222222222222222222222222222222222222222222222222222222
222222222222222222222222222222222222222222222222222222222222222222222222
222222222222222222222222222222222222222222222222
# atoms in fragment 1/2:   322  3542
 fragment masses (1/2) :     2085.00    22935.05
CMA distance (Bohr)    :  36.929
constraining FC (au)   :  0.0500

           -------------------------------------------------
          |                 G F N 2 - x T B                 |
           -------------------------------------------------

        Reference                      10.1021/acs.jctc.8b01176
      * Hamiltonian:
        H0-scaling (s, p, d)           1.850000    2.230000    2.230000
        zeta-weighting                 0.500000
      * Dispersion:
        s8                             2.700000
        a1                             0.520000
        a2                             5.000000
        s9                             5.000000
      * Repulsion:
        kExp                           1.500000    1.000000
        rExp                           1.000000
      * Coulomb:
        alpha                          2.000000
        third order                    shell-resolved
        anisotropic                    true
        a3                             3.000000
        a5                             4.000000
        cn-shift                       1.200000
        cn-exp                         4.000000
        max-rad                        5.000000


          ...................................................
          :                      SETUP                      :
          :.................................................:
          :  # basis functions                9624          :
          :  # atomic orbitals                9624          :
          :  # shells                         5784          :
          :  # electrons                      9624          :
          :  max. iterations                   250          :
          :  Hamiltonian                  GFN2-xTB          :
          :  restarted?                      false          :
          :  GBSA solvation                  false          :
          :  PC potential                    false          :
          :  electronic temp.          300.0000000     K    :
          :  accuracy                    1.0000000          :
          :  -> integral cutoff          0.2500000E+02      :
          :  -> integral neglect         0.1000000E-07      :
          :  -> SCF convergence          0.1000000E-05 Eh   :
          :  -> wf. convergence          0.1000000E-03 e    :
          :  Broyden damping             0.4000000          :
          ...................................................

 iter      E             dE          RMSdq      gap      omega  full diag
   1  -5195.7771778 -0.519578E+04  0.369E+00    4.32       0.0  T
   2  -5198.3250395 -0.254786E+01  0.218E+00    4.27       1.0  T
   3  -5198.2441495  0.808900E-01  0.494E-01    4.06       1.0  T
   4  -5198.4530226 -0.208873E+00  0.242E-01    3.98       1.0  T
   5  -5198.6107714 -0.157749E+00  0.469E-02    4.04       1.0  T
   6  -5198.6132562 -0.248479E-02  0.291E-02    4.04       1.0  T
   7  -5198.6146343 -0.137818E-02  0.112E-02    4.04       1.0  T
   8  -5198.6149381 -0.303788E-03  0.293E-03    4.04       1.0  T
   9  -5198.6149558 -0.176871E-04  0.125E-03    4.04       1.3  T
  10  -5198.6149575 -0.164805E-05  0.561E-04    4.04       2.9  T
  11  -5198.6149579 -0.406263E-06  0.295E-04    4.04       5.5  T
  12  -5198.6149580 -0.180366E-06  0.101E-04    4.04      15.9  T

   *** convergence criteria satisfied after 12 iterations ***

         #    Occupation            Energy/Eh            Energy/eV
      -------------------------------------------------------------
         1        2.0000           -0.6534643             -17.7817
       ...           ...                  ...                  ...
      4806        2.0000           -0.3821669             -10.3993
      4807        2.0000           -0.3820284             -10.3955
      4808        2.0000           -0.3817032             -10.3867
      4809        2.0000           -0.3816156             -10.3843
      4810        2.0000           -0.3809648             -10.3666
      4811        2.0000           -0.3803019             -10.3485
      4812        2.0000           -0.3793088             -10.3215 (HOMO)
      4813                         -0.2307428              -6.2788 (LUMO)
      4814                         -0.2302413              -6.2652
      4815                         -0.2287512              -6.2246
      4816                         -0.2287102              -6.2235
      4817                         -0.2279151              -6.2019
       ...                                ...                  ...
      9624                          0.6817457              18.5512
      -------------------------------------------------------------
                  HL-Gap            0.1485660 Eh            4.0427 eV
             Fermi-level           -0.3050258 Eh           -8.3002 eV

 SCC (total)                   0 d,  0 h, 47 min, 59.063 sec
 SCC setup                      ...        0 min,  0.712 sec (  0.025%)
 Dispersion                     ...        0 min,  6.960 sec (  0.242%)
 classical contributions        ...        0 min,  0.159 sec (  0.006%)
 integral evaluation            ...        0 min, 11.688 sec (  0.406%)
 iterations                     ...       42 min, 13.693 sec ( 88.004%)
 molecular gradient             ...        4 min, 59.000 sec ( 10.385%)
 printout                       ...        0 min, 26.850 sec (  0.933%)

         :::::::::::::::::::::::::::::::::::::::::::::::::::::
         ::                     SUMMARY                     ::
         :::::::::::::::::::::::::::::::::::::::::::::::::::::
         :: total energy           -5104.084220995134 Eh    ::
         :: gradient norm              0.024840957664 Eh/a0 ::
         :: HOMO-LUMO gap              4.042686864689 eV    ::
         ::.................................................::
         :: SCC energy             -5198.614958048822 Eh    ::
         :: -> isotropic ES            0.263993324323 Eh    ::
         :: -> anisotropic ES          0.784632164680 Eh    ::
         :: -> anisotropic XC          3.252645855439 Eh    ::
         :: -> dispersion             -7.027855894485 Eh    ::
         :: repulsion energy          93.373130273413 Eh    ::
         :: add. restraining           0.000000000000 Eh    ::
         :: total charge              -0.000000000036 e     ::
         :::::::::::::::::::::::::::::::::::::::::::::::::::::

      ----------------------------------------------------------- 
     |              Fast Inertial Relaxation Engine              |
      ----------------------------------------------------------- 

          ...................................................
          :                      SETUP                      :
          :.................................................:
          :   energy convergence        0.5000000E-05 Eh    :
          :   grad. convergence         0.1000000E-02 Eh/a0 :
          :   optimization log               true           :
          :   writing optlog all                1     steps :
          :   Hessian reset                    20     steps :
          :   time step scaling                 5     steps :
          :   maximium step len.        1.0000000     a0    :
          :   initial time step         0.2500000     fs    :
          :   maximum time step         1.2500000     fs    :
          :   power reset thr           0.0000000     au    :
          :   alpha parameter           0.1000000           :
          :   BFGS update                   false           :
          :   preconditioning               false           :
          ...................................................

........................................................................
.............................. CYCLE    1 ..............................
........................................................................

 iter      E             dE          RMSdq      gap      omega  full diag
   1  -5198.6160624 -0.519862E+04  0.341E-04    4.04       0.0  T
   2  -5198.6160624 -0.179562E-07  0.209E-04    4.04       7.7  T
   3  -5198.6160624  0.349692E-07  0.907E-05    4.04      17.7  T
     SCC iter.                  ...       10 min, 36.882 sec
     gradient                   ...        4 min, 59.637 sec
 * total energy  : -5104.0842910 Eh     change    :  -0.7005279E-04 Eh
   gradient norm :     0.0233085 Eh/a0  converged?    E=F G=F D=F
   time step     :     0.2500000 fs     power     :   0.3598871E-08
   step length   :     0.0029113 a0     speed     :   0.2816846E-03

........................................................................
.............................. CYCLE    2 ..............................
........................................................................

 iter      E             dE          RMSdq      gap      omega  full diag
   1  -5198.6177027 -0.519862E+04  0.500E-04    4.04       0.0  T
   2  -5198.6177027 -0.346718E-07  0.306E-04    4.04       5.3  T
   3  -5198.6177027  0.457503E-07  0.108E-04    4.04      14.9  T
     SCC iter.                  ...       10 min, 33.288 sec
     gradient                   ...        4 min, 59.788 sec
 * total energy  : -5104.0843858 Eh     change    :  -0.9479605E-04 Eh
   gradient norm :     0.0211402 Eh/a0  converged?    E=F G=F D=F
   time step     :     0.2500000 fs     power     :   0.4778375E-08
   step length   :     0.0042763 a0     speed     :   0.4137589E-03

........................................................................
.............................. CYCLE    3 ..............................
........................................................................

 iter      E             dE          RMSdq      gap      omega  full diag
   1  -5198.6198735 -0.519862E+04  0.644E-04    4.04       0.0  T
   2  -5198.6198736 -0.534046E-07  0.393E-04    4.04       4.1  T
   3  -5198.6198735  0.706068E-07  0.130E-04    4.04      12.4  T
     SCC iter.                  ...       10 min, 36.177 sec
     gradient                   ...        4 min, 58.483 sec
 * total energy  : -5104.0844943 Eh     change    :  -0.1084596E-03 Eh
   gradient norm :     0.0185481 Eh/a0  converged?    E=F G=F D=F
   time step     :     0.2500000 fs     power     :   0.5350423E-08
   step length   :     0.0055103 a0     speed     :   0.5331491E-03

........................................................................
.............................. CYCLE    4 ..............................
........................................................................

 iter      E             dE          RMSdq      gap      omega  full diag
   1  -5198.6225731 -0.519862E+04  0.769E-04    4.04       0.0  T
   2  -5198.6225732 -0.709542E-07  0.471E-04    4.04       3.4  T
   3  -5198.6225731  0.109135E-06  0.155E-04    4.04      10.4  T
     SCC iter.                  ...       10 min, 35.456 sec
     gradient                   ...        5 min,  5.553 sec
 * total energy  : -5104.0846048 Eh     change    :  -0.1104692E-03 Eh
   gradient norm :     0.0158138 Eh/a0  converged?    E=F G=F D=F
   time step     :     0.2500000 fs     power     :   0.5316299E-08
   step length   :     0.0065803 a0     speed     :   0.6366758E-03

........................................................................
.............................. CYCLE    5 ..............................
........................................................................

 iter      E             dE          RMSdq      gap      omega  full diag
   1  -5198.6258017 -0.519863E+04  0.871E-04    4.04       0.0  T
   2  -5198.6258018 -0.836762E-07  0.536E-04    4.04       3.0  T
   3  -5198.6258016  0.166110E-06  0.183E-04    4.04       8.8  T
     SCC iter.                  ...       10 min, 35.184 sec
     gradient                   ...        5 min,  0.773 sec
 * total energy  : -5104.0847073 Eh     change    :  -0.1025518E-03 Eh
   gradient norm :     0.0132897 Eh/a0  converged?    E=F G=F D=F
   time step     :     0.2500000 fs     power     :   0.4785652E-08
   step length   :     0.0074599 a0     speed     :   0.7217898E-03

........................................................................
.............................. CYCLE    6 ..............................
........................................................................

 iter      E             dE          RMSdq      gap      omega  full diag
   1  -5198.6299750 -0.519863E+04  0.105E-03    4.04       0.0  T
   2  -5198.6299752 -0.111381E-06  0.651E-04    4.04       2.5  T
   3  -5198.6299748  0.333213E-06  0.247E-04    4.04       6.5  T
     SCC iter.                  ...       10 min, 36.487 sec
     gradient                   ...        5 min,  0.451 sec
 * total energy  : -5104.0848032 Eh     change    :  -0.9588891E-04 Eh
   gradient norm :     0.0111782 Eh/a0  converged?    E=F G=F D=F
   time step     :     0.2750000 fs     power     :   0.3845063E-08
   step length   :     0.0090184 a0     speed     :   0.7932570E-03

........................................................................
.............................. CYCLE    7 ..............................
........................................................................

 iter      E             dE          RMSdq      gap      omega  full diag
   1  -5198.6352428 -0.519864E+04  0.122E-03    4.04       0.0  T
   2  -5198.6352429 -0.134515E-06  0.767E-04    4.04       2.1  T
   3  -5198.6352423  0.607024E-06  0.325E-04    4.04       5.0  T
     SCC iter.                  ...       10 min, 35.780 sec
     gradient                   ...        5 min,  1.256 sec
 * total energy  : -5104.0848838 Eh     change    :  -0.8058529E-04 Eh
   gradient norm :     0.0099520 Eh/a0  converged?    E=F G=F D=F
   time step     :     0.3025000 fs     power     :   0.2697964E-08
   step length   :     0.0105398 a0     speed     :   0.8427985E-03

........................................................................
.............................. CYCLE    8 ..............................
........................................................................

 iter      E             dE          RMSdq      gap      omega  full diag
   1  -5198.6416300 -0.519864E+04  0.136E-03    4.04       0.0  T
   2  -5198.6416302 -0.154302E-06  0.867E-04    4.05       1.9  T
   3  -5198.6416292  0.944756E-06  0.403E-04    4.05       4.0  T
     SCC iter.                  ...       10 min, 35.694 sec
     gradient                   ...        4 min, 58.933 sec
 * total energy  : -5104.0849447 Eh     change    :  -0.6088974E-04 Eh
   gradient norm :     0.0095496 Eh/a0  converged?    E=F G=F D=F
   time step     :     0.3327500 fs     power     :   0.1619638E-08
   step length   :     0.0118605 a0     speed     :   0.8621841E-03

........................................................................
.............................. CYCLE    9 ..............................
........................................................................

 iter      E             dE          RMSdq      gap      omega  full diag
   1  -5198.6489327 -0.519865E+04  0.147E-03    4.05       0.0  T
   2  -5198.6489328 -0.178577E-06  0.938E-04    4.05       1.7  T
   3  -5198.6489317  0.114839E-05  0.456E-04    4.05       3.5  T
   4  -5198.6489330 -0.135470E-05  0.520E-05    4.05      30.9  T
   5  -5198.6489331 -0.757427E-08  0.238E-05    4.05      67.6  T
     SCC iter.                  ...       17 min, 38.816 sec
     gradient                   ...        4 min, 59.726 sec
 * total energy  : -5104.0849879 Eh     change    :  -0.4319650E-04 Eh
   gradient norm :     0.0093750 Eh/a0  converged?    E=F G=F D=F
   time step     :     0.3660250 fs     power     :   0.7553468E-09
   step length   :     0.0128721 a0     speed     :   0.8506582E-03

........................................................................
.............................. CYCLE   10 ..............................
........................................................................

 iter      E             dE          RMSdq      gap      omega  full diag
   1  -5198.6566103 -0.519866E+04  0.153E-03    4.05       0.0  T
   2  -5198.6566105 -0.203267E-06  0.969E-04    4.05       1.7  T
   3  -5198.6566093  0.124150E-05  0.493E-04    4.05       3.3  T
   4  -5198.6566108 -0.150423E-05  0.542E-05    4.05      29.7  T
   5  -5198.6566108 -0.972886E-08  0.230E-05    4.05      70.0  T
     SCC iter.                  ...       17 min, 38.706 sec
     gradient                   ...        5 min,  0.311 sec
 * total energy  : -5104.0850130 Eh     change    :  -0.2510253E-04 Eh
   gradient norm :     0.0092050 Eh/a0  converged?    E=F G=F D=F
   time step     :     0.4026275 fs     power     :   0.1140001E-09
   step length   :     0.0135604 a0     speed     :   0.8146768E-03

........................................................................
.............................. CYCLE   11 ..............................
........................................................................

 iter      E             dE          RMSdq      gap      omega  full diag
   1  -5198.6639049 -0.519866E+04  0.154E-03    4.05       0.0  T
   2  -5198.6639051 -0.213397E-06  0.953E-04    4.05       1.7  T
   3  -5198.6639041  0.106316E-05  0.469E-04    4.05       3.4  T
   4  -5198.6639053 -0.127636E-05  0.591E-05    4.05      27.2  T
   5  -5198.6639054 -0.134987E-07  0.222E-05    4.05      72.5  T
     SCC iter.                  ...       17 min, 36.218 sec
     gradient                   ...        5 min,  0.377 sec
 * total energy  : -5104.0850233 Eh     change    :  -0.1031644E-04 Eh
   gradient norm :     0.0093719 Eh/a0  converged?    E=F G=F D=F
   time step     :     0.4428903 fs     power     :  -0.3424281E-09
   step length   :     0.0139357 a0     speed     :   0.7611090E-03

........................................................................
.............................. CYCLE   12 ..............................
........................................................................
 * reset velocities

 iter      E             dE          RMSdq      gap      omega  full diag
   1  -5198.6637474 -0.519866E+04  0.395E-05    4.05       0.0  T
   2  -5198.6637474 -0.416549E-09  0.302E-05    4.05      53.4  T
   3  -5198.6637474 -0.149157E-09  0.150E-05    4.05     107.4  T
     SCC iter.                  ...       10 min, 40.295 sec
     gradient                   ...        4 min, 59.251 sec
 * total energy  : -5104.0850273 Eh     change    :  -0.3997045E-05 Eh
   gradient norm :     0.0091817 Eh/a0  converged?    E=T G=F D=T
   time step     :     0.2214451 fs     power     :   0.2370593E-09
   step length   :     0.0004309 a0     speed     :   0.4706697E-04

........................................................................
.............................. CYCLE   13 ..............................
........................................................................

 iter      E             dE          RMSdq      gap      omega  full diag
   1  -5198.6634319 -0.519866E+04  0.793E-05    4.05       0.0  T
   2  -5198.6634319 -0.164528E-08  0.568E-05    4.05      28.3  T
   3  -5198.6634319  0.226737E-08  0.250E-05    4.05      64.4  T
     SCC iter.                  ...       10 min, 37.709 sec
     gradient                   ...        4 min, 58.026 sec
 * total energy  : -5104.0850349 Eh     change    :  -0.7648887E-05 Eh
   gradient norm :     0.0088092 Eh/a0  converged?    E=F G=F D=T
   time step     :     0.2214451 fs     power     :   0.4501387E-09
   step length   :     0.0008530 a0     speed     :   0.9317782E-04

........................................................................
.............................. CYCLE   14 ..............................
........................................................................

 iter      E             dE          RMSdq      gap      omega  full diag
   1  -5198.6629607 -0.519866E+04  0.118E-04    4.05       0.0  T
   2  -5198.6629607 -0.332784E-08  0.830E-05    4.05      19.4  T
   3  -5198.6629607  0.557793E-08  0.357E-05    4.05      45.1  T
     SCC iter.                  ...       10 min, 35.672 sec
     gradient                   ...        4 min, 59.359 sec
 * total energy  : -5104.0850457 Eh     change    :  -0.1073129E-04 Eh
   gradient norm :     0.0082698 Eh/a0  converged?    E=F G=F D=F
   time step     :     0.2214451 fs     power     :   0.6226057E-09
   step length   :     0.0012580 a0     speed     :   0.1374084E-03

........................................................................
.............................. CYCLE   15 ..............................
........................................................................

 iter      E             dE          RMSdq      gap      omega  full diag
   1  -5198.6623365 -0.519866E+04  0.154E-04    4.05       0.0  T
   2  -5198.6623365 -0.545879E-08  0.107E-04    4.05      15.0  T
   3  -5198.6623365  0.982072E-08  0.459E-05    4.05      35.1  T
     SCC iter.                  ...       10 min, 36.782 sec
     gradient                   ...        5 min,  1.435 sec
 * total energy  : -5104.0850586 Eh     change    :  -0.1295431E-04 Eh
   gradient norm :     0.0075879 Eh/a0  converged?    E=F G=F D=F
   time step     :     0.2214451 fs     power     :   0.7420409E-09
   step length   :     0.0016377 a0     speed     :   0.1788936E-03

........................................................................
.............................. CYCLE   16 ..............................
........................................................................

 iter      E             dE          RMSdq      gap      omega  full diag
   1  -5198.6615624 -0.519866E+04  0.186E-04    4.05       0.0  T
   2  -5198.6615624 -0.765158E-08  0.129E-04    4.05      12.4  T
   3  -5198.6615623  0.149848E-07  0.552E-05    4.05      29.1  T
     SCC iter.                  ...       10 min, 38.278 sec
     gradient                   ...        4 min, 58.922 sec
 * total energy  : -5104.0850729 Eh     change    :  -0.1423282E-04 Eh
   gradient norm :     0.0067975 Eh/a0  converged?    E=F G=F D=F
   time step     :     0.2214451 fs     power     :   0.8016015E-09
   step length   :     0.0019853 a0     speed     :   0.2168553E-03

........................................................................
.............................. CYCLE   17 ..............................
........................................................................

 iter      E             dE          RMSdq      gap      omega  full diag
   1  -5198.6606416 -0.519866E+04  0.213E-04    4.05       0.0  T
   2  -5198.6606416 -0.964792E-08  0.149E-04    4.05      10.8  T
   3  -5198.6606416  0.205455E-07  0.634E-05    4.05      25.4  T
     SCC iter.                  ...       10 min, 38.103 sec
     gradient                   ...        5 min,  0.527 sec
 * total energy  : -5104.0850873 Eh     change    :  -0.1443488E-04 Eh
   gradient norm :     0.0059440 Eh/a0  converged?    E=F G=F D=F
   time step     :     0.2214451 fs     power     :   0.8008477E-09
   step length   :     0.0022943 a0     speed     :   0.2506150E-03

........................................................................
.............................. CYCLE   18 ..............................
........................................................................

 iter      E             dE          RMSdq      gap      omega  full diag
   1  -5198.6594571 -0.519866E+04  0.260E-04    4.05       0.0  T
   2  -5198.6594571 -0.141517E-07  0.182E-04    4.05       8.8  T
   3  -5198.6594571  0.328619E-07  0.787E-05    4.05      20.4  T
     SCC iter.                  ...       10 min, 39.255 sec
     gradient                   ...        5 min,  0.330 sec
 * total energy  : -5104.0851023 Eh     change    :  -0.1504590E-04 Eh
   gradient norm :     0.0049991 Eh/a0  converged?    E=F G=F D=F
   time step     :     0.2435896 fs     power     :   0.7371993E-09
   step length   :     0.0028452 a0     speed     :   0.2825288E-03

........................................................................
.............................. CYCLE   19 ..............................
........................................................................

 iter      E             dE          RMSdq      gap      omega  full diag
   1  -5198.6579570 -0.519866E+04  0.309E-04    4.05       0.0  T
   2  -5198.6579570 -0.188193E-07  0.217E-04    4.05       7.4  T
   3  -5198.6579570  0.500540E-07  0.946E-05    4.05      17.0  T
     SCC iter.                  ...       10 min, 38.707 sec
     gradient                   ...        4 min, 58.460 sec
 * total energy  : -5104.0851168 Eh     change    :  -0.1444086E-04 Eh
   gradient norm :     0.0040798 Eh/a0  converged?    E=F G=F D=F
   time step     :     0.2679486 fs     power     :   0.6090854E-09
   step length   :     0.0034406 a0     speed     :   0.3105949E-03

........................................................................
.............................. CYCLE   20 ..............................
........................................................................

 iter      E             dE          RMSdq      gap      omega  full diag
   1  -5198.6560920 -0.519866E+04  0.353E-04    4.05       0.0  T
   2  -5198.6560920 -0.223899E-07  0.249E-04    4.05       6.5  T
   3  -5198.6560920  0.721784E-07  0.110E-04    4.05      14.6  T
     SCC iter.                  ...       10 min, 35.387 sec
     gradient                   ...        4 min, 58.459 sec
 * total energy  : -5104.0851291 Eh     change    :  -0.1233480E-04 Eh
   gradient norm :     0.0034252 Eh/a0  converged?    E=F G=F D=F
   time step     :     0.2947435 fs     power     :   0.4332007E-09
   step length   :     0.0040441 a0     speed     :   0.3318892E-03
 * RMSD in coord.:     0.0013741 a0     energy gain  -0.9081296E-03 Eh

........................................................................
.............................. CYCLE   21 ..............................
........................................................................

 iter      E             dE          RMSdq      gap      omega  full diag
   1  -5198.6543908 -0.519865E+04  0.297E-04    4.05       0.0  T
   2  -5198.6543908 -0.129039E-07  0.206E-04    4.04       7.8  T
   3  -5198.6543907  0.533000E-07  0.918E-05    4.04      17.5  T
     SCC iter.                  ...       10 min, 34.792 sec
     gradient                   ...        4 min, 59.865 sec
 * total energy  : -5104.0851366 Eh     change    :  -0.7460680E-05 Eh
   gradient norm :     0.0032732 Eh/a0  converged?    E=F G=F D=F
   time step     :     0.2500000 fs     power     :   0.3011787E-09
   step length   :     0.0034869 a0     speed     :   0.3373746E-03

........................................................................
.............................. CYCLE   22 ..............................
........................................................................

 iter      E             dE          RMSdq      gap      omega  full diag
   1  -5198.6526408 -0.519865E+04  0.280E-04    4.04       0.0  T
   2  -5198.6526408 -0.970795E-08  0.193E-04    4.04       8.3  T
   3  -5198.6526408  0.514519E-07  0.888E-05    4.04      18.1  T
     SCC iter.                  ...       10 min, 36.719 sec
     gradient                   ...        5 min,  0.290 sec
 * total energy  : -5104.0851420 Eh     change    :  -0.5464203E-05 Eh
   gradient norm :     0.0033882 Eh/a0  converged?    E=F G=F D=F
   time step     :     0.2500000 fs     power     :   0.2136768E-09
   step length   :     0.0034390 a0     speed     :   0.3327451E-03

........................................................................
.............................. CYCLE   23 ..............................
........................................................................

 iter      E             dE          RMSdq      gap      omega  full diag
   1  -5198.6509231 -0.519865E+04  0.260E-04    4.04       0.0  T
   2  -5198.6509232 -0.649106E-08  0.175E-04    4.04       9.2  T
   3  -5198.6509231  0.406253E-07  0.793E-05    4.04      20.3  T
     SCC iter.                  ...       10 min, 35.195 sec
     gradient                   ...        4 min, 59.363 sec
 * total energy  : -5104.0851464 Eh     change    :  -0.4386219E-05 Eh
   gradient norm :     0.0035899 Eh/a0  converged?    E=T G=F D=F
   time step     :     0.2500000 fs     power     :   0.1771318E-09
   step length   :     0.0033218 a0     speed     :   0.3213998E-03

........................................................................
.............................. CYCLE   24 ..............................
........................................................................

 iter      E             dE          RMSdq      gap      omega  full diag
   1  -5198.6493075 -0.519865E+04  0.243E-04    4.04       0.0  T
   2  -5198.6493075 -0.438195E-08  0.158E-04    4.04      10.2  T
   3  -5198.6493075  0.237151E-07  0.619E-05    4.04      26.0  T
     SCC iter.                  ...       10 min, 38.402 sec
     gradient                   ...        5 min,  0.706 sec
 * total energy  : -5104.0851506 Eh     change    :  -0.4171259E-05 Eh
   gradient norm :     0.0037531 Eh/a0  converged?    E=T G=F D=F
   time step     :     0.2500000 fs     power     :   0.1819650E-09
   step length   :     0.0031843 a0     speed     :   0.3081000E-03

........................................................................
.............................. CYCLE   25 ..............................
........................................................................

 iter      E             dE          RMSdq      gap      omega  full diag
   1  -5198.6478452 -0.519865E+04  0.233E-04    4.04       0.0  T
   2  -5198.6478452 -0.293585E-08  0.144E-04    4.04      11.2  T
   3  -5198.6478452  0.716318E-08  0.368E-05    4.04      43.7  T
     SCC iter.                  ...       10 min, 36.354 sec
     gradient                   ...        5 min,  2.080 sec
 * total energy  : -5104.0851552 Eh     change    :  -0.4569690E-05 Eh
   gradient norm :     0.0038224 Eh/a0  converged?    E=T G=F D=F
   time step     :     0.2500000 fs     power     :   0.2119164E-09
   step length   :     0.0030640 a0     speed     :   0.2964619E-03

........................................................................
.............................. CYCLE   26 ..............................
........................................................................

 iter      E             dE          RMSdq      gap      omega  full diag
   1  -5198.6464462 -0.519865E+04  0.252E-04    4.04       0.0  T
   2  -5198.6464462 -0.284672E-08  0.150E-04    4.04      10.7  T
   3  -5198.6464462  0.159525E-08  0.248E-05    4.04      64.9  T
     SCC iter.                  ...       10 min, 36.267 sec
     gradient                   ...        4 min, 59.122 sec
 * total energy  : -5104.0851609 Eh     change    :  -0.5711014E-05 Eh
   gradient norm :     0.0037768 Eh/a0  converged?    E=F G=F D=F
   time step     :     0.2750000 fs     power     :   0.2508164E-09
   step length   :     0.0032907 a0     speed     :   0.2894493E-03

........................................................................
.............................. CYCLE   27 ..............................
........................................................................

 iter      E             dE          RMSdq      gap      omega  full diag
   1  -5198.6451759 -0.519865E+04  0.279E-04    4.04       0.0  T
   2  -5198.6451759 -0.322234E-08  0.164E-04    4.04       9.8  T
   3  -5198.6451759  0.355521E-08  0.315E-05    4.04      51.0  T
     SCC iter.                  ...       10 min, 37.235 sec
     gradient                   ...        4 min, 59.083 sec
 * total energy  : -5104.0851680 Eh     change    :  -0.7111529E-05 Eh
   gradient norm :     0.0036063 Eh/a0  converged?    E=F G=F D=F
   time step     :     0.3025000 fs     power     :   0.2858011E-09
   step length   :     0.0036006 a0     speed     :   0.2879135E-03

........................................................................
.............................. CYCLE   28 ..............................
........................................................................

 iter      E             dE          RMSdq      gap      omega  full diag
   1  -5198.6441124 -0.519864E+04  0.316E-04    4.04       0.0  T
   2  -5198.6441124 -0.444197E-08  0.187E-04    4.04       8.6  T
   3  -5198.6441124  0.139717E-07  0.545E-05    4.04      29.5  T
     SCC iter.                  ...       10 min, 38.018 sec
     gradient                   ...        5 min,  2.312 sec
 * total energy  : -5104.0851764 Eh     change    :  -0.8392964E-05 Eh
   gradient norm :     0.0033270 Eh/a0  converged?    E=F G=F D=F
   time step     :     0.3327500 fs     power     :   0.3056729E-09
   step length   :     0.0040097 a0     speed     :   0.2914806E-03

........................................................................
.............................. CYCLE   29 ..............................
........................................................................

 iter      E             dE          RMSdq      gap      omega  full diag
   1  -5198.6433487 -0.519864E+04  0.362E-04    4.04       0.0  T
   2  -5198.6433487 -0.638556E-08  0.217E-04    4.04       7.4  T
   3  -5198.6433486  0.377113E-07  0.860E-05    4.04      18.7  T
     SCC iter.                  ...       10 min, 35.471 sec
     gradient                   ...        4 min, 59.064 sec
 * total energy  : -5104.0851857 Eh     change    :  -0.9326724E-05 Eh
   gradient norm :     0.0029860 Eh/a0  converged?    E=F G=F D=F
   time step     :     0.3660250 fs     power     :   0.3027859E-09
   step length   :     0.0045220 a0     speed     :   0.2988405E-03

........................................................................
.............................. CYCLE   30 ..............................
........................................................................

 iter      E             dE          RMSdq      gap      omega  full diag
   1  -5198.6429869 -0.519864E+04  0.410E-04    4.04       0.0  T
   2  -5198.6429870 -0.866021E-08  0.249E-04    4.05       6.5  T
   3  -5198.6429869  0.688324E-07  0.114E-04    4.04      14.1  T
     SCC iter.                  ...       10 min, 37.913 sec
     gradient                   ...        5 min,  0.779 sec
 * total energy  : -5104.0851954 Eh     change    :  -0.9680278E-05 Eh
   gradient norm :     0.0026763 Eh/a0  converged?    E=F G=F D=F
   time step     :     0.4026275 fs     power     :   0.2759951E-09
   step length   :     0.0051253 a0     speed     :   0.3079123E-03

........................................................................
.............................. CYCLE   31 ..............................
........................................................................

 iter      E             dE          RMSdq      gap      omega  full diag
   1  -5198.6431164 -0.519864E+04  0.451E-04    4.05       0.0  T
   2  -5198.6431164 -0.105392E-07  0.277E-04    4.05       5.8  T
   3  -5198.6431163  0.936452E-07  0.132E-04    4.05      12.2  T
     SCC iter.                  ...       10 min, 37.472 sec
     gradient                   ...        4 min, 59.609 sec
 * total energy  : -5104.0852048 Eh     change    :  -0.9386569E-05 Eh
   gradient norm :     0.0024655 Eh/a0  converged?    E=F G=F D=F
   time step     :     0.4428903 fs     power     :   0.2342683E-09
   step length   :     0.0057871 a0     speed     :   0.3160652E-03

........................................................................
.............................. CYCLE   32 ..............................
........................................................................

 iter      E             dE          RMSdq      gap      omega  full diag
   1  -5198.6437676 -0.519864E+04  0.479E-04    4.05       0.0  T
   2  -5198.6437676 -0.117070E-07  0.294E-04    4.05       5.5  T
   3  -5198.6437675  0.974414E-07  0.133E-04    4.05      12.1  T
     SCC iter.                  ...       10 min, 34.927 sec
     gradient                   ...        4 min, 59.123 sec
 * total energy  : -5104.0852136 Eh     change    :  -0.8820637E-05 Eh
   gradient norm :     0.0024094 Eh/a0  converged?    E=F G=F D=F
   time step     :     0.4871793 fs     power     :   0.1927485E-09
   step length   :     0.0064672 a0     speed     :   0.3211031E-03

........................................................................
.............................. CYCLE   33 ..............................
........................................................................

 iter      E             dE          RMSdq      gap      omega  full diag
   1  -5198.6448674 -0.519864E+04  0.487E-04    4.05       0.0  T
   2  -5198.6448675 -0.125556E-07  0.294E-04    4.05       5.5  T
   3  -5198.6448674  0.648270E-07  0.109E-04    4.05      14.7  T
     SCC iter.                  ...       10 min, 35.593 sec
     gradient                   ...        4 min, 58.752 sec
 * total energy  : -5104.0852221 Eh     change    :  -0.8451235E-05 Eh
   gradient norm :     0.0024533 Eh/a0  converged?    E=F G=F D=F
   time step     :     0.5358972 fs     power     :   0.1651539E-09
   step length   :     0.0071429 a0     speed     :   0.3224102E-03

........................................................................
.............................. CYCLE   34 ..............................
........................................................................

 iter      E             dE          RMSdq      gap      omega  full diag
   1  -5198.6462341 -0.519865E+04  0.474E-04    4.05       0.0  T
   2  -5198.6462341 -0.128421E-07  0.284E-04    4.05       5.7  T
   3  -5198.6462341  0.155096E-07  0.612E-05    4.05      26.3  T
     SCC iter.                  ...       10 min, 37.436 sec
     gradient                   ...        4 min, 58.269 sec
 * total energy  : -5104.0852308 Eh     change    :  -0.8739298E-05 Eh
   gradient norm :     0.0025392 Eh/a0  converged?    E=F G=F D=F
   time step     :     0.5894869 fs     power     :   0.1586794E-09
   step length   :     0.0078401 a0     speed     :   0.3217093E-03

........................................................................
.............................. CYCLE   35 ..............................
........................................................................

 iter      E             dE          RMSdq      gap      omega  full diag
   1  -5198.6476092 -0.519865E+04  0.448E-04    4.05       0.0  T
   2  -5198.6476092 -0.102273E-07  0.272E-04    4.05       5.9  T
   3  -5198.6476092  0.158889E-07  0.587E-05    4.05      27.4  T
     SCC iter.                  ...       10 min, 37.240 sec
     gradient                   ...        4 min, 58.202 sec
 * total energy  : -5104.0852408 Eh     change    :  -0.1002174E-04 Eh
   gradient norm :     0.0025651 Eh/a0  converged?    E=F G=F D=F
   time step     :     0.6484356 fs     power     :   0.1730776E-09
   step length   :     0.0086334 a0     speed     :   0.3220537E-03

........................................................................
.............................. CYCLE   36 ..............................
........................................................................

 iter      E             dE          RMSdq      gap      omega  full diag
   1  -5198.6487032 -0.519865E+04  0.432E-04    4.05       0.0  T
   2  -5198.6487032 -0.727232E-08  0.267E-04    4.05       6.0  T
   3  -5198.6487031  0.243144E-07  0.679E-05    4.05      23.7  T
     SCC iter.                  ...       10 min, 37.089 sec
     gradient                   ...        4 min, 58.813 sec
 * total energy  : -5104.0852529 Eh     change    :  -0.1205122E-04 Eh
   gradient norm :     0.0024246 Eh/a0  converged?    E=F G=F D=F
   time step     :     0.7132792 fs     power     :   0.1930726E-09
   step length   :     0.0096275 a0     speed     :   0.3264889E-03

........................................................................
.............................. CYCLE   37 ..............................
........................................................................

 iter      E             dE          RMSdq      gap      omega  full diag
   1  -5198.6492576 -0.519865E+04  0.434E-04    4.05       0.0  T
   2  -5198.6492576 -0.106138E-07  0.278E-04    4.05       5.8  T
   3  -5198.6492575  0.700957E-07  0.107E-04    4.05      15.1  T
     SCC iter.                  ...       10 min, 36.142 sec
     gradient                   ...        4 min, 59.924 sec
 * total energy  : -5104.0852667 Eh     change    :  -0.1380996E-04 Eh
   gradient norm :     0.0022960 Eh/a0  converged?    E=F G=F D=F
   time step     :     0.7846071 fs     power     :   0.1983917E-09
   step length   :     0.0108908 a0     speed     :   0.3357536E-03

........................................................................
.............................. CYCLE   38 ..............................
........................................................................

 iter      E             dE          RMSdq      gap      omega  full diag
   1  -5198.6491265 -0.519865E+04  0.462E-04    4.05       0.0  T
   2  -5198.6491265 -0.165492E-07  0.292E-04    4.05       5.5  T
   3  -5198.6491264  0.632408E-07  0.106E-04    4.05      15.2  T
     SCC iter.                  ...       10 min, 36.165 sec
     gradient                   ...        5 min,  0.303 sec
 * total energy  : -5104.0852824 Eh     change    :  -0.1568124E-04 Eh
   gradient norm :     0.0024196 Eh/a0  converged?    E=F G=F D=F
   time step     :     0.8630678 fs     power     :   0.2066272E-09
   step length   :     0.0123939 a0     speed     :   0.3473597E-03

........................................................................
.............................. CYCLE   39 ..............................
........................................................................

 iter      E             dE          RMSdq      gap      omega  full diag
   1  -5198.6484816 -0.519865E+04  0.532E-04    4.05       0.0  T
   2  -5198.6484817 -0.164509E-07  0.322E-04    4.05       5.0  T
   3  -5198.6484816  0.261434E-07  0.769E-05    4.05      20.9  T
     SCC iter.                  ...       10 min, 38.584 sec
     gradient                   ...        5 min,  0.395 sec
 * total energy  : -5104.0853017 Eh     change    :  -0.1938788E-04 Eh
   gradient norm :     0.0024004 Eh/a0  converged?    E=F G=F D=F
   time step     :     0.9493746 fs     power     :   0.2444406E-09
   step length   :     0.0141884 a0     speed     :   0.3615031E-03

........................................................................
.............................. CYCLE   40 ..............................
........................................................................

 iter      E             dE          RMSdq      gap      omega  full diag
   1  -5198.6479218 -0.519865E+04  0.619E-04    4.05       0.0  T
   2  -5198.6479218 -0.169375E-07  0.376E-04    4.05       4.3  T
   3  -5198.6479218  0.443724E-07  0.951E-05    4.05      16.9  T
     SCC iter.                  ...       10 min, 36.814 sec
     gradient                   ...        4 min, 59.835 sec
 * total energy  : -5104.0853256 Eh     change    :  -0.2382461E-04 Eh
   gradient norm :     0.0021120 Eh/a0  converged?    E=F G=F D=F
   time step     :     1.0443120 fs     power     :   0.2682673E-09
   step length   :     0.0165345 a0     speed     :   0.3829795E-03

........................................................................
.............................. CYCLE   41 ..............................
........................................................................

 iter      E             dE          RMSdq      gap      omega  full diag
   1  -5198.6484014 -0.519865E+04  0.667E-04    4.05       0.0  T
   2  -5198.6484014 -0.204327E-07  0.411E-04    4.05       3.9  T
   3  -5198.6484014  0.745449E-07  0.119E-04    4.05      13.5  T
     SCC iter.                  ...       10 min, 35.756 sec
     gradient                   ...        4 min, 58.050 sec
 * total energy  : -5104.0853517 Eh     change    :  -0.2610145E-04 Eh
   gradient norm :     0.0021504 Eh/a0  converged?    E=F G=F D=F
   time step     :     1.1487432 fs     power     :   0.2566404E-09
   step length   :     0.0194362 a0     speed     :   0.4092632E-03

........................................................................
.............................. CYCLE   42 ..............................
........................................................................

 iter      E             dE          RMSdq      gap      omega  full diag
   1  -5198.6502537 -0.519865E+04  0.718E-04    4.05       0.0  T
   2  -5198.6502538 -0.161453E-07  0.429E-04    4.05       3.8  T
   3  -5198.6502537  0.195332E-07  0.715E-05    4.05      22.5  T
     SCC iter.                  ...       10 min, 35.040 sec
     gradient                   ...        4 min, 59.644 sec
 * total energy  : -5104.0853818 Eh     change    :  -0.3013995E-04 Eh
   gradient norm :     0.0023188 Eh/a0  converged?    E=F G=F D=F
   time step     :     1.2500000 fs     power     :   0.2915140E-09
   step length   :     0.0223769 a0     speed     :   0.4330174E-03
 * RMSD in coord.:     0.0024798 a0     energy gain  -0.2526903E-03 Eh

........................................................................
.............................. CYCLE   43 ..............................
........................................................................

 iter      E             dE          RMSdq      gap      omega  full diag
   1  -5198.6506071 -0.519865E+04  0.140E-04    4.05       0.0  T
   2  -5198.6506071 -0.644832E-09  0.819E-05    4.05      19.6  T
   3  -5198.6506071  0.344153E-08  0.283E-05    4.05      56.7  T
     SCC iter.                  ...       10 min, 34.675 sec
     gradient                   ...        4 min, 59.784 sec
 * total energy  : -5104.0853880 Eh     change    :  -0.6229490E-05 Eh
   gradient norm :     0.0022656 Eh/a0  converged?    E=F G=F D=F
   time step     :     0.2500000 fs     power     :   0.3262249E-09
   step length   :     0.0043648 a0     speed     :   0.4223156E-03

........................................................................
.............................. CYCLE   44 ..............................
........................................................................

 iter      E             dE          RMSdq      gap      omega  full diag
   1  -5198.6509220 -0.519865E+04  0.146E-04    4.05       0.0  T
   2  -5198.6509220 -0.918590E-09  0.871E-05    4.05      18.5  T
   3  -5198.6509220  0.245655E-08  0.241E-05    4.05      66.6  T
     SCC iter.                  ...       10 min, 37.541 sec
     gradient                   ...        4 min, 59.034 sec
 * total energy  : -5104.0853947 Eh     change    :  -0.6679135E-05 Eh
   gradient norm :     0.0020758 Eh/a0  converged?    E=F G=F D=F
   time step     :     0.2500000 fs     power     :   0.3481808E-09
   step length   :     0.0043053 a0     speed     :   0.4165565E-03

........................................................................
.............................. CYCLE   45 ..............................
........................................................................

 iter      E             dE          RMSdq      gap      omega  full diag
   1  -5198.6511855 -0.519865E+04  0.161E-04    4.05       0.0  T
   2  -5198.6511855 -0.125510E-08  0.977E-05    4.05      16.5  T
   3  -5198.6511855  0.460568E-08  0.313E-05    4.05      51.4  T
     SCC iter.                  ...       10 min, 38.365 sec
     gradient                   ...        4 min, 59.275 sec
 * total energy  : -5104.0854016 Eh     change    :  -0.6843039E-05 Eh
   gradient norm :     0.0018186 Eh/a0  converged?    E=F G=F D=F
   time step     :     0.2500000 fs     power     :   0.3498959E-09
   step length   :     0.0042964 a0     speed     :   0.4157018E-03

........................................................................
.............................. CYCLE   46 ..............................
........................................................................

 iter      E             dE          RMSdq      gap      omega  full diag
   1  -5198.6513891 -0.519865E+04  0.176E-04    4.05       0.0  T
   2  -5198.6513891 -0.175623E-08  0.108E-04    4.05      14.9  T
   3  -5198.6513891  0.594264E-08  0.347E-05    4.05      46.4  T
     SCC iter.                  ...       10 min, 36.492 sec
     gradient                   ...        4 min, 59.209 sec
 * total energy  : -5104.0854081 Eh     change    :  -0.6543784E-05 Eh
   gradient norm :     0.0015947 Eh/a0  converged?    E=F G=F D=F
   time step     :     0.2500000 fs     power     :   0.3331023E-09
   step length   :     0.0043287 a0     speed     :   0.4188296E-03

........................................................................
.............................. CYCLE   47 ..............................
........................................................................

 iter      E             dE          RMSdq      gap      omega  full diag
   1  -5198.6515324 -0.519865E+04  0.183E-04    4.05       0.0  T
   2  -5198.6515324 -0.173532E-08  0.112E-04    4.05      14.3  T
   3  -5198.6515324  0.632190E-08  0.347E-05    4.05      46.3  T
     SCC iter.                  ...       10 min, 35.998 sec
     gradient                   ...        5 min,  0.964 sec
 * total energy  : -5104.0854143 Eh     change    :  -0.6161446E-05 Eh
   gradient norm :     0.0015031 Eh/a0  converged?    E=F G=F D=F
   time step     :     0.2500000 fs     power     :   0.3082777E-09
   step length   :     0.0043799 a0     speed     :   0.4237740E-03

........................................................................
.............................. CYCLE   48 ..............................
........................................................................

 iter      E             dE          RMSdq      gap      omega  full diag
   1  -5198.6516327 -0.519865E+04  0.196E-04    4.05       0.0  T
   2  -5198.6516327 -0.180262E-08  0.120E-04    4.05      13.5  T
   3  -5198.6516327  0.634827E-08  0.342E-05    4.05      47.0  T
     SCC iter.                  ...       10 min, 38.017 sec
     gradient                   ...        4 min, 59.980 sec
 * total energy  : -5104.0854205 Eh     change    :  -0.6261139E-05 Eh
   gradient norm :     0.0015634 Eh/a0  converged?    E=F G=F D=F
   time step     :     0.2750000 fs     power     :   0.2871824E-09
   step length   :     0.0048630 a0     speed     :   0.4277476E-03

........................................................................
.............................. CYCLE   49 ..............................
........................................................................

 iter      E             dE          RMSdq      gap      omega  full diag
   1  -5198.6516989 -0.519865E+04  0.196E-04    4.05       0.0  T
   2  -5198.6516989 -0.146429E-08  0.118E-04    4.05      13.6  T
   3  -5198.6516989  0.410091E-08  0.283E-05    4.05      56.9  T
     SCC iter.                  ...       10 min, 34.875 sec
     gradient                   ...        5 min,  2.611 sec
 * total energy  : -5104.0854273 Eh     change    :  -0.6718345E-05 Eh
   gradient norm :     0.0016994 Eh/a0  converged?    E=F G=F D=F
   time step     :     0.3025000 fs     power     :   0.2813952E-09
   step length   :     0.0053552 a0     speed     :   0.4282213E-03

........................................................................
.............................. CYCLE   50 ..............................
........................................................................

 iter      E             dE          RMSdq      gap      omega  full diag
   1  -5198.6517411 -0.519865E+04  0.190E-04    4.05       0.0  T
   2  -5198.6517411 -0.971340E-09  0.113E-04    4.05      14.3  T
   3  -5198.6517411  0.154887E-08  0.195E-05    4.05      82.6  T
     SCC iter.                  ...       10 min, 37.024 sec
     gradient                   ...        5 min,  0.746 sec
 * total energy  : -5104.0854348 Eh     change    :  -0.7506783E-05 Eh
   gradient norm :     0.0017943 Eh/a0  converged?    E=F G=F D=F
   time step     :     0.3327500 fs     power     :   0.2920106E-09
   step length   :     0.0058691 a0     speed     :   0.4266488E-03

........................................................................
.............................. CYCLE   51 ..............................
........................................................................

 iter      E             dE          RMSdq      gap      omega  full diag
   1  -5198.6517603 -0.519865E+04  0.187E-04    4.05       0.0  T
   2  -5198.6517603 -0.599357E-09  0.111E-04    4.05      14.6  T
   3  -5198.6517603  0.740329E-09  0.156E-05    4.05     102.9  T
     SCC iter.                  ...       10 min, 35.552 sec
     gradient                   ...        4 min, 58.906 sec
 * total energy  : -5104.0854434 Eh     change    :  -0.8653004E-05 Eh
   gradient norm :     0.0017731 Eh/a0  converged?    E=F G=F D=F
   time step     :     0.3660250 fs     power     :   0.3099609E-09
   step length   :     0.0064510 a0     speed     :   0.4263167E-03

........................................................................
.............................. CYCLE   52 ..............................
........................................................................

 iter      E             dE          RMSdq      gap      omega  full diag
   1  -5198.6517409 -0.519865E+04  0.200E-04    4.05       0.0  T
   2  -5198.6517409 -0.988621E-09  0.120E-04    4.05      13.5  T
   3  -5198.6517409  0.252385E-08  0.233E-05    4.05      69.0  T
     SCC iter.                  ...       10 min, 37.117 sec
     gradient                   ...        4 min, 58.972 sec
 * total energy  : -5104.0854534 Eh     change    :  -0.9968463E-05 Eh
   gradient norm :     0.0016342 Eh/a0  converged?    E=F G=F D=F
   time step     :     0.4026275 fs     power     :   0.3219893E-09
   step length   :     0.0071534 a0     speed     :   0.4297570E-03

........................................................................
.............................. CYCLE   53 ..............................
........................................................................

 iter      E             dE          RMSdq      gap      omega  full diag
   1  -5198.6516427 -0.519865E+04  0.229E-04    4.05       0.0  T
   2  -5198.6516427 -0.198088E-08  0.139E-04    4.05      11.5  T
   3  -5198.6516426  0.750697E-08  0.382E-05    4.05      42.1  T
     SCC iter.                  ...       10 min, 37.418 sec
     gradient                   ...        5 min,  0.412 sec
 * total energy  : -5104.0854644 Eh     change    :  -0.1103781E-04 Eh
   gradient norm :     0.0014854 Eh/a0  converged?    E=F G=F D=F
   time step     :     0.4428903 fs     power     :   0.3197230E-09
   step length   :     0.0080177 a0     speed     :   0.4378941E-03

........................................................................
.............................. CYCLE   54 ..............................
........................................................................

 iter      E             dE          RMSdq      gap      omega  full diag
   1  -5198.6514065 -0.519865E+04  0.259E-04    4.05       0.0  T
   2  -5198.6514065 -0.280488E-08  0.159E-04    4.05      10.1  T
   3  -5198.6514065  0.114687E-07  0.461E-05    4.05      34.9  T
     SCC iter.                  ...       10 min, 36.226 sec
     gradient                   ...        5 min,  2.065 sec
 * total energy  : -5104.0854763 Eh     change    :  -0.1184055E-04 Eh
   gradient norm :     0.0014806 Eh/a0  converged?    E=F G=F D=F
   time step     :     0.4871793 fs     power     :   0.3099716E-09
   step length   :     0.0090440 a0     speed     :   0.4490436E-03

........................................................................
.............................. CYCLE   55 ..............................
........................................................................

 iter      E             dE          RMSdq      gap      omega  full diag
   1  -5198.6510018 -0.519865E+04  0.277E-04    4.05       0.0  T
   2  -5198.6510018 -0.244563E-08  0.168E-04    4.05       9.6  T
   3  -5198.6510017  0.844739E-08  0.405E-05    4.05      39.7  T
     SCC iter.                  ...       10 min, 38.149 sec
     gradient                   ...        5 min,  0.923 sec
 * total energy  : -5104.0854892 Eh     change    :  -0.1290353E-04 Eh
   gradient norm :     0.0015747 Eh/a0  converged?    E=F G=F D=F
   time step     :     0.5358972 fs     power     :   0.3097615E-09
   step length   :     0.0101721 a0     speed     :   0.4591387E-03

........................................................................
.............................. CYCLE   56 ..............................
........................................................................

 iter      E             dE          RMSdq      gap      omega  full diag
   1  -5198.6504873 -0.519865E+04  0.291E-04    4.05       0.0  T
   2  -5198.6504873 -0.200362E-08  0.172E-04    4.05       9.3  T
   3  -5198.6504873  0.310320E-08  0.283E-05    4.05      56.8  T
     SCC iter.                  ...       10 min, 37.702 sec
     gradient                   ...        4 min, 59.145 sec
 * total energy  : -5104.0855038 Eh     change    :  -0.1463674E-04 Eh
   gradient norm :     0.0016174 Eh/a0  converged?    E=F G=F D=F
   time step     :     0.5894869 fs     power     :   0.3232798E-09
   step length   :     0.0114048 a0     speed     :   0.4679804E-03

........................................................................
.............................. CYCLE   57 ..............................
........................................................................

 iter      E             dE          RMSdq      gap      omega  full diag
   1  -5198.6500374 -0.519865E+04  0.316E-04    4.05       0.0  T
   2  -5198.6500374 -0.213277E-08  0.187E-04    4.05       8.6  T
   3  -5198.6500374  0.799264E-08  0.401E-05    4.05      40.1  T
     SCC iter.                  ...       10 min, 35.904 sec
     gradient                   ...        4 min, 58.469 sec
 * total energy  : -5104.0855207 Eh     change    :  -0.1692635E-04 Eh
   gradient norm :     0.0015548 Eh/a0  converged?    E=F G=F D=F
   time step     :     0.6484356 fs     power     :   0.3402557E-09
   step length   :     0.0128368 a0     speed     :   0.4788562E-03

........................................................................
.............................. CYCLE   58 ..............................
........................................................................

 iter      E             dE          RMSdq      gap      omega  full diag
   1  -5198.6499247 -0.519865E+04  0.363E-04    4.05       0.0  T
   2  -5198.6499247 -0.347973E-08  0.219E-04    4.05       7.3  T
   3  -5198.6499246  0.227219E-07  0.633E-05    4.05      25.4  T
     SCC iter.                  ...       10 min, 36.763 sec
     gradient                   ...        5 min,  0.209 sec
 * total energy  : -5104.0855400 Eh     change    :  -0.1930298E-04 Eh
   gradient norm :     0.0014423 Eh/a0  converged?    E=F G=F D=F
   time step     :     0.7132792 fs     power     :   0.3478348E-09
   step length   :     0.0145680 a0     speed     :   0.4940330E-03

........................................................................
.............................. CYCLE   59 ..............................
........................................................................

 iter      E             dE          RMSdq      gap      omega  full diag
   1  -5198.6503892 -0.519865E+04  0.410E-04    4.05       0.0  T
   2  -5198.6503892 -0.427281E-08  0.247E-04    4.05       6.5  T
   3  -5198.6503892  0.241407E-07  0.664E-05    4.05      24.2  T
     SCC iter.                  ...       10 min, 35.238 sec
     gradient                   ...        4 min, 58.145 sec
 * total energy  : -5104.0855614 Eh     change    :  -0.2137747E-04 Eh
   gradient norm :     0.0014933 Eh/a0  converged?    E=F G=F D=F
   time step     :     0.7846071 fs     power     :   0.3494446E-09
   step length   :     0.0166397 a0     speed     :   0.5129904E-03

........................................................................
.............................. CYCLE   60 ..............................
........................................................................

 iter      E             dE          RMSdq      gap      omega  full diag
   1  -5198.6513210 -0.519865E+04  0.438E-04    4.05       0.0  T
   2  -5198.6513210 -0.317141E-08  0.259E-04    4.05       6.2  T
   3  -5198.6513210  0.838827E-08  0.435E-05    4.05      37.0  T
     SCC iter.                  ...       10 min, 38.411 sec
     gradient                   ...        4 min, 57.787 sec
 * total energy  : -5104.0855856 Eh     change    :  -0.2423652E-04 Eh
   gradient norm :     0.0015319 Eh/a0  converged?    E=F G=F D=F
   time step     :     0.8630678 fs     power     :   0.3662109E-09
   step length   :     0.0189555 a0     speed     :   0.5312577E-03

........................................................................
.............................. CYCLE   61 ..............................
........................................................................

 iter      E             dE          RMSdq      gap      omega  full diag
   1  -5198.6522448 -0.519865E+04  0.494E-04    4.05       0.0  T
   2  -5198.6522448 -0.530326E-08  0.293E-04    4.05       5.5  T
   3  -5198.6522448  0.283462E-07  0.725E-05    4.05      22.2  T
     SCC iter.                  ...       10 min, 36.740 sec
     gradient                   ...        4 min, 59.209 sec
 * total energy  : -5104.0856137 Eh     change    :  -0.2808548E-04 Eh
   gradient norm :     0.0014299 Eh/a0  converged?    E=F G=F D=F
   time step     :     0.9493746 fs     power     :   0.3828903E-09
   step length   :     0.0216579 a0     speed     :   0.5518146E-03

........................................................................
.............................. CYCLE   62 ..............................
........................................................................

 iter      E             dE          RMSdq      gap      omega  full diag
   1  -5198.6526039 -0.519865E+04  0.563E-04    4.05       0.0  T
   2  -5198.6526039 -0.692035E-08  0.335E-04    4.05       4.8  T
   3  -5198.6526039  0.280161E-07  0.728E-05    4.05      22.1  T
     SCC iter.                  ...       10 min, 35.885 sec
     gradient                   ...        4 min, 59.042 sec
 * total energy  : -5104.0856453 Eh     change    :  -0.3155552E-04 Eh
   gradient norm :     0.0014649 Eh/a0  converged?    E=F G=F D=F
   time step     :     1.0443120 fs     power     :   0.3893291E-09
   step length   :     0.0249326 a0     speed     :   0.5775005E-03

........................................................................
.............................. CYCLE   63 ..............................
........................................................................

 iter      E             dE          RMSdq      gap      omega  full diag
   1  -5198.6523133 -0.519865E+04  0.611E-04    4.05       0.0  T
   2  -5198.6523133 -0.704858E-08  0.361E-04    4.05       4.5  T
   3  -5198.6523133  0.292503E-07  0.777E-05    4.05      20.7  T
     SCC iter.                  ...       10 min, 38.423 sec
     gradient                   ...        4 min, 58.929 sec
 * total energy  : -5104.0856816 Eh     change    :  -0.3628107E-04 Eh
   gradient norm :     0.0014781 Eh/a0  converged?    E=F G=F D=F
   time step     :     1.1487432 fs     power     :   0.4125038E-09
   step length   :     0.0286565 a0     speed     :   0.6034131E-03

........................................................................
.............................. CYCLE   64 ..............................
........................................................................

 iter      E             dE          RMSdq      gap      omega  full diag
   1  -5198.6518628 -0.519865E+04  0.699E-04    4.05       0.0  T
   2  -5198.6518628 -0.108712E-07  0.418E-04    4.05       3.8  T
   3  -5198.6518628  0.726823E-07  0.113E-04    4.05      14.2  T
     SCC iter.                  ...       10 min, 35.619 sec
     gradient                   ...        4 min, 58.904 sec
 * total energy  : -5104.0857230 Eh     change    :  -0.4140393E-04 Eh
   gradient norm :     0.0013846 Eh/a0  converged?    E=F G=F D=F
   time step     :     1.2500000 fs     power     :   0.4283907E-09
   step length   :     0.0326943 a0     speed     :   0.6326701E-03

........................................................................
.............................. CYCLE   65 ..............................
........................................................................

 iter      E             dE          RMSdq      gap      omega  full diag
   1  -5198.6520864 -0.519865E+04  0.724E-04    4.05       0.0  T
   2  -5198.6520864 -0.114678E-07  0.430E-04    4.05       3.7  T
   3  -5198.6520864  0.421951E-07  0.962E-05    4.05      16.7  T
     SCC iter.                  ...       10 min, 34.400 sec
     gradient                   ...        5 min,  1.863 sec
 * total energy  : -5104.0857656 Eh     change    :  -0.4258278E-04 Eh
   gradient norm :     0.0014973 Eh/a0  converged?    E=F G=F D=F
   time step     :     1.2500000 fs     power     :   0.4410852E-09
   step length   :     0.0342720 a0     speed     :   0.6631996E-03

........................................................................
.............................. CYCLE   66 ..............................
........................................................................

 iter      E             dE          RMSdq      gap      omega  full diag
   1  -5198.6527723 -0.519865E+04  0.766E-04    4.05       0.0  T
   2  -5198.6527723 -0.112432E-07  0.455E-04    4.05       3.5  T
   3  -5198.6527722  0.850532E-07  0.124E-04    4.05      13.0  T
     SCC iter.                  ...       10 min, 37.017 sec
     gradient                   ...        4 min, 59.633 sec
 * total energy  : -5104.0858102 Eh     change    :  -0.4461319E-04 Eh
   gradient norm :     0.0014520 Eh/a0  converged?    E=F G=F D=F
   time step     :     1.2500000 fs     power     :   0.4599413E-09
   step length   :     0.0356274 a0     speed     :   0.6894289E-03

........................................................................
.............................. CYCLE   67 ..............................
........................................................................

 iter      E             dE          RMSdq      gap      omega  full diag
   1  -5198.6530479 -0.519865E+04  0.781E-04    4.05       0.0  T
   2  -5198.6530480 -0.181572E-07  0.461E-04    4.05       3.5  T
   3  -5198.6530479  0.534164E-07  0.118E-04    4.05      13.6  T
     SCC iter.                  ...       10 min, 37.689 sec
     gradient                   ...        5 min,  0.719 sec
 * total energy  : -5104.0858553 Eh     change    :  -0.4515283E-04 Eh
   gradient norm :     0.0016652 Eh/a0  converged?    E=F G=F D=F
   time step     :     1.2500000 fs     power     :   0.4578781E-09
   step length   :     0.0370345 a0     speed     :   0.7166582E-03
 * RMSD in coord.:     0.0058419 a0     energy gain  -0.4735014E-03 Eh

........................................................................
.............................. CYCLE   68 ..............................
........................................................................

 iter      E             dE          RMSdq      gap      omega  full diag
   1  -5198.6530974 -0.519865E+04  0.152E-04    4.05       0.0  T
   2  -5198.6530974 -0.492946E-09  0.893E-05    4.05      18.0  T
   3  -5198.6530974  0.255204E-08  0.244E-05    4.05      66.0  T
     SCC iter.                  ...       10 min, 34.841 sec
     gradient                   ...        4 min, 57.140 sec
 * total energy  : -5104.0858645 Eh     change    :  -0.9216256E-05 Eh
   gradient norm :     0.0015352 Eh/a0  converged?    E=F G=F D=F
   time step     :     0.2500000 fs     power     :   0.4811702E-09
   step length   :     0.0072772 a0     speed     :   0.7041091E-03

........................................................................
.............................. CYCLE   69 ..............................
........................................................................

 iter      E             dE          RMSdq      gap      omega  full diag
   1  -5198.6531492 -0.519865E+04  0.165E-04    4.05       0.0  T
   2  -5198.6531492 -0.258024E-08  0.975E-05    4.05      16.5  T
   3  -5198.6531492  0.276304E-08  0.360E-05    4.05      44.6  T
     SCC iter.                  ...       10 min, 36.634 sec
     gradient                   ...        4 min, 58.778 sec
 * total energy  : -5104.0858737 Eh     change    :  -0.9197885E-05 Eh
   gradient norm :     0.0013364 Eh/a0  converged?    E=F G=F D=F
   time step     :     0.2500000 fs     power     :   0.4765197E-09
   step length   :     0.0072288 a0     speed     :   0.6994236E-03

........................................................................
.............................. CYCLE   70 ..............................
........................................................................

 iter      E             dE          RMSdq      gap      omega  full diag
   1  -5198.6531992 -0.519865E+04  0.167E-04    4.05       0.0  T
   2  -5198.6531992 -0.204182E-08  0.996E-05    4.05      16.1  T
   3  -5198.6531992  0.301588E-08  0.339E-05    4.05      47.5  T
     SCC iter.                  ...       10 min, 37.585 sec
     gradient                   ...        5 min,  0.564 sec
 * total energy  : -5104.0858827 Eh     change    :  -0.8947535E-05 Eh
   gradient norm :     0.0014013 Eh/a0  converged?    E=F G=F D=F
   time step     :     0.2500000 fs     power     :   0.4615851E-09
   step length   :     0.0072565 a0     speed     :   0.7021061E-03

........................................................................
[...]
  3608   6 C     3615   6 C                                       1.5334888
  3615   6 C     3616   6 C                                       1.5364741
  3617   6 C     3618   6 C                                       1.3906814
  3618   6 C     3619   6 C                                       1.3827064
  3619   6 C     3620   6 C                                       1.3845204
  3620   6 C     3621   6 C                                       1.3836682
  3617   6 C     3622   6 C                                       1.3881194
  3621   6 C     3622   6 C                                       1.3840288
  3623   6 C     3624   6 C                                       1.5374471
  3625   6 C     3626   6 C                                       1.3898627
  3626   6 C     3627   6 C                                       1.3830625
  3627   6 C     3628   6 C                                       1.3832867
  3628   6 C     3629   6 C                                       1.3838009
  3625   6 C     3630   6 C                                       1.3894700
  3629   6 C     3630   6 C                                       1.3840199
  3624   6 C     3631   6 C                                       1.5340969
  3631   6 C     3632   6 C                                       1.5369696
  3633   6 C     3634   6 C                                       1.3891541
  3634   6 C     3635   6 C                                       1.3836973
  3635   6 C     3636   6 C                                       1.3842444
  3636   6 C     3637   6 C                                       1.3844277
  3633   6 C     3638   6 C                                       1.3905383
  3637   6 C     3638   6 C                                       1.3828046
  3632   6 C     3639   6 C                                       1.5348835
  3639   6 C     3640   6 C                                       1.5375817
  3641   6 C     3642   6 C                                       1.3906382
  3642   6 C     3643   6 C                                       1.3828700
  3643   6 C     3644   6 C                                       1.3839103
  3644   6 C     3645   6 C                                       1.3832029
  3641   6 C     3646   6 C                                       1.3890670
  3645   6 C     3646   6 C                                       1.3841366
  3640   6 C     3647   6 C                                       1.5355660
  3647   6 C     3648   6 C                                       1.5328125
  3649   6 C     3650   6 C                                       1.3903876
  3650   6 C     3651   6 C                                       1.3830310
  3651   6 C     3652   6 C                                       1.3843802
  3652   6 C     3653   6 C                                       1.3837641
  3649   6 C     3654   6 C                                       1.3887411
  3653   6 C     3654   6 C                                       1.3836654
  3648   6 C     3655   6 C                                       1.5391443
  3655   6 C     3656   6 C                                       1.5405813
  3657   6 C     3658   6 C                                       1.3900832
  3658   6 C     3659   6 C                                       1.3838218
  3659   6 C     3660   6 C                                       1.3847915
  3660   6 C     3661   6 C                                       1.3839547
  3657   6 C     3662   6 C                                       1.3900770
  3661   6 C     3662   6 C                                       1.3838820
  3656   6 C     3663   6 C                                       1.5354046
  3663   6 C     3664   6 C                                       1.5315728
  3665   6 C     3666   6 C                                       1.3887092
  3666   6 C     3667   6 C                                       1.3822041
  3667   6 C     3668   6 C                                       1.3831754
  3668   6 C     3669   6 C                                       1.3848803
  3665   6 C     3670   6 C                                       1.3896526
  3669   6 C     3670   6 C                                       1.3834087
  3671   6 C     3672   6 C                                       1.5355885
  3673   6 C     3674   6 C                                       1.3900270
  3674   6 C     3675   6 C                                       1.3829278
  3675   6 C     3676   6 C                                       1.3845245
  3676   6 C     3677   6 C                                       1.3840337
  3673   6 C     3678   6 C                                       1.3891764
  3677   6 C     3678   6 C                                       1.3831618
  3672   6 C     3679   6 C                                       1.5315345
  3679   6 C     3680   6 C                                       1.5375088
  3681   6 C     3682   6 C                                       1.3908819
  3682   6 C     3683   6 C                                       1.3835181
  3683   6 C     3684   6 C                                       1.3847116
  3684   6 C     3685   6 C                                       1.3837857
  3681   6 C     3686   6 C                                       1.3887469
  3685   6 C     3686   6 C                                       1.3849565
  3680   6 C     3687   6 C                                       1.5355616
  3549   6 C     3689   1 H                                       1.0956274
  3551   6 C     3690   1 H                                       1.0924153
  3551   6 C     3691   1 H                                       1.0916089
  3552   6 C     3692   1 H                                       1.0950808
  3559   6 C     3693   1 H                                       1.0905471
  3559   6 C     3694   1 H                                       1.0916675
  3560   6 C     3695   1 H                                       1.0955695
  3567   6 C     3696   1 H                                       1.0921577
  3567   6 C     3697   1 H                                       1.0929014
  3568   6 C     3698   1 H                                       1.0943056
  3575   6 C     3699   1 H                                       1.0910220
  3576   6 C     3700   1 H                                       1.0950890
  3583   6 C     3701   1 H                                       1.0928741
  3583   6 C     3702   1 H                                       1.0920541
  3584   6 C     3703   1 H                                       1.0946371
  3591   6 C     3704   1 H                                       1.0902991
  3591   6 C     3705   1 H                                       1.0915599
  3592   6 C     3706   1 H                                       1.0950905
  3599   6 C     3707   1 H                                       1.0906087
  3599   6 C     3708   1 H                                       1.0922475
  3600   6 C     3709   1 H                                       1.0943187
  3608   6 C     3710   1 H                                       1.0956216
  3615   6 C     3711   1 H                                       1.0906960
  3615   6 C     3712   1 H                                       1.0912029
  3616   6 C     3713   1 H                                       1.0951714
  3623   6 C     3714   1 H                                       1.0922003
  3623   6 C     3715   1 H                                       1.0907436
  3624   6 C     3716   1 H                                       1.0957078
  3631   6 C     3717   1 H                                       1.0925337
  3631   6 C     3718   1 H                                       1.0912666
  3632   6 C     3719   1 H                                       1.0962700
  3639   6 C     3720   1 H                                       1.0925216
  3639   6 C     3721   1 H                                       1.0926621
  3640   6 C     3722   1 H                                       1.0956310
  3647   6 C     3723   1 H                                       1.0915822
  3647   6 C     3724   1 H                                       1.0918565
  3648   6 C     3725   1 H                                       1.0948023
  3655   6 C     3726   1 H                                       1.0927091
  3655   6 C     3727   1 H                                       1.0927751
  3656   6 C     3728   1 H                                       1.0931752
  3663   6 C     3729   1 H                                       1.0912811
  3663   6 C     3730   1 H                                       1.0920216
  3664   6 C     3731   1 H                                       1.0957185
  3671   6 C     3732   1 H                                       1.0933594
  3671   6 C     3733   1 H                                       1.0934817
  3672   6 C     3734   1 H                                       1.0936556
  3679   6 C     3735   1 H                                       1.0914580
  3679   6 C     3736   1 H                                       1.0913918
  3543   6 C     3737   1 H                                       1.0809010
  3548   6 C     3738   1 H                                       1.0809227
  3547   6 C     3739   1 H                                       1.0798311
  3546   6 C     3740   1 H                                       1.0808238
  3545   6 C     3741   1 H                                       1.0798273
  3554   6 C     3742   1 H                                       1.0793791
  3555   6 C     3743   1 H                                       1.0798944
  3556   6 C     3744   1 H                                       1.0805732
  3557   6 C     3745   1 H                                       1.0809449
  3558   6 C     3746   1 H                                       1.0809801
  3562   6 C     3747   1 H                                       1.0795803
  3563   6 C     3748   1 H                                       1.0813129
  3564   6 C     3749   1 H                                       1.0805239
  3565   6 C     3750   1 H                                       1.0807455
  3566   6 C     3751   1 H                                       1.0805187
  3570   6 C     3752   1 H                                       1.0812634
  3571   6 C     3753   1 H                                       1.0809943
  3572   6 C     3754   1 H                                       1.0808015
  3573   6 C     3755   1 H                                       1.0791950
  3574   6 C     3756   1 H                                       1.0804554
  3575   6 C     3757   1 H                                       1.0904851
  3578   6 C     3758   1 H                                       1.0812139
  3579   6 C     3759   1 H                                       1.0802944
  3580   6 C     3760   1 H                                       1.0810309
  3581   6 C     3761   1 H                                       1.0801954
  3582   6 C     3762   1 H                                       1.0799011
  3586   6 C     3763   1 H                                       1.0796610
  3587   6 C     3764   1 H                                       1.0798899
  3588   6 C     3765   1 H                                       1.0799503
  3589   6 C     3766   1 H                                       1.0805855
  3590   6 C     3767   1 H                                       1.0811664
  3594   6 C     3768   1 H                                       1.0809671
  3595   6 C     3769   1 H                                       1.0808066
  3596   6 C     3770   1 H                                       1.0804774
  3597   6 C     3771   1 H                                       1.0806129
  3598   6 C     3772   1 H                                       1.0795397
  3602   6 C     3773   1 H                                       1.0798194
  3603   6 C     3774   1 H                                       1.0809699
  3604   6 C     3775   1 H                                       1.0801361
  3605   6 C     3776   1 H                                       1.0798422
  3606   6 C     3777   1 H                                       1.0805871
  3607   6 C     3778   1 H                                       1.0922187
  3607   6 C     3779   1 H                                       1.0923732
  3610   6 C     3780   1 H                                       1.0794736
  3611   6 C     3781   1 H                                       1.0820551
  3612   6 C     3782   1 H                                       1.0799759
  3613   6 C     3783   1 H                                       1.0805686
  3614   6 C     3784   1 H                                       1.0812802
  3618   6 C     3785   1 H                                       1.0807495
  3619   6 C     3786   1 H                                       1.0809756
  3620   6 C     3787   1 H                                       1.0804247
  3621   6 C     3788   1 H                                       1.0804695
  3622   6 C     3789   1 H                                       1.0814021
  3626   6 C     3790   1 H                                       1.0808713
  3627   6 C     3791   1 H                                       1.0801562
  3628   6 C     3792   1 H                                       1.0799710
  3629   6 C     3793   1 H                                       1.0801729
  3630   6 C     3794   1 H                                       1.0813747
  3634   6 C     3795   1 H                                       1.0813419
  3635   6 C     3796   1 H                                       1.0806914
  3636   6 C     3797   1 H                                       1.0801446
  3637   6 C     3798   1 H                                       1.0806294
  3638   6 C     3799   1 H                                       1.0804803
  3642   6 C     3800   1 H                                       1.0812891
  3643   6 C     3801   1 H                                       1.0802825
  3644   6 C     3802   1 H                                       1.0794487
  3645   6 C     3803   1 H                                       1.0802211
  3646   6 C     3804   1 H                                       1.0811134
  3650   6 C     3805   1 H                                       1.0804152
  3651   6 C     3806   1 H                                       1.0808455
  3652   6 C     3807   1 H                                       1.0800983
  3653   6 C     3808   1 H                                       1.0804599
  3654   6 C     3809   1 H                                       1.0811678
  3658   6 C     3810   1 H                                       1.0797318
  3659   6 C     3811   1 H                                       1.0809451
  3660   6 C     3812   1 H                                       1.0792825
  3661   6 C     3813   1 H                                       1.0803418
  3662   6 C     3814   1 H                                       1.0810341
  3666   6 C     3815   1 H                                       1.0809739
  3667   6 C     3816   1 H                                       1.0797802
  3668   6 C     3817   1 H                                       1.0797821
  3669   6 C     3818   1 H                                       1.0814572
  3670   6 C     3819   1 H                                       1.0803370
  3674   6 C     3820   1 H                                       1.0806722
  3675   6 C     3821   1 H                                       1.0808426
  3676   6 C     3822   1 H                                       1.0803379
  3677   6 C     3823   1 H                                       1.0799650
  3678   6 C     3824   1 H                                       1.0806479
  3686   6 C     3825   1 H                                       1.0814752
  3685   6 C     3826   1 H                                       1.0802745
  3684   6 C     3827   1 H                                       1.0801310
  3683   6 C     3828   1 H                                       1.0804250
  3682   6 C     3829   1 H                                       1.0803764
  3550   6 C     3830   1 H                                       1.0884088
  3550   6 C     3831   1 H                                       1.0875264
  3550   6 C     3832   1 H                                       1.0888115
  3680   6 C     3833   1 H                                       1.0962555
  3687   6 C     3834   1 H                                       1.0929903
  3687   6 C     3835   1 H                                       1.0903336
  3688   6 C     3836   6 C                                       1.5332119
  3837   6 C     3838   6 C                                       1.3887499
  3838   6 C     3839   6 C                                       1.3840424
  3839   6 C     3840   6 C                                       1.3834124
  3840   6 C     3841   6 C                                       1.3842705
  3837   6 C     3842   6 C                                       1.3901987
  3841   6 C     3842   6 C                                       1.3826604
  3838   6 C     3843   1 H                                       1.0810498
  3839   6 C     3844   1 H                                       1.0802502
  3840   6 C     3845   1 H                                       1.0803130
  3841   6 C     3846   1 H                                       1.0798388
  3842   6 C     3847   1 H                                       1.0811943
  3836   6 C     3848   6 C                                       1.5302807
  3836   6 C     3849   1 H                                       1.0921303
  3836   6 C     3850   1 H                                       1.0896085
  3851   6 C     3852   6 C                                       1.3879631
  3852   6 C     3853   6 C                                       1.3841358
  3853   6 C     3854   6 C                                       1.3841655
  3854   6 C     3855   6 C                                       1.3858747
  3851   6 C     3856   6 C                                       1.3911142
  3855   6 C     3856   6 C                                       1.3824406
  3852   6 C     3857   1 H                                       1.0806403
  3853   6 C     3858   1 H                                       1.0811527
  3854   6 C     3859   1 H                                       1.0811009
  3855   6 C     3860   1 H                                       1.0806148
  3856   6 C     3861   1 H                                       1.0813325
  3688   6 C     3862   1 H                                       1.0955838
  3848   6 C     3863   1 H                                       1.0935416
  3848   6 C     3864   1 H                                       1.0919717

 * 2 distinct bonds (by element types)

   Z      Z             #   av. dist./Å        max./Å        min./Å
   1 H    6 C        1944     1.0850871     1.0980709     1.0770098
   6 C    6 C        1861     1.4196445     1.5407403     1.3810460


optimized geometry written to: xtbopt.xyz


           -------------------------------------------------
          | TOTAL ENERGY            -5104.094127119079 Eh   |
          | GRADIENT NORM               0.000926413237 Eh/α |
          | HOMO-LUMO GAP               4.054478010857 eV   |
           -------------------------------------------------

------------------------------------------------------------------------
 * finished run on 2024/10/09 at 23:35:04.106     
------------------------------------------------------------------------
 total:
 * wall-time:     5 d,  2 h, 28 min, 38.811 sec
 *  cpu-time:    32 d, 13 h, 52 min, 23.460 sec
 * ratio c/w:     6.384 speedup
 SCF:
 * wall-time:     0 d,  0 h, 47 min, 59.255 sec
 *  cpu-time:     0 d,  5 h, 46 min, 20.968 sec
 * ratio c/w:     7.217 speedup
 ANC optimizer:
 * wall-time:     5 d,  1 h, 39 min, 28.490 sec
 *  cpu-time:    32 d,  8 h,  4 min, 29.624 sec
 * ratio c/w:     6.379 speedup

