3258
 energy: -3427.436042898139 gnorm: 0.000981573581 xtb: 6.6.1 (8d0f1dd)
C          107.08256104339483      125.50097048604498      121.43569985655243
C          107.60805716082443      126.24852939118981      120.21643105577290
C          108.01096987081813      125.29295962386682      119.09634121983463
C          108.56599649474035      126.02780647978580      117.87975025562346
C          109.00014922754721      125.06399056191621      116.77968720479963
C          109.64390640293429      125.77492280220021      115.59050541319236
C          110.10366304749927      124.77519618537207      114.53454332494142
C          110.97092351292034      125.38482638853330      113.43667516660544
C          111.39441761824918      124.30936597059693      112.43781873479024
C          112.37349349905301      124.81435966139648      111.38134817641701
C          112.82962006499849      123.70703139465866      110.42744650431248
C          113.82689038660445      122.74065393553565      111.06463382573699
C          114.20325786995227      121.56899949410824      110.15272089204755
C          113.16671204055821      120.44599189418477      110.17288949191568
C          113.54401953280529      119.27371178355682      109.26673633184278
C          112.60336790801418      118.08546677413068      109.46148370882530
C          112.91009000713079      116.91122599427635      108.53231291888076
C          112.03385366928400      115.70620942387770      108.87071371714070
C          112.02035787657721      114.61373360886232      107.80384800335996
C          113.38299556568202      113.97995962694394      107.52675130915610
C          113.21341613707324      112.70719962510670      106.69725754645526
C          114.51091738894256      112.14164628625119      106.12332563684798
C          115.56029166236584      111.78841759929715      107.17516151162167
C          116.73752355317123      111.04198129166566      106.55100006976706
C          117.89985854233743      110.83036318282784      107.51734644688794
C          119.11433775849292      110.23746310832655      106.80543909903736
C          120.21148716781721      109.80292948838051      107.77377054191189
C          121.36601056486543      109.10032011544942      107.05883689756605
C          122.20496832789574      108.25786433273876      108.01533929522846
C          123.23697254014587      107.39103054279074      107.29518767609727
C          123.83893621114233      106.36248391896930      108.24882836655462
C          124.69237162378683      105.29178572275092      107.57255087914980
C          125.99011865436287      105.82587618096461      106.96808475832347
C          127.04547109539193      104.73207089510581      106.78374019228447
C          126.59357196342563      103.53850025321944      105.94041861647354
C          126.24212571224338      103.92191981961433      104.50527399910288
C          125.98748068827179      102.71642595968102      103.59961244556700
C          124.73833665580442      101.92555155009281      103.98532549311255
C          124.36174978365317      100.85775262570037      102.95686988126857
C          123.84928417518697      101.44378221413433      101.64334953627710
C          123.31274186612653      100.37276208802795      100.69740282874530
C          122.78211801622837      100.98688405664105       99.40400131499636
C          122.09817836820598       99.95270382855843       98.51448086372307
C          121.53572886379879      100.53644556265377       97.21840255154258
C          120.42685883946264      101.55927619431328       97.45961948841513
C          119.70245528755744      101.93639607032387       96.16924925070964
C          118.76445058105868      103.13442695977682       96.32521975532198
C          117.64198295198167      102.91594575433236       97.33821093964680
C          116.69040545923123      104.10990413620326       97.38174270455272
C          115.57939784223130      103.92830138990496       98.41344845421376
C          114.60503176528273      105.10823767201663       98.48194243155992
C          115.24489368207409      106.46677065098193       98.78294824049644
C          115.96637145805100      106.51130341548043      100.12595325649782
C          116.75636562710122      107.80165948320398      100.33651906230548
C          117.44520575343583      107.82754569362567      101.70837200664994
C          118.83229118021305      108.46725903780137      101.66510070731482
C          119.52641791908262      108.40423204904371      103.02557914804908
C          121.02847989934139      108.68925006346893      102.96729629932011
C          121.36671988359576      110.14274681537633      102.64397557984178
C          122.87354642596264      110.40784895745287      102.58526792699061
C          123.55832106832884      110.32156541550174      103.94789396390624
C          125.05674699756109      110.60480066000099      103.85895352477273
C          125.77481281216468      110.45741871654248      105.20306973248326
C          125.45935921096462      111.59622558608348      106.17048538099584
C          126.17382635822101      111.47592198222942      107.51783800368787
C          125.61276407559954      110.36106104658903      108.39784788965495
C          126.21531478555418      110.37022997735527      109.80134825307864
C          125.63995267779174      109.25897082012301      110.67700655781582
C          126.28104532973749      109.21112939652515      112.06215106731312
C          125.63926519975099      108.14673428400016      112.95098183488405
C          126.35910660851491      108.01077440247565      114.29091616779320
C          125.69611396488141      107.01026418724578      115.23905135034853
C          125.72949857832826      105.57849252981208      114.70472880374942
C          125.48261267571888      104.51849399869312      115.77923810443053
C          124.10597203579479      104.56976758348640      116.44327834409651
C          122.94909200716177      104.29254420327901      115.48431231239772
C          121.64601698107799      104.03833960627553      116.23895429127271
C          120.46245864872269      103.80170796642727      115.30202101506069
C          119.23156406346345      103.25167346505704      116.02320933720517
C          118.55790245548977      104.25733130809741      116.95384554126711
C          117.42197241368407      103.60981535205075      117.74213368156640
C          116.61134694019748      104.60204289578795      118.57989606065242
C          115.53229067748363      105.36212241250207      117.80533108672864
C          114.37269394198655      104.47058780087765      117.36100429193847
C          113.19163318154408      105.27844866034880      116.82849503031112
C          112.08012641728205      104.38673838716187      116.27644488812592
C          110.85685172569009      105.19123780326399      115.84546372080125
C          109.72523050354468      104.31550611725497      115.31278781009448
C          108.48783538832284      105.14614007823754      114.97996247211866
C          107.36756755896971      104.31374830208762      114.36308614877784
C          106.08812229633301      105.11974132831449      114.12803283771069
C          105.27270520198275      105.31786990691474      115.40359565058438
C          104.07495023894485      106.24093202882013      115.19643730408312
C          103.24802982496185      106.38113082111860      116.47217229043230
C          102.11444432200425      107.39150487475032      116.32504134519975
C          101.33759475665849      107.58750221212034      117.62507260015542
C          100.22277595905679      108.61553984266101      117.45757711625311
C           99.46017019713788      108.93403550258741      118.74361655158651
C          100.30115537432546      109.56466267021077      119.85489230731828
C          100.97853061956862      110.87589817599923      119.45943900374509
C          101.68561853162913      111.51284699567815      120.65376782928536
C          102.45213490315946      112.78374491463329      120.29199656380645
C          103.18287040133275      113.34091261531950      121.51170844992421
C          104.05315125954657      114.56321026992792      121.21883334044352
C          105.32415095362204      114.23598639121300      120.43292029774798
C          106.34607579248917      115.36732521276475      120.52810556072741
C          107.61570957494482      115.08887188194201      119.72611706485115
C          108.70125505166986      116.12868171075267      120.00213561957374
C          109.91645212777230      115.97019974463430      119.09172544680432
C          110.97103101922409      117.04755108019651      119.32893185225744
C          112.11233755859398      116.97638973839079      118.31384325965975
C          113.01136009582473      118.20703638780256      118.40266023784793
C          114.17092249748423      118.21926121099757      117.40571018993457
C          115.25173237518803      117.19278801155249      117.73551741392070
C          116.49801392139349      117.30279371860000      116.85522839967147
C          117.32428240564464      118.56340601184908      117.10579424451836
C          118.65388164868871      118.52679825093351      116.35573935044211
C          119.47542267263827      119.79662370717755      116.56422127338870
C          120.79494237900681      119.75059531644585      115.79922053442516
C          121.60045618393265      121.03594596015500      115.93798324102956
H          121.39011143127698      118.90935778471605      116.16150926838283
H          120.58657583260637      119.57242035539520      114.74215366677812
H          118.89669144369975      120.66137477732414      116.22831483191405
H          119.67683305135537      119.92809408743493      117.62923256802689
H          119.23503830189972      117.66435443422435      116.69162162914999
H          118.46128595714771      118.39601257266766      115.28821389073546
H          116.76286521673848      119.44524109634845      116.79260848237314
H          117.51999846252272      118.65922091596403      118.17702791738239
H          117.13125754251305      116.43172656421228      117.04477877140110
H          116.20163941583547      117.26802490589397      115.80402185170534
H          115.54295533527674      117.31612483970007      118.78013864245531
H          114.83951255857725      116.18840728707495      117.61844155931715
H          113.78759052480279      118.03861624807826      116.39807926514928
H          114.61368783998834      119.21664793401224      117.41847882129034
H          112.39834218216613      119.09541418863802      118.22943423474879
H          113.41536022900121      118.28098613052447      119.41361585836286
H          112.69492571403568      116.07141420582948      118.49151049287406
H          111.69513889740082      116.91059893675762      117.30651472832319
H          110.49414320481426      118.02923911063796      119.26439577758900
H          111.37496886731331      116.94925433837197      120.33963280722944
H          110.36445909486129      114.98803808269392      119.25458444433229
H          109.59214086976301      116.02081062883222      118.05069322203076
H          108.27962090706637      117.12852626881032      119.87133277057747
H          109.02206479810522      116.04447160212085      121.04282766317796
H          107.99414727751864      114.09697148047495      119.98464658358193
H          107.37735386867639      115.08478395191756      118.65998278640845
H          105.89204090124719      116.29693258253370      120.17859601456108
H          106.61471733852693      115.51018700930922      121.57575256594666
H          105.76889775907695      113.32253790018726      120.83526731697270
H          105.08128270545120      114.05051990060376      119.38450273229319
H          103.46894709612944      115.31037940109348      120.67722750559226
H          104.34603590882170      115.00628647269532      122.17464402198925
H          102.43968552443678      113.60904300156012      122.26715686813972
H          103.81203177228571      112.55441937955875      121.93678628421611
H          103.17221780040367      112.55964563410667      119.50196816972380
H          101.75959288114922      113.53615351241584      119.90514996705470
H          100.95114167453100      111.74496834233663      121.42789722338739
H          102.38570696663807      110.78918112271089      121.07928949360343
H          101.71300059990457      110.69101462599369      118.67291262563165
H          100.23123673859577      111.56814939126001      119.06245633586833
H           99.64793085059806      109.75374785729652      120.70929424632428
H          101.06008225012060      108.85420469556560      120.18711675854496
H           98.64411297517032      109.61711637305936      118.49064634753199
H           99.01371112292428      108.01401214157411      119.13012225730969
H          100.64499077752460      109.53784880718098      117.05536721208566
H           99.51039191776854      108.24132186602841      116.71935248613927
H          100.91137644975078      106.63386104165596      117.94593160669086
H          102.03159182715983      107.91806342461207      118.39741208231993
H          102.53353164906548      108.35274971878364      116.01490653359461
H          101.43465861419139      107.06369306471179      115.53614952232023
H          102.83312702544725      105.40781539875429      116.74618309438620
H          103.90647600509823      106.69822447052559      117.28505778680262
H          104.43075198020836      107.22812944025983      114.88982658134283
H          103.44528871270569      105.85522630179979      114.39145534658036
H          104.91964651923874      104.34599631201655      115.75445837203362
H          105.90725981513587      105.74091935403932      116.18512302909411
H          106.35101427949910      106.09404191480897      113.70914533059516
H          105.46566895508931      104.60606782618221      113.39147540675093
H          107.72098360178653      103.91036130310292      113.41228722187186
H          107.14211186600294      103.46720463636051      115.01531383742876
H          108.13039646258422      105.63114036415843      115.89066963736312
H          108.76572788542664      105.93725204994402      114.27970131495400
H          110.06191966148201      103.78844939064359      114.41732543536148
H          109.46497628643479      103.56255873127142      116.06157182438361
H          110.48679682617578      105.76471312959382      116.69604770092914
H          111.14825998957375      105.90746782776428      115.07402304983077
H          112.45998342049648      103.81818035258708      115.42529416600905
H          111.78309817461758      103.66903548331884      117.04226247387595
H          112.79287002779496      105.89252078587678      117.63906537787159
H          113.53822012760384      105.95537211838260      116.04418487163223
H          114.70682245812881      103.77764972450770      116.58731296183541
H          114.03434757049607      103.87633004968038      118.21322512283666
H          115.13726447280354      106.14826021725037      118.45474888650813
H          115.97197807466776      105.85020436696320      116.93432881179309
H          116.12305025627627      104.05823387873940      119.39329033609188
H          117.29673143247265      105.32351442511573      119.03342469524000
H          116.75896327717660      103.08491777627427      117.05406521096867
H          117.85335226886069      102.85932792450980      118.40906672323037
H          119.28992737701905      104.66325788022532      117.65461265525236
H          118.17196333589840      105.08528773495030      116.35849481563184
H          118.50339827314905      102.92236227674940      115.27859729091296
H          119.52682310718498      102.37146886017401      116.59969100422985
H          120.20406181929218      104.73417573402186      114.79391798054569
H          120.76245139541069      103.07971639014538      114.53757523230635
H          121.77401136986740      103.15943279092440      116.87507186470323
H          121.43972466721175      104.88937527432624      116.89066420408273
H          122.81376225702277      105.13994223329311      114.81112627364926
H          123.18652293289747      103.41661069680350      114.87493341867466
H          124.08924802875954      103.81535675882623      117.23501016575062
H          123.96112567655676      105.54130072724882      116.91891108931652
H          125.61333466877277      103.53132558403352      115.32727294683120
H          126.24452543546514      104.62508805187733      116.55601741155016
H          124.99604981560670      105.46638722321829      113.90684856020671
H          126.71600313668753      105.39110197071847      114.27236025352643
H          126.22283948465017      107.04242030433323      116.19630396839358
H          124.66402012383553      107.31798337144291      115.41761242582243
H          127.39295168898292      107.70431698228163      114.11305136955754
H          126.38942673662227      108.98850251493464      114.77903546964619
H          124.59246699247350      108.40628041780984      113.12673752986960
H          125.66139122621745      107.18898043082365      112.42832914019021
H          127.34743965484856      108.99827028741947      111.95526381916366
H          126.18955545356307      110.18938816210134      112.54048463434285
H          124.56114032787755      109.40349574321007      110.78277293708469
H          125.79486061033427      108.29660000514988      110.18262107858754
H          127.29888389082772      110.24867451590674      109.73032179582883
H          126.02206179932865      111.33660772797514      110.27315213757417
H          124.52952832350205      110.48114658080966      108.47282345780270
H          125.80825876201726      109.39198181501592      107.93589672064667
H          127.24111464004517      111.31024079193706      107.35311462973166
H          126.06795811644565      112.42397110470854      108.05174041494368
H          125.75393961341116      112.53796859492059      105.69971801708634
H          124.38475579266576      111.63794400836008      106.34924588277126
H          125.49490250691527      109.50147734690192      105.64927114543330
H          126.85350646874191      110.43625293238441      105.02870822051084
H          125.50002433025621      109.90615674343299      103.14473951906146
H          125.21594543079827      111.61439906824823      103.47216668762519
H          123.08821267524397      111.04112082404056      104.62021272998500
H          123.41719904783530      109.32526198626822      104.37011514823875
H          123.33594878118981      109.69261565298264      101.90037679156933
H          123.03995560687378      111.40777979628092      102.17599349155283
H          120.93337665085210      110.39996581857635      101.67507663685365
H          120.91257365545405      110.79383231231081      103.39565315820758
H          121.46291751302982      108.43173642572837      103.93486806233315
H          121.48782777143504      108.04027029761642      102.21697591874484
H          119.04894546958302      109.10600556297560      103.71318435671174
H          119.38828686449737      107.39929078694254      103.43517786957464
H          119.44096432991903      107.93169327846759      100.93286054114273
H          118.74350165166072      109.50313676499066      101.33581853250789
H          116.82132575938132      108.35927243583421      102.43001630466834
H          117.55366428790069      106.80254635174303      102.06948762030528
H          117.51040470488702      107.87782990996891       99.54969297908512
H          116.09426428836288      108.66316603788772      100.23078089511218
H          115.23576707261563      106.39158493372933      100.92803368216147
H          116.66432591626427      105.67605695098436      100.18592452340994
H          115.94370394720040      106.72853277746493       97.98582580666785
H          114.45669581289641      107.22325607964190       98.78335433716677
H          114.07894060260604      105.18224379059305       97.52668361443831
H          113.85918521273673      104.89228573875431       99.25154570511364
H          115.00698025581083      103.03168309747848       98.16099121813909
H          116.02480700140846      103.75795445755951       99.39581278743569
H          117.27127143031822      105.00200479769306       97.62200773219283
H          116.24449442004578      104.25863269636947       96.39516799152666
H          117.08766677163835      102.01290175611859       97.07518503552298
H          118.06806505997812      102.77230280455379       98.33322132451643
H          119.34716549032285      104.01002109336636       96.62184611002661
H          118.32001512511937      103.35521737615353       95.35095432902773
H          120.44642007064782      102.17923792350675       95.40577891817398
H          119.13453903957942      101.07472648714641       95.81326197457017
H          119.71186609515227      101.13959101227198       98.17012204573311
H          120.85591949803091      102.46074264396965       97.89999276317911
H          122.34179374874392      101.00222194049836       96.64651640976425
H          121.13403260443449       99.71770292092086       96.61668511319724
H          122.81584136730393       99.16742273443987       98.26705887540847
H          121.28220339824966       99.49024028667878       99.07417861300750
H          122.07077076497549      101.77134059273455       99.66366047256011
H          123.60483517020313      101.45201515229103       98.85569537137671
H          124.10302114719967       99.65403547655681      100.46971980322607
H          122.50445489984567       99.82944158043797      101.19220515480875
H          123.05091125377838      102.15827957784471      101.86037402665001
H          124.65039153203955      101.98776362400257      101.14020706328377
H          125.22556138038297      100.21971880019694      102.75996251355021
H          123.57831426289444      100.22522603190212      103.38337304806646
H          124.90466145480842      101.43794937325973      104.94774036808343
H          123.89830209793276      102.61538534060494      104.10148634177099
H          125.87784969967184      103.08148126493245      102.57697899862850
H          126.85545991245520      102.05299526859331      103.62217802624656
H          125.35496841847710      104.55789619157699      104.50048343090778
H          127.06817102851976      104.50346263116798      104.08746385448116
H          127.40748734295727      102.80851337709504      105.91886157338212
H          125.73779031526207      103.06088255176263      106.41772712977391
H          127.93262093176237      105.17547590851929      106.32414253911881
H          127.33891302512417      104.36319541556561      107.77080774187350
H          125.78713842653202      106.31015670611831      106.01205472140103
H          126.40837563808049      106.58436948199824      107.63566031873675
H          124.94442881410033      104.53998096178617      108.32357623368317
H          124.09825385414980      104.79988371090312      106.79985182573861
H          124.43594496464483      106.87953225029207      109.00363003815441
H          123.01979411356935      105.86030366746387      108.76847069974085
H          122.75147535832149      106.86835928345666      106.46812607692956
H          124.02068855460455      108.02191649059226      106.87385053016615
H          122.70676188780065      108.90311345438009      108.73928729337203
H          121.53315325762738      107.60289072146951      108.57539642515836
H          120.95259614953503      108.44105400470916      106.29115576684434
H          121.99598692981988      109.83439708550273      106.55384735497097
H          120.58342433429671      110.66582642346771      108.32995692438217
H          119.77761442927017      109.10893869777257      108.49795473753474
H          118.79014685908945      109.36708364815743      106.22840888957874
H          119.51555152464678      110.96879909781316      106.09967570089792
H          118.17641670596798      111.78343913478176      107.97495014167535
H          117.58576610534136      110.15801405823869      108.31977251578843
H          116.39500085453163      110.07097832888610      106.18413925867426
H          117.09917737050942      111.60795450951103      105.69278177362807
H          115.92368780847956      112.70144500345964      107.65090180415200
H          115.10341057338239      111.16768944668065      107.94936156024610
H          114.26886041039857      111.24002419878130      105.55382566142985
H          114.93654125041579      112.86629836783545      105.42435390752772
H          112.73171250015642      111.94428275843701      107.31388795212699
H          112.54027329172072      112.92293213165053      105.86407424179092
H          114.01810222956030      114.68832085056425      106.99109811474251
H          113.87191595538201      113.74290888677197      108.47241168963056
H          111.33366302895337      113.82810994539412      108.13313719727672
H          111.62121714577219      115.02294109269378      106.87277975189720
H          112.36992548207473      115.27664482610858      109.81655649347805
H          111.00723274571560      116.05133607018973      109.01456505838895
H          112.73341756740146      117.20948597244218      107.49744858180868
H          113.96333213895659      116.63942362041065      108.62429405037024
H          112.67242031283106      117.74357457755595      110.49708687490725
H          111.57374289830248      118.41204430024497      109.29525810360771
H          113.51869180246651      119.59712798215057      108.22302264077832
H          114.56800711112525      118.95917617404108      109.48638575564028
H          113.06247506342049      120.08036462305280      111.19847263089005
H          112.19397889705026      120.83534204096647      109.86529990543596
H          114.33457021941373      121.92826217015235      109.12911693683962
H          115.16164617776953      121.16097834642883      110.48057911610509
H          114.72943000840105      123.30135368122872      111.32086005571308
H          113.41943499780105      122.34295441959725      111.99506028944474
H          111.95373226237174      123.15834541295082      110.07627530376080
H          113.30417805166721      124.16463865068650      109.55625186466114
H          111.89126116658863      125.60760321058210      110.80445319951285
H          113.24760788061066      125.25050671437855      111.87160546594079
H          111.85188198775455      123.48754275660197      112.99214145654237
H          110.50523886847775      123.91181423192297      111.94199354363116
H          110.42359572647906      126.17784247937333      112.92369462565433
H          111.85922736838866      125.83872248276845      113.88304119211078
H          110.67339054469647      123.98369697104968      115.02713849212664
H          109.22836671453443      124.31221580414392      114.07282691267690
H          108.93355350492716      126.47903602707999      115.15207540519923
H          110.50460787417686      126.34681090714980      115.93860605807157
H          109.71606460026608      124.35059792778236      117.19796489809848
H          108.13279922328613      124.49431678463043      116.43929577145701
H          107.80763690141224      126.70990799497517      117.48769647618670
H          109.42095711987643      126.63269684536931      118.19235394650397
H          108.77143108823770      124.60379253566354      119.46958533853176
H          107.14603166111650      124.69456432469507      118.79822660213507
H          106.83942099938918      126.93339767299931      119.85143763387313
H          108.47464683862347      126.84835516146035      120.50497145941782
H          106.20900302983573      124.90856841635733      121.17296162804431
H          107.84458546366251      124.83202179896512      121.83075857985199
H          106.79991116248104      126.19836447282385      122.22070873465391
H          121.02126457364790      121.89133374560870      115.59621094986767
H          121.88144965405520      121.20648033631213      116.97488275757223
H          122.51020713173301      120.97994071789495      115.34435120781995
C          103.16742003373605       98.76516221081593      104.72292702383257
C          103.98141086985700       99.03496440300695      105.98025567593641
C          104.83002387349595       97.83497238335528      106.39354381979916
C          105.63331810892574       98.13232562863722      107.65527774186346
C          106.53507074769847       96.97892636689855      108.08644420010206
C          107.29035334077582       97.33220837129564      109.36431480940863
C          108.22508591914664       96.22809755247968      109.85173586446493
C          108.84617620352581       96.61534566353643      111.19119577745330
C          109.83619502613575       95.58805818847979      111.73771821380149
C          110.06278793812182       95.75539279712555      113.24124421319011
C          110.68049178820606       97.09797467534595      113.62974534307446
C          110.66313837138394       97.31103765102733      115.14159326963107
C          111.14647013107080       98.70177749875596      115.54566483480855
C          111.04414984708362       98.92215270273117      117.05383027854977
C          111.40399457832865      100.35010871498729      117.45631253983308
C          111.33788714938977      100.57123812219629      118.96716796909048
C          111.68417425733121      102.01182662518535      119.33292909044900
C          111.83919052443518      102.24495313509914      120.83328298227231
C          112.36406458408541      103.65000167891414      121.12574739010006
C          112.59240965441795      103.88538872844273      122.61661520896617
C          113.14610485055218      105.27596225692251      122.93778345045203