3864
 energy: -5104.091771646317 gnorm: 0.000770168648 xtb: 6.6.1 (8d0f1dd)
C           57.01385109430824       41.59826904981960       55.44166289971421
C           56.28480592504505       42.74630516961550       55.71717226608778
C           56.10186693218578       43.66960536882181       54.69721265964164
C           56.62455045365006       43.44977366992635       53.43596446175874
C           57.34196931120580       42.29775384248585       53.17138622031595
C           57.53667190015705       41.37383951077009       54.18268184545938
C           55.75074663223640       43.00255559082218       57.10269502777008
C           55.01290985526574       41.78527695689504       57.66665223172902
C           56.90574724947695       43.42118990204234       58.02783922914100
C           57.39363648313052       44.85065059169747       57.73869534708214
C           56.29437877407427       45.82727331271669       58.06657041259825
C           55.65947260051541       46.54150426658784       57.05768124844560
C           54.55355658631048       47.32659451771575       57.33097308133280
C           54.07042852542926       47.41097344048914       58.62443287876403
C           54.72808085683317       46.75235890483418       59.64899551452741
C           55.83398950050891       45.97223324173213       59.36962390126644
C           58.69441715852857       45.12844945578080       58.50253946747488
C           59.20142681485230       46.57842576975616       58.38624486366495
C           59.04083938577902       47.11767864901523       56.98900981673970
C           58.35299245034359       48.30334592628797       56.76712701916041
C           58.15618335619394       48.78157605170884       55.48378720273030
C           58.63519335321634       48.07032227079803       54.39826796495537
C           59.32263457926457       46.88686254021722       54.60543337069669
C           59.53351704179310       46.42215347226335       55.89097937268683
C           60.66709932080155       46.61492132083610       58.84416659869381
C           61.24454844397065       48.02476734657308       59.03818917847691
C           60.46335663855549       48.82982341059743       60.04552894485791
C           59.96496734151533       50.07856235994510       59.69729602469556
C           59.28737912348571       50.85989112378931       60.61644922883139
C           59.09671038082432       50.39947381141331       61.90709012450428
C           59.58138395023149       49.15433514108992       62.26841377013889
C           60.25979404594646       48.37974375996826       61.34511704750903
C           62.71449142281338       47.88878237641348       59.47514439896561
C           63.35002592897959       49.18180565958087       59.99848499325640
C           63.40522196738869       50.31581305943597       59.00678307563341
C           63.70403771517177       50.12963786520992       57.66262531810120
C           63.78893710736268       51.20786763110291       56.79884381600862
C           63.60418480180237       52.49681368055581       57.26491222511508
C           63.32841513384713       52.69578574243297       58.60649664196065
C           63.21931771396939       51.61599624941226       59.46392736540506
C           64.77341876529903       48.89022180569827       60.52858984443755
C           65.08529126262059       49.64274672857738       61.83023921908054
C           63.98232848756055       49.44791161927422       62.84447707313932
C           63.34210540406647       50.54572797446666       63.40491323947109
C           62.33066554512583       50.38163350647861       64.33480393292841
C           61.94349344608632       49.11205316732418       64.72502617994552
C           62.57816638952090       48.01000892753576       64.17779630180759
C           63.58707676223337       48.17704507654465       63.24770466899685
C           66.40645296732751       49.17073190395344       62.45820804542336
C           67.67324572727156       49.48900735043189       61.64868213648153
C           68.79701336729796       48.62129645485154       62.16224055508960
C           69.32297146146668       47.60627055319184       61.37421647189034
C           70.35216149477131       46.80678442434835       61.84056760054153
C           70.87064177336067       47.01123037798514       63.10701770573404
C           70.35357732528951       48.02010904704082       63.90229471624855
C           69.32595011909781       48.81739623292810       63.43305372755869
C           68.08225823919594       50.97323967484594       61.71107938014445
C           67.63565387883395       51.81125222784538       60.50925829100873
C           67.93389067580162       51.18991335808112       59.16548532932942
C           67.06439274398390       51.42733645062502       58.10741433400727
C           67.34790923094522       50.96724420969159       56.83450050374360
C           68.50592305345590       50.24644221747463       56.60055884175542
C           69.37718111462972       49.99897256970829       57.64762686035066
C           69.10068479131151       50.47621640706824       58.91703975001946
C           68.33842328907542       53.17938444509365       60.49933717768378
C           68.06444456248497       54.08613179526260       61.70666675032468
C           66.58837343830355       54.26031680861628       61.95527088209658
C           65.75218013298496       54.80986679253182       60.98957718377368
C           64.40668714093356       55.00525648152180       61.24354531685912
C           63.86524834946030       54.63737585594117       62.46359925494624
C           64.68386686906528       54.07931721717976       63.42993406882528
C           66.03234368628115       53.89753559991101       63.17596713293800
C           68.73727476224651       55.44179216744393       61.44647987456911
C           68.61602516621653       56.42280869307488       62.62102225782344
C           69.56968167954345       56.05560687475632       63.72683207687141
C           69.08679068899605       55.62135440775895       64.95431935575357
C           69.95327977265526       55.27413822162615       65.97594026179125
C           71.32109557140384       55.36038902803436       65.78464996975916
C           71.81441580382069       55.79771218297137       64.56705532124472
C           70.94553787371858       56.14116079132548       63.54759646437646
C           68.84579651541961       57.85976309797184       62.12277016202349
C           67.55275156918604       58.44189363477300       61.52867671467548
C           66.65551902119951       58.91897096863988       62.64392890430766
C           65.48755205248126       58.23085814097103       62.94620192812978
C           64.67237511560172       58.63869717956351       63.98776968138345
C           65.01208921431866       59.74787339637775       64.74129211841696
C           66.17162265101605       60.44500510276006       64.44590796498254
C           66.98654687894475       60.03187953770862       63.40811308123315
C           67.82581643180092       59.56471335924531       60.51666088584695
C           68.31553464770853       59.06984450625428       59.14380260688810
C           68.74357466929777       60.25834141899531       58.31631602217094
C           67.81481545222866       61.19362051224371       57.87204254371886
C           68.19923479209207       62.25345170747310       57.07107077984811
C           69.52866861146916       62.40820687007096       56.71574188379071
C           70.46796941002145       61.50308230349815       57.17777359783407
C           70.07632110810711       60.43679353571434       57.96948321642174
C           67.23980415202813       58.25983259665425       58.40482310032131
C           67.67055143778181       57.87337142238034       56.98400082498656
C           68.88472754160223       56.97516360753067       56.99108179184796
C           68.83797489730311       55.69393597812602       57.52816833643610
C           69.94440186019769       54.86445329344819       57.49427332824312
C           71.12613592891557       55.30981399218071       56.92766021162033
C           71.18809805245121       56.58311190469495       56.38841329393644
C           70.07418922879920       57.40384836695058       56.41480143925907
C           66.54404070928065       57.17290707961600       56.21026398692258
C           65.26239732245590       57.99395637312490       55.98059100174937
C           64.33463213195169       57.11994193106328       55.17020671348610
C           64.60713233220427       56.81924386068067       53.84028847419179
C           63.81011939835061       55.93139811822981       53.13955637574549
C           62.71899613836412       55.33767162578732       53.74966730592945
C           62.42901534936090       55.63757081399081       55.06941883450644
C           63.23588031645120       56.51683971494600       55.77147364868679
C           65.57787006945537       59.33054912574591       55.30205957292397
C           64.32724551903416       60.13955711442699       54.92757716052945
C           63.40727140441260       60.27019433615649       56.11666458195612
C           63.76233475884771       61.01536033854828       57.23469036452683
C           62.92624742060123       61.09439931809220       58.33311891217915
C           61.70796862185025       60.43743187656258       58.33040282683019
C           61.33913016503201       59.69660809004757       57.22222948739582
C           62.18544214526611       59.61009253576215       56.13218389355199
C           64.69273819705315       61.53181798015510       54.38460651216223
C           65.69199337095210       61.51699375958129       53.21808759698293
C           66.17506030028645       62.91763116155632       52.92667789333739
C           65.32699791515319       63.88292665949499       52.39990870801715
C           65.78544987820095       65.15796733199413       52.12649177730102
C           67.10390225374671       65.49322783219655       52.38080575637606
C           67.95850956343098       64.54304705742008       52.91054364951269
C           67.49554788403269       63.26768822040855       53.18017405432992
C           65.11565407419333       60.86516843054020       51.95701542555019
C           66.21994006868138       60.62654631459584       50.90181025073613
C           66.56384099572358       59.15605964424973       50.88772062066754
C           67.60724437806944       58.68449906374073       51.67808385775990
C           67.87594451693930       57.32996167762169       51.77696196453824
C           67.11324244939161       56.41508916911425       51.07055316967199
C           66.08548966602275       56.87157688904041       50.26254371758394
C           65.81062407380880       58.22580941594070       50.18067581940129
C           65.81217293605755       61.18713420458050       49.53828459905770
C           66.99096110947667       61.18068106433932       48.55635392077759
C           68.02249406419014       62.18693886744363       49.00076997018706
C           69.28822292734293       61.77524865601978       49.39628048310128
C           70.23372673933852       62.69261544540795       49.82090954263040
C           69.92669166970359       64.04110858774081       49.85199329984827
C           68.66820978201230       64.46380277022399       49.45951449921870
C           67.72512534729194       63.54448991118955       49.04111951137996
C           66.52199440688932       61.48466168549969       47.12636904014956
C           65.75523517011439       60.31141688144897       46.48648152651283
H           55.04032409445934       43.83581002272991       57.05269629731952
H           56.57296915607390       43.35326156001113       59.06586307840521
H           57.73952154364574       42.72871644917039       57.89755257863995
H           57.60901132353790       44.92013956933454       56.66783655756398
H           58.55584015846308       44.90215039652295       59.56237179434963
H           59.45959403165487       44.44622338123770       58.12425170455959
H           58.60938832828975       47.20723556858186       59.06121323163092
H           60.74513861569765       46.06329443702714       59.78422078672386
H           61.27782439654640       46.08532359916425       58.10924724664454
H           61.20856057982138       48.55288039892461       58.07913453563143
H           63.29698508633776       47.48611239380266       58.64421638875943
H           62.73826204507937       49.51510495808903       60.84310033492147
H           64.87725188311472       47.81888193327963       60.71060264722644
H           65.50243261860325       49.16411081248409       59.76344927607632
H           65.15863354933114       50.71145831824284       61.60902588128429
H           66.49661566980919       49.61637649058180       63.45221051634288
H           66.35454960986200       48.08726442148409       62.59599878497312
H           67.49402195410828       49.21682318602431       60.60587285532156
H           67.66894815630529       51.42354589774093       62.61459708073423
H           69.17058398479068       51.03444298937189       61.78951529772530
H           66.55550803986065       51.98272361771221       60.56920929587635
H           68.52037333168057       53.64668008267861       62.59962600140501
H           69.79354139325991       55.27264643602835       61.22610561337184
H           68.29299093604322       55.89135953777631       60.55764389428392
H           67.59852226122190       56.36755306262389       63.02301306622527
H           69.17629653338450       58.48742163128724       62.95274495609225
H           69.63678568750245       57.86028729394715       61.37115559213788
H           67.02101594338548       57.64037192865137       61.01062410741781
H           66.90521078822617       60.13602103106613       60.37536064028062
H           68.57641484540427       60.24607784476190       60.92357439457589
H           69.18900416633026       58.42463929649843       59.28792918616659
H           67.01570092209073       57.35008111486449       58.96248691646434
H           66.32324370898702       58.84868116251105       58.35491075082647
H           67.94334974937060       58.78618571545202       56.44757208106637
H           66.94176729124605       56.88643406136874       55.23334660541052
H           66.26502222680027       56.25366162782059       56.73120308623542
H           64.78235522506523       58.19290822157239       56.94424806365090
H           66.19143527628955       59.93461791280024       55.97128508268808
H           66.15789253134704       59.12619326823841       54.40183934875139
H           63.79134150549379       59.58855474129057       54.14954990823917
H           63.77451687986808       62.03761847284037       54.07829322310177
H           65.13163298292270       62.12576461392141       55.18881690280001
H           66.56513251216411       60.93787468809922       53.53093420881110
H           64.65135705945868       59.91290381579680       52.21453536168408
H           64.33405353205414       61.49925410035991       51.53803351303564
H           67.11284796011894       61.18067630519990       51.21262316812813
H           64.97246415304078       60.62573871579068       49.12947666054088
H           65.47150593188975       62.21551614861801       49.67696570301364
H           57.17823528378475       40.87822964593470       56.22642334598626
H           58.10885475313307       40.47502748599905       53.99513597090135
H           57.74859900661885       42.12435692788058       52.18705399655719
H           56.47237588829299       44.18286925306523       52.65842861847729
H           55.54615445798857       44.57383793458338       54.89164871194521
H           56.03625752808534       46.48163201097976       56.04616738715547
H           54.06493150825169       47.86246420877154       56.52912701651604
H           53.18475955296486       47.98735136320335       58.83798614081390
H           54.37380358107799       46.84211813669071       60.66620743882965
H           56.34059066073362       45.46390497608879       60.17739149053803
H           57.95550921502702       48.84778293194759       57.61260978158546
H           57.61722303327107       49.70433122162956       55.32658223486707
H           58.46773383565031       48.43692410407121       53.39733051971574
H           59.68575120230292       46.31242167795367       53.76438030420444
H           60.06735215760990       45.49535002540135       56.04105428708450
H           60.12567054444551       50.44507986805030       58.69323022493737
H           58.91065952381728       51.83083897509221       60.32847837528582
H           58.57551248258312       51.01363031915785       62.62699142246075
H           59.43635072374090       48.78918362707013       63.27474718873375
H           60.64898735790781       47.41831036443142       61.64499504503892
H           62.75877377078002       47.15751765287478       60.28656127183177
H           63.87326069794034       49.13411032816872       57.28022617224081
H           64.00334506018643       51.04897597424517       55.75256362452271
H           63.67555909416777       53.33606558661088       56.58834582964528
H           63.19811110756368       53.69667531106216       58.98867453195923
H           62.98382966917151       51.78211449190854       60.50647776218621
H           63.64062741394996       51.54207169207499       63.10768960223279
H           61.84558642068020       51.25239855085033       64.75291524282765
H           61.15479597845752       48.97768608514943       65.45170511754031
H           62.28659579792668       47.01384753161094       64.47986218180449
H           64.07107001352489       47.30626894713577       62.83026140758651
H           68.92478524301352       47.44504379599825       60.38190428090057
H           70.75140379891576       46.02329096396610       61.21263427182252
H           71.67440781515938       46.38943924241978       63.47290459450619
H           70.75409875020621       48.18661849810253       64.89190758617660
H           68.93293672142421       49.60396337741137       64.06027851031249
H           66.15436411583768       51.98392552995915       58.28141094257756
H           66.66588220149973       51.18638536577771       56.02610465260891
H           68.73196181465102       49.88399601276404       55.60847069252847
H           70.28440879516747       49.43814896397427       57.47397960430647
H           69.79957931254825       50.28412532487421       59.71733101768406
H           69.41690952466730       53.01662816490801       60.42752011571690
H           68.02722581556083       53.70184679283152       59.59304942990403
H           66.15179701456663       55.09227784117160       60.02635518425144
H           63.77832406532293       55.46018540950720       60.49077637376870
H           62.81370518929168       54.78878580302172       62.65954160657040
H           64.27451427310579       53.79290920349976       64.38826419442424
H           66.66610891207753       53.47284554783029       63.94235417982124
H           68.01855432934602       55.56053132442446       65.11054004457642
H           69.55992100541198       54.93783744132013       66.92453506737201
H           71.99977361611188       55.09147499239542       66.58068556769801
H           72.88125793982147       55.87210935575705       64.41220078042423
H           71.34307098511107       56.48437954603962       62.60334370247767
H           65.21111372155636       57.36310884024161       62.36333545648949
H           63.77068556040432       58.08631970985819       64.20959451716240
H           64.37824076902503       60.06891433054014       65.55490062443555
H           66.44339304711220       61.31299039026153       65.02919368257923
H           67.89023543383361       60.58264032044816       63.19124319421840
H           66.77746390925334       61.08897831651375       58.15399649410134
H           67.46244350649587       62.96113981252901       56.71730570909433
H           69.82834795275650       63.23299954927094       56.08612734118546
H           71.50941517218573       61.62254663278756       56.91550043947542
H           70.81498097880097       59.72728160845816       58.31590474737563
H           67.91923187500774       55.32550867934155       57.96092054993956
H           69.87963222974629       53.86456012565429       57.89813505389456
H           71.99168776566002       54.66439677007091       56.90076700083690
H           72.10470242412900       56.93668880327635       55.93844029442441
H           70.12681436034032       58.39279653915152       55.98114418336435
H           65.45767663987799       57.26347668642807       53.34399747971253
H           64.05754831477375       55.69057800525085       52.11605774787716
H           62.10383450593061       54.63631893147316       53.20696703524236
H           61.58173912136001       55.17562246283089       55.55592715560469
H           63.01117433541403       56.73802527894051       56.80595775030790
H           64.70506803442287       61.54105470216223       57.25300956665178
H           63.22833608610975       61.66895623179018       59.19709021410802
H           61.05508748552820       60.49836340717260       59.18925688893422
H           60.38968734533051       59.18275103089506       57.20132120166279
H           61.89912164356112       58.99683338985421       55.28924711339046
H           64.29679037105554       63.63880165204039       52.19520584912473
H           65.10879907774533       65.88994433928863       51.70909519909467
H           67.46372025474982       66.48954445646828       52.16899025772215
H           68.99007903554813       64.79413436022209       53.11025637317456
H           68.17223428286607       62.53292318578426       53.59573454100907
H           68.21515942826080       59.39027922165599       52.22802830687228
H           68.67973153606015       56.98295382219082       52.41067171775763
H           67.32109303041246       55.35808971602922       51.15789903860580
H           65.48460474539597       56.17249084934345       49.69526481390816
H           64.98901818991118       58.55665485606772       49.56486307238480
H           66.74351937539740       63.88751271553782       48.74807469276670
H           68.41980943578622       65.51499497258264       49.48323990119084
H           70.66344315368497       64.75934689081312       50.18062557920729
H           71.21258682205632       62.35283883179032       50.12791574829765
H           69.53378753401144       60.72190871595251       49.37710906532246
H           54.47961893293662       42.06153712015070       58.57408288223066
H           54.29123403672818       41.40794786366592       56.94366006780665
H           55.70213654343684       40.98147702394309       57.91515280851525
H           67.44779810792190       60.18548082011510       48.57191118978621
H           65.87719420283983       62.36503059089837       47.15682822377651
H           67.38514250869653       61.74157529042188       46.50883558376064
C           66.58779324677317       59.53897174447241       45.45562646153926
C           64.49812608415431       60.80473054227944       45.81903823954452
C           63.25023657225248       60.33426322710304       46.20680297002846
C           62.09564629321108       60.78960703470173       45.59314811931938
C           62.17709735409942       61.72633827466549       44.57672832820301
C           63.41608350513032       62.21024687821799       44.18812374725118
C           64.56740544831857       61.75084451020651       44.80177654561111
H           63.18105736196356       59.60657204198055       47.00226780005885
H           61.13098622854629       60.41896408216585       45.90738342560974
H           61.27835246133262       62.07624559941853       44.09019201381405
H           63.49377082185223       62.95810385491594       43.41263202675572
H           65.52592836548200       62.13952377737255       44.49096311426086
C           67.80610190774856       58.81968765224460       46.04409667784776
H           65.93916570392189       58.78572380256571       45.00098908172789
H           66.91974549042914       60.21751550222872       44.66611748831313
C           68.42529826347575       57.96594777552185       44.97457548252095
C           67.96430071927313       56.67285340571708       44.76244905175712
C           68.47098909266379       55.90032050633908       43.73385075321322
C           69.45178287545963       56.41354510380337       42.90302680754663
C           69.92163935715044       57.69960120580885       43.10711078971195
C           69.40807356135674       58.47173445808811       44.13444822398746
H           67.20748626679527       56.26897000211069       45.41811687068004
H           68.10534013997545       54.89546681477585       43.57979077792228
H           69.84990710045693       55.80974164196794       42.10095359873765
H           70.68959893103118       58.10384749283216       42.46298883292900
H           69.77525936010294       59.47724065679660       44.28821107944731
H           65.47060096976111       59.60079009030395       47.26851640467238
H           68.52814235549270       59.55061701173631       46.41145373554140
H           67.48616034011620       58.19125372585705       46.87861848619735
C           32.42878851050110       47.77012514483344       48.09901035038695
C           32.12188173717832       47.08706132031577       49.26906473849517
C           32.87090216765261       45.96229663208418       49.59496694079666
C           33.90328312386507       45.53951579447654       48.77753460954512
C           34.20752417418782       46.23762343797857       47.62040172173409
C           33.46436229822588       47.35415853120104       47.28120488274451
C           31.00182819154242       47.56298116378218       50.15934869008841
C           29.87549823827758       46.52793573920503       50.20454133071170
C           31.51096471073972       47.85999262370376       51.57678390878749
C           32.67134641436563       48.86203855857647       51.57675387264615
C           32.26498716968719       50.16211828128851       50.92320427324322
C           31.19295343845757       50.90510563658871       51.40690996805048
C           30.84279325216157       52.11250549860929       50.82834941827999
C           31.57098869338881       52.61188619558425       49.76193030134613
C           32.64164584108617       51.88305846382745       49.27596660075150
C           32.97763777032936       50.66586199141543       49.84220308123269
C           33.19755097664986       49.16393560985320       52.99047884292742
C           34.07240181723164       48.06738319345921       53.62291910602644
C           33.26355427068422       46.87717154539386       54.06262410741363
C           33.51276476204758       45.61855214295520       53.52803280695388
C           32.76842737846631       44.52136339213148       53.92471203747992
C           31.76964813504672       44.66248380009043       54.87229252100408
C           31.52111176640101       45.90957222686647       55.42056671160699
C           32.26060946692621       47.00619876057275       55.01760781988704
C           34.83408842226527       48.69232437689152       54.80689486327319
C           35.51882946987428       47.68753002434273       55.73904559817075
C           36.56666318223703       46.82707103091774       55.08227921655761
C           37.67333864171475       47.40247655865364       54.46950765188191
C           38.74855704448571       46.62468617645672       54.08589800319712
C           38.72871348718013       45.25620076959600       54.29144644757039
C           37.59988446563307       44.66242841829176       54.82869353358515
C           36.53054353528944       45.44615940196937       55.22599975807247
C           36.20968500999744       48.41659830525393       56.91453753491796
C           35.37681574455063       48.45033333521307       58.20296066208473
C           34.20677745764694       49.38731346124037       58.05780044327236
C           32.90823749917229       48.89509336398712       58.02403072922695
C           31.82801996428360       49.74706842248645       57.86971997090171
C           32.03222825740099       51.11068683849435       57.75470690919379
C           33.32177641929116       51.61399339146308       57.80029305470132
C           34.39971878303827       50.76042508671571       57.94902089442309
C           36.25254386658740       48.83016375180766       59.41443177260799
C           36.82048349447009       47.59619865077368       60.13205011668912
C           37.76287018434890       46.80827060628506       59.25427510368640
C           37.44760653459864       45.51225182077733       58.86386186666616
C           38.31135355237910       44.77606104018666       58.07204894731977
C           39.51187583333309       45.32342238544691       57.65815842154513
C           39.83597646689287       46.61439586260620       58.03640087071710
C           38.97134597830586       47.34969870468278       58.82597269899865
C           37.51792544705732       47.98969989674529       61.44282726862264
C           37.87847123021908       46.74434423839619       62.26695876105767
C           36.64106473306548       46.13647048443106       62.87668164982239
C           35.93595431557524       46.79748751929338       63.87627465853803
C           34.81021520810938       46.22848086411376       64.44257237371603
C           34.36683401414123       44.98747316003949       64.01652335738365
C           35.05268319065727       44.32506683221191       63.01396798233396
C           36.17877269859373       44.89789262378270       62.44870840594025
C           38.92680490800981       47.07855184150426       63.33592286918203
C           39.32786899928034       45.84463483128373       64.15701182463073
C           40.10805057881928       46.22071423005246       65.39178618658381
C           41.13899538181419       47.15063078700007       65.34541208137591
C           41.86906139147845       47.45633286925716       66.48003417459437