3536
 energy: -3716.262853936214 gnorm: 0.000788125120 xtb: 6.6.1 (8d0f1dd)
C           57.13397809767834       45.96871102243544       42.09615007669075
C           58.58658091886494       45.96610715793892       41.62968439121956
C           58.89292204492142       44.65967516345341       40.89728120662301
C           59.56727832081837       46.13798645315331       42.79534749878145
C           59.37907308389326       47.39215983686697       43.65701002034225
C           59.48714147241252       48.66642485631833       42.82093589373716
C           60.43237599526122       47.43468775532193       44.77385084464204
C           60.28826928464893       46.38159468641251       45.87778357880956
C           58.99809553048818       46.58913652918969       46.67172665656518
C           61.47583674396001       46.44092649455474       46.85061352697696
C           62.85400934249981       46.07837993242426       46.28792847594605
C           62.85922289496364       44.65850988944706       45.72155945652335
C           63.92967612136003       46.18411757728244       47.38041485554216
C           64.13037806658831       47.57041951970587       48.01046971721148
C           64.40175725893002       48.62295963703720       46.94063842670841
C           65.29503875525158       47.50056558449730       49.00872051890718
C           65.41242066865671       48.68785142971431       49.97877066528363
C           66.81175674549181       48.69082390348130       50.59054336482274
C           64.32393166540443       48.61227948807225       51.05543153378916
C           64.33489848963690       49.70044360472061       52.14186227217754
C           63.17925362011744       49.42537983731648       53.10340897432879
C           64.24570812352388       51.10200461196755       51.52359910747856
C           63.99549837544819       52.27666519509462       52.48373555970525
C           63.90754924457769       53.55955247754721       51.65600584716212
C           65.10489603012762       52.39167271216887       53.53462591292949
C           64.81049216904019       53.32706764548547       54.72076542423897
C           66.13158962691249       53.74019421412120       55.36881919382532
C           63.88695693862709       52.63179576574596       55.73047537125633
C           63.59993859532045       53.38411534276652       57.04023607514601
C           62.73672447969730       52.49422902658792       57.93460989506389
C           62.92545629769938       54.73459514197791       56.76959262742462
C           62.43841789198416       55.51460434716795       58.00225176731843
C           61.81274039333712       56.82573435821097       57.53158770502578
C           63.58899956614353       55.76410717272983       58.98229563097343
C           63.27651845308532       56.56684425357893       60.25759863888781
C           64.57208771674000       56.65660401366975       61.06627156711845
C           62.14882527112454       55.90398121700920       61.06169878748958
C           61.74911451508601       56.54285181238082       62.40457632476362
C           61.19120776792293       55.44597614927810       63.31780486273875
C           60.67101896191662       57.62997145607074       62.28783575753753
C           61.03069203761466       58.91500207037156       61.53734167328322
C           62.23389574712795       59.61231438042434       62.17145357479748
C           59.85188493049661       59.90042243558748       61.53874005827356
C           58.52056418328720       59.38324587422932       60.98517450891894
C           58.68643389694686       58.71850917189602       59.61893522956618
C           57.50752261825980       60.52717776033374       60.83968872922182
C           57.16334019967474       61.33292767870419       62.09750856890355
C           56.57453041969021       60.43978753817868       63.18382773720027
C           56.15782692573303       62.43702068620716       61.73008468664307
C           56.81281615013731       63.71035411981782       61.17318940369965
C           57.18683663457257       64.62992546176208       62.33244611882569
C           55.87191699555828       64.40158542805584       60.17959124484357
C           56.46667966001558       65.60866575958067       59.44286693562186
C           55.37626628300701       66.27903890286674       58.60904477751640
C           57.66003173660052       65.21239188815893       58.55315832535720
C           58.99556898987768       65.80346180361521       59.01828786745659
C           59.06902360776292       67.28284264388996       58.64454198125642
C           60.18617006502146       65.05402713893538       58.40618829206902
C           60.48233352359811       63.69390269954186       59.04929418638596
C           61.06293534800168       63.87138100785258       60.45320994234648
C           61.46807484446789       62.86967310102211       58.20931701741265
C           61.02759306176898       62.51738194535406       56.78333159788358
C           59.65136654801242       61.85703103762057       56.76643416080241
C           62.03288420419324       61.56733799648674       56.11606266123426
C           63.47243374144100       62.07849217093553       56.02097501544787
C           63.53830978616804       63.35787109793035       55.18860148581129
C           64.40030347043897       61.03714716118908       55.37961976610887
C           64.54009363266320       59.68592084524862       56.09649372492780
C           64.67658269541363       59.84152032577767       57.61104310786807
C           65.77876995568255       58.93367333718695       55.58492502038478
C           65.81239217592206       58.61292946019982       54.08676848156380
C           64.85151271477692       57.47264087682274       53.75372145917675
C           67.22876125534609       58.22191927066898       53.63959480257856
C           68.28692943867344       59.33618099715178       53.66628785238753
C           67.92944737576367       60.46655565369503       52.70603638117315
C           69.64379312044706       58.70895503918008       53.31642880459430
C           70.87596313664217       59.62234034297362       53.37998247135997
C           72.07000925168106       58.87181064721035       52.78953824349703
C           71.16697664049867       60.07902202353875       54.81443604336366
C           72.25667574005959       61.16199184396228       54.92751211028504
C           73.57073029373429       60.57364843778699       55.44365481056769
C           71.82077084765659       62.30090794257501       55.86086850654976
C           70.72277296496897       63.20569142256961       55.28725922640573
C           71.32246739060047       64.20961885351065       54.30386314520860
C           69.99656954351050       63.97216471995441       56.40042236735791
C           69.06559971511844       63.12193731672881       57.27433959194926
C           67.72608884158230       62.90271588169044       56.57408961526019
C           68.84252067914817       63.78364909840269       58.64093855113376
C           70.05524098307534       63.68419332001348       59.56440329217914
C           69.81181993697196       64.36350081803694       60.90649080680066
H           56.98214221735395       45.21570357266997       42.86723074758470
H           56.85137261911966       46.93914542894267       42.49551384032885
H           56.47172720427043       45.73980054936958       41.26403856780449
H           69.57975488867163       65.41734727544946       60.76562349858184
H           68.97767454318635       63.89969292787702       61.42708403697767
H           70.69409551248386       64.28971821266006       61.53864518940782
H           68.58119786738733       64.83450615391092       58.49110662692778
H           67.99367888153688       63.30207073183344       59.13386694697633
H           70.75558917426856       64.44985353878552       57.02288146142901
H           69.40247668668543       64.77000366991614       55.94892870693140
H           69.99621781436240       62.58957443173837       54.74861741687350
H           71.87514207990533       63.70512594536599       53.51513833848986
H           70.53988100686107       64.80683011241413       53.84208465926240
H           72.00534220969693       64.88214788210665       54.82067145913090
H           71.48602488568389       61.85766104075583       56.80097545744516
H           72.68950012631089       62.92287404580890       56.09361486444175
H           70.24363509831329       60.46510447170220       55.24622334638816
H           71.45826572776656       59.20989897580302       55.40742979733356
H           69.52419906174801       62.14170636244008       57.44679790816969
H           67.87245325480954       62.47729439392305       55.58364955713260
H           67.09822077231999       62.22510830296050       57.14867186043304
H           67.19729089843823       63.84796003672295       56.46797154014764
H           72.44075104022922       61.58346511983851       53.93350083096619
H           73.88800764634065       59.72798491851730       54.83976739973136
H           74.36134969292944       61.32192618361934       55.42388515124697
H           73.45329479912007       60.23329391926729       56.47106532555316
H           70.69746590354161       60.50640181530502       52.75890512797424
H           71.83968457559979       58.51593261458454       51.78719800397068
H           72.94476175258876       59.51386534294746       52.72505183501440
H           72.31900343155863       58.00938521753096       53.40589635566461
H           69.81579597203473       57.86549678671621       53.98967110561964
H           69.57393737813904       58.30409457938003       52.30317082067607
H           68.34250101382614       59.74613894649197       54.67943746540013
H           67.86264107536347       60.09383558971139       51.68675510540731
H           66.97617179681870       60.91474536598690       52.97206742127796
H           68.68037643768859       61.25209108879972       52.73065470922386
H           67.57396410216748       57.40138235257495       54.27505310513671
H           67.17214159247114       57.83848690089101       52.61728876035623
H           65.49956684277954       59.49208120982667       53.52037287391281
H           64.84054788939360       57.28244707015801       52.68243582625409
H           65.15989016992089       56.55940642772087       54.25927104451728
H           63.83954116036261       57.71695003026434       54.06432401846722
H           66.65011223630148       59.54085503891933       55.83901761701839
H           65.87008420041705       57.99252718942637       56.13551711422642
H           63.64974309318156       59.08340344527772       55.89068055456401
H           65.50679223344530       60.50219212865102       57.85012904592492
H           63.77470026182380       60.25061381564263       58.05645842010399
H           64.86945010554918       58.87471332464693       58.07253366155252
H           64.04610576513461       60.85580130260541       54.36206737719942
H           65.39509354003879       61.48516445916385       55.30810446074151
H           63.85003284172754       62.30417957826982       57.02120974457771
H           63.12366681057415       63.18899139659312       54.19644920286624
H           62.98347437840416       64.16463389108370       55.65951556636946
H           64.57046580930506       63.67904595182944       55.07377361109554
H           62.02050277286257       60.62543618172099       56.66769957628523
H           61.68092736367856       61.35780670175287       55.10298350056391
H           60.97024246116174       63.43243781847166       56.18638374522291
H           59.42245788562708       61.48827581582852       55.76928482718424
H           59.62464469804296       61.01117387255154       57.44986139659630
H           58.87331902502216       62.55986965065635       57.05147133858179
H           62.40829803541318       63.42209795973159       58.16123591952716
H           61.66556189150263       61.93509251290774       58.74308427032811
H           59.54954738420265       63.13059482839474       59.14366533483150
H           60.35747882140287       64.36797017659374       61.11356606071583
H           61.30748480450916       62.90670651610182       60.89302802676480
H           61.97375643086517       64.46626960959973       60.42010639378442
H           59.98855319777182       64.92567460495272       57.34069445199239
H           61.08193127565470       65.67571708257846       58.49704086572498
H           59.05440840724970       65.72650150611032       60.10706143619318
H           59.08511030268064       67.40095141602733       57.56233777411742
H           58.21150058223915       67.82632953212293       59.03525787367404
H           59.96960369147827       67.73918781043051       59.04969583381641
H           57.73362906394148       64.12513049721407       58.52228634822355
H           57.48081526621675       65.54478485917619       57.52861945858199
H           56.80263306707480       66.33653615578899       60.18807945668019
H           55.77656602465696       67.14278779763443       58.08355086420307
H           54.98152392079426       65.58024496628322       57.87346444193230
H           54.55517069427269       66.61261795428678       59.24079803324011
H           55.55670027925920       63.67142385228990       59.42792092510620
H           54.97517938588619       64.72211144873150       60.71626403508315
H           57.73068325474733       63.43071445930345       60.64779265174855
H           57.75097599163276       65.49543561331740       61.99559611269157
H           56.29103660123636       64.98422102244177       62.83676341509970
H           57.79710316516213       64.09334273511523       63.05640167077101
H           55.45363662666974       62.03147743835325       61.00021004880482
H           55.57312391275262       62.70966051415537       62.61141088350667
H           58.07204545621193       61.80397888017711       62.48637285365216
H           55.64661524767816       59.99509337191830       62.83414202137536
H           57.26198555462380       59.64295217380326       63.45562426334820
H           56.36054091115279       61.01842790374916       64.08106000591204
H           57.88384703341569       61.21786122780418       60.08015556298250
H           56.57884319946604       60.09801951857877       60.45814361614533
H           58.10853579185585       58.64055353543189       61.67596927326860
H           59.29244097523182       57.81882264851758       59.68305952583118
H           57.71424116679381       58.44016814468932       59.21713596530164
H           59.15964066925812       59.40170071253736       58.91664058228064
H           59.69441926661847       60.23250810460540       62.56755682729628
H           60.14422088345238       60.77671797262188       60.95281394512619
H           61.27759099955858       58.67364806699723       60.50037430299636
H           63.14882873615093       59.05090152459802       62.01213999864186
H           62.37204220398485       60.60309218942047       61.74209860663601
H           62.08493419885669       59.72605772074220       63.24384115902091
H           59.79950291604853       57.17239639199580       61.81584741458330
H           60.37356281426990       57.91544520186565       63.30243343488974
H           62.63067756663490       56.96499666602777       62.89229400483242
H           61.94715958412956       54.69556868175876       63.53632843486908
H           60.84971040068103       55.86089614968368       64.26421429355554
H           60.34444480240281       54.95478097718587       62.84160581901960
H           61.25367036099975       55.84785191146317       60.43961046557298
H           62.46445845574096       54.87502732268135       61.26025292914650
H           62.98506470446035       57.58046252728746       59.97346262712468
H           64.46546377229328       57.30211033317271       61.93376063655102
H           64.87643892237440       55.67212978927125       61.41537546825667
H           65.37474596476594       57.06218599641161       60.45299241464348
H           63.98904561462604       54.79819109344828       59.29633754847033
H           64.38551393644524       56.28595278573971       58.44220661944058
H           61.66348663754969       54.92333330417504       58.49667052388729
H           61.05724634183247       56.63280821624428       56.77304953611171
H           61.33856567008977       57.35368472656548       58.35445732295720
H           62.57284259764563       57.47404229843145       57.10131595484260
H           63.62254240388197       55.37251231041536       56.22158263327331
H           62.06314390254121       54.56014259797644       56.12010237323714
H           64.55151355857444       53.55183600388653       57.55260965039789
H           62.64576203761907       52.91156522809844       58.93369277752559
H           61.74047130294348       52.38482174065306       57.51407286716899
H           63.18103345849918       51.50459432590026       58.02715832359648
H           62.93206295566858       52.42058696620773       55.24231141905695
H           64.34002362186736       51.67067168472182       55.99383187101468
H           64.31577831182194       54.22796274820503       54.34769204949929
H           66.62218970467775       52.87812062398434       55.81748236498252
H           66.80221520773745       54.16190080011265       54.62212787376313
H           65.97834915028618       54.48850262989794       56.14244998376849
H           65.31971866465665       51.40170860265288       53.93734405288805
H           66.00962348369991       52.73628568273192       53.02589675827891
H           63.03497400801768       52.12618495404505       52.98468794826792
H           64.86793806057740       53.77122144645837       51.18840498195928
H           63.16558669396621       53.46013020515875       50.86598604346688
H           63.63352604857735       54.41010277756308       52.27525820854409
H           65.17489573317317       51.30442740121513       50.98521549852212
H           63.43641514775074       51.09706818570802       50.78801818108740
H           65.26804524142656       49.61441510546512       52.70652730339911
H           63.21278451423424       48.39189889013999       53.44146555594277
H           63.23297576663730       50.06763046811992       53.97787482601372
H           62.22529997139200       49.59362910021058       52.60932852328511
H           63.35039144434427       48.64120011311093       50.56149247982982
H           64.40446855985785       47.64169747969887       51.55169593259168
H           65.28674973647180       49.61621554223781       49.41487636417531
H           67.56963638583622       48.71911311059738       49.80898999165667
H           66.95905381373346       49.56068015181960       51.22527241524580
H           66.97243670711997       47.79288937572216       51.18361603860519
H           65.20759771990126       46.58468544981618       49.59955870230580
H           66.22312991865397       47.42578918896560       48.43403526564474
H           63.22305875136129       47.84638157219709       48.55349657978480
H           65.21436973163713       48.30028673120677       46.29201404644274
H           63.51727039254341       48.79447382875269       46.33519714453026
H           64.68310395179614       49.56979483974960       47.39146891007646
H           63.68588703056512       45.47134847243229       48.17330064870460
H           64.88459823588697       45.87078416831541       46.94603083522938
H           63.11932087834538       46.76476281170904       45.48006198074930
H           63.86921377049464       44.35238240476261       45.45597862886371
H           62.47216329586711       43.95769300718037       46.45763868393416
H           62.24504486454900       44.58952366343595       44.82724309719405
H           61.51853226615732       47.45089780419066       47.26206901146995
H           61.27224700330768       45.75580917519514       47.67663580164497
H           60.25079264971492       45.38538600345853       45.43016275139876
H           58.97680910390081       47.58392283739325       47.11323894669884
H           58.12299480555827       46.47725853817344       46.03821366438681
H           58.92357689563185       45.85476713038761       47.47067513862106
H           61.41247068515604       47.32574577224689       44.30594295754732
H           60.40235598435044       48.42179564255574       45.24319714638290
H           58.38525243063120       47.36786231420032       44.11030702951949
H           60.45043736362962       48.70502905954625       42.31621088037059
H           58.69963737997605       48.71823939395680       42.07359778501711
H           59.39713406958192       49.54491103142463       43.45671739216325
H           59.47867251233787       45.25743368757540       43.43568312899198
H           60.58321016290508       46.14650162078562       42.38870702765052
H           58.72717930618046       46.78628652710744       40.91774611427417
H           59.92698018859976       44.63961388672369       40.55915521274655
H           58.73060694536018       43.80733901200314       41.55457889578568
H           58.24819224881142       44.54640185816734       40.02796851266860
H           70.29461757104258       62.63060117062826       59.72987750052594
H           70.92552778390471       64.14311566573549       59.09095879716808
C           47.80252854824342       58.83483082200278       72.22163042975838
C           49.06190659866328       59.41522204924602       72.85807553981010
C           48.87125863139735       59.52212280400283       74.37137315149049
C           49.40273895579058       60.79824888080088       72.29024316339164
C           49.75247814272459       60.84860391399786       70.79788032676817
C           50.94200287940664       59.94169221513108       70.47883420218990
C           50.10768091179755       62.28105536505329       70.37086221879252
C           49.00938518416252       63.34015388558005       70.51817248780178
C           47.82445641531130       63.04488730295852       69.60025339765981
C           49.55430097133853       64.73897874287272       70.18978869290569
C           50.67206418620611       65.25585673679554       71.10182061262483
C           50.24505254197437       65.25902584088357       72.57042716010794
C           51.09531101592959       66.67991727500396       70.71504385494765
C           51.60707549302803       66.89871580160046       69.28225335100763
C           52.74968389995106       65.94977371402804       68.93499663123687
C           52.03858171486257       68.37016590144411       69.17695120693026
C           52.65372949580636       68.83515430944183       67.85023054915928
C           53.17245043496304       70.26239946209269       68.03617249343318
C           51.64617974301739       68.76483895068856       66.69785211649017
C           52.26855437270757       68.92704093276234       65.30309487248707
C           51.19788600199993       69.37571114219867       64.30943404109556
C           52.92082715063717       67.62237062261087       64.82799177361719
C           53.92051869502456       67.81235771451261       63.67075531168271
C           53.59663197227285       66.86172244026446       62.51789704561924
C           55.37343436613251       67.58565799053731       64.11276924963973
C           55.91167319391932       68.56407579473607       65.16086566326376
C           56.02631723913677       69.97856110832680       64.58992718796077
C           57.29938610023860       68.13950747027870       65.66664530045129
C           57.41751850292764       66.76488610687584       66.34109960342028
C           56.40185850093732       66.59848879971649       67.46838528665755
C           58.84524924927787       66.60794739085722       66.88804166636589
C           59.30819079358835       65.15595059247734       67.09424804311203
C           60.45460653412152       65.12686618888937       68.10453496102039
C           59.72205433350135       64.55236054098222       65.74548327101390
C           60.31857707486097       63.13674543647291       65.76395322808347
C           60.82940762591911       62.80412405559921       64.36205436379615
C           59.29212904855390       62.10110364339274       66.23621881165779
C           59.82987692291701       60.68111305406619       66.48059354495605
C           58.64847591166301       59.74397393969976       66.72922381340047
C           60.80987838059462       60.67459676089516       67.66177384125950
C           61.33954300404376       59.30654068053490       68.11926281521421
C           62.14380636494507       59.50035966448293       69.40573937937457
C           62.18892368947576       58.64594687025566       67.02702038206296
C           62.76800055785832       57.25959678999246       67.35876522864170
C           63.64363404065435       56.80459667941848       66.19157577911766
C           61.63491997606677       56.26697627700236       67.64369848445340
C           62.01441350876428       54.79625839552558       67.87063728772644
C           60.71943659674081       54.01151786976478       68.08126793921960
C           62.97208991862562       54.63149968502665       69.05751040312970
C           63.36198149693567       53.17095611240281       69.35874431343683
C           62.63311729798757       52.65600462823687       70.60048089490159
C           64.87482370754482       53.00764677040360       69.56220343898518
C           65.70876063992111       53.10817472096056       68.27904314853429
C           65.48395131590551       51.90157509450198       67.36997933299897
C           67.20298130748566       53.22712947787394       68.61877572339901
C           68.01738908995561       53.97428663070151       67.55143246836357
C           69.49593212187649       53.60881989757040       67.66460570142740
C           67.79841334193418       55.48248903260672       67.71646525128949
C           68.46398446143722       56.40738142575866       66.68752569993701
C           68.15830412308077       57.85178260823143       67.08831568949009
C           67.97383896360255       56.10058460935242       65.26817872070650
C           68.60164658375754       56.95051297668335       64.15454521450474
C           67.76809025269570       56.81151817348663       62.88218559855819
C           70.05924403318174       56.55074225683490       63.89473596568840
C           70.88730159296186       57.59291754546453       63.13009364789777
C           72.25531976562604       57.00057313611975       62.79033106122392
C           71.04265992949242       58.89620919205774       63.93545557858739
C           70.11818387885712       60.03094620733420       63.46575844833411
C           70.72547907069328       60.73512466384656       62.25501815365904
C           69.84617985697338       61.02585332463165       64.60181358382032
C           68.59312148304464       61.89268941317098       64.40802714254450
C           68.65409696719033       63.08029828722157       65.36874207802434
C           67.31648011783176       61.07207045749904       64.63646038806085
C           66.03230944122889       61.72729456948771       64.11137268805763
C           64.81223654638542       61.03700915952212       64.71936149106949
C           65.95693844916083       61.68798083044835       62.57726466733941
C           65.22000851775579       62.89298594797967       61.97816287093503
C           64.85764852117418       62.62045928931826       60.51986923776598
C           66.08296633777725       64.16008838307484       62.08643884973113
C           65.31239111886390       65.46902181323372       62.30560220309334
C           66.26540615163030       66.64288389357112       62.08295317901811
C           64.72288380069949       65.51339335765626       63.71970235048275
C           63.78809711370567       66.68961383049997       64.04149941115062
C           63.43272663463881       66.62409069287141       65.52742491745811
C           62.53636864669928       66.64532363884773       63.15711486830016
C           61.45526435521602       67.69887278924180       63.43625168407729
C           60.23236021655567       67.37704427480426       62.57890515332953
C           61.97496969778578       69.11376234081835       63.16535046339162
C           60.97570107658188       70.21845708128176       63.50541252666954
C           61.61185573069553       71.59973369703586       63.39982889693269
H           47.93299219758333       58.68581233066833       71.15340811417890
H           47.56163500260902       57.87251387105141       72.66830240951806
H           46.95759895245740       59.50228372834498       72.37923708367401
H           61.98340835654027       71.77227336990927       62.39170806285144
H           60.88624654552429       72.37550879437426       63.63430023598918
H           62.44725699242757       71.69194302161377       64.09123112520513
H           62.87611155490745       69.27992976114841       63.75955067498365
H           62.25857848565655       69.19413407963141       62.11242937009352
H           62.83981899295539       66.75471766516482       62.11399013088595
H           62.08226921289990       65.65666384698075       63.26331298365064
H           64.32558458757818       67.62548412087185       63.86183797871321
H           62.84196301711702       65.73404788862388       65.73514131387337
H           64.33714395139998       66.57993385281138       66.13169912732263
H           62.86789567696566       67.49845579122976       65.84043992008120
H           64.16998447032154       64.59032055160381       63.90694550812402
H           65.55714088315736       65.53908736658266       64.42766739312312
H           66.79724172811328       64.05529626492705       62.90532260383034
H           66.66445624759548       64.25464366407769       61.16637015871826
H           61.15204805450014       67.63856374235063       64.48680666285726
H           60.47624107876968       67.45876270414892       61.52190604947502
H           59.89519213184948       66.36277162360611       62.78041901039298