3536
 energy: -3716.249202480799 gnorm: 0.000976802183 xtb: 6.6.1 (8d0f1dd)
C           50.84174819170276       62.70518511076305       40.41109130287644
C           52.09112737468391       63.57745010234017       40.49920630386515
C           52.14338460143093       64.52122105569342       39.29780353603693
C           53.38214674554824       62.74915486895407       40.53675787530494
C           53.48060622608564       61.68046902611773       41.63140709650764
C           53.28359187202252       62.27233823161203       43.02667010650994
C           54.84931917624812       60.98402226969511       41.58413263109571
C           55.13216643876205       60.10618941598815       40.35979182470524
C           54.22007343408311       58.88108949822056       40.32937326589392
C           56.60402091958535       59.65791248820272       40.36722168648481
C           57.59122999146595       60.68263444745987       39.79494703317901
C           57.47076677195984       60.75200642500535       38.27201952545700
C           59.03851685990804       60.31338782423299       40.16099439251979
C           59.51952213044675       60.73535094088960       41.55824215308967
C           59.62902394276355       62.25621364825445       41.64717362395125
C           60.88835739200698       60.08527815759937       41.81275289324699
C           61.45246438089612       60.19973458445760       43.23978283826835
C           62.97391741730885       60.05591853739300       43.17810423864507
C           60.83287335964511       59.12527388514057       44.14244602301513
C           61.18530226391408       59.22348636147353       45.63362048458222
C           60.91209359554123       57.88617809815995       46.32262989390625
C           60.40955180709047       60.34015864675244       46.34248100415609
C           61.09506563127483       60.81373330819561       47.63417586853315
C           60.06111663512473       61.31720222916817       48.63692799777350
C           62.12711087198206       61.90454086755491       47.32282783748235
C           63.14136652354480       62.15303591309463       48.45467632542118
C           63.23859949823041       63.64671793106533       48.76708940486459
C           64.53504513059173       61.61981617499019       48.10006347699247
C           64.63764891732328       60.09411976337348       47.95800137074286
C           64.59555980316615       59.42105139363550       49.32636338431235
C           65.93016690799962       59.75831812468109       47.20298903689564
C           66.21761406372451       58.27226339069270       46.93587042887388
C           67.50152275170120       58.18414468391929       46.10936999837169
C           65.03383222939752       57.59945663705378       46.22937896605399
C           65.27213944399541       56.17992730329738       45.69172620308697
C           63.98379573922305       55.68417610664374       45.03743628623148
C           65.71925469191780       55.22364547284149       46.80284113661723
C           66.01852102388500       53.77557168339634       46.37923730505301
C           66.36328758296914       52.97294070050801       47.63296974918046
C           67.14115927380530       53.73712956328622       45.33445687848278
C           67.52082261551588       52.34548075601687       44.79561931292094
C           68.73690791281113       51.77385899658569       45.52539320625854
C           67.83381749657509       52.43073334382296       43.29228018163963
C           66.57825400965680       52.51215166577862       42.39886411838034
C           66.34445988915103       51.15805878816439       41.72952143095640
C           66.71858282070760       53.63292238345409       41.35926061167278
C           65.45680052457399       53.96380134109098       40.54566410445929
C           65.85039483415549       54.84428433561137       39.35923759423809
C           64.41089022694918       54.67309891504726       41.41524740655986
C           63.01138323186294       54.78612886082580       40.78073935391777
C           62.49370489604420       56.22232611057322       40.87334679824531
C           61.99574639556197       53.84928735459292       41.44853314151957
C           62.28739042309102       52.35200730782844       41.29798798618766
C           62.03439527552936       51.89135441780956       39.86427345710208
C           61.41306762562920       51.53934569221789       42.26540880943273
C           61.96872547887070       51.45725802345806       43.69311314570479
C           63.07088165179242       50.40078079036631       43.77751632142903
C           60.86514346945982       51.10605014637547       44.70027349494322
C           59.87410241280465       52.23109967145945       45.01476944696416
C           60.58053662671864       53.39311873734977       45.71302008505061
C           58.73374078520801       51.72596567126271       45.91262157475882
C           57.81946338083245       50.65650240541048       45.30242578041256
C           57.11982143821822       51.17795432555965       44.04753034689946
C           56.74639963784882       50.20127250933664       46.30359667185985
C           57.25202813575175       49.60207776384500       47.62122588141913
C           58.27565267966502       48.49504644323114       47.37248116576777
C           56.09318373379084       49.00374370881489       48.43411461439494
C           54.92301749391341       49.93754786006131       48.75640475490647
C           55.39802612751424       51.19621117113153       49.48417802816115
C           53.88306216378856       49.23506533754013       49.64302203457264
C           53.20139130428828       47.97536835465220       49.08867146407884
C           52.34599579742506       48.30486388704670       47.87094109601431
C           52.35356831193774       47.36289037012025       50.21334503479923
C           51.55080549842116       46.09373475093633       49.88233436991116
C           50.85778879331333       45.63452115834702       51.16579273873730
C           52.45739609981268       45.00461037558295       49.29633507236773
C           51.84744823010734       43.60371402227107       49.13335090670816
C           52.93816566824147       42.66300315173076       48.61907738267075
C           50.64099620252797       43.62600150704655       48.18831215486141
C           49.97800926887628       42.26712549349132       47.91617867115950
C           48.81622833271599       42.46405261548065       46.94371909670196
C           49.55676578182856       41.51039725545240       49.18718653264747
C           48.52482942799573       42.19657548684752       50.10038516170852
C           48.80365808555054       41.80023867587036       51.55259496980067
C           47.07290808429155       41.85101087136953       49.71305124848315
C           46.14175886887051       43.06827172697022       49.63090663569258
C           45.92402650325902       43.68860784193040       51.00726065994346
C           44.80286772194779       42.67354267847028       48.99358959369509
C           43.98297851486589       43.87087610007203       48.51536872986125
C           42.67417158971951       43.43666096894312       47.86767851023207
H           50.69885083736771       62.12868242206444       41.32054747156293
H           49.96048069746013       63.32714287973223       40.26763550483809
H           50.91404252089528       62.01843585532633       39.57000991718358
H           42.06244731800287       42.88499430060146       48.57827149271015
H           42.10974274615505       44.30225138210599       47.52798226486794
H           42.86577248953710       42.79392601066562       47.01112383077812
H           44.99426720252205       42.02770635588099       48.13284267898887
H           44.21732757172448       42.09601789376426       49.71268408475377
H           47.06676018266563       41.35543090081533       48.74250031309633
H           46.66213489787831       41.14112685106643       50.43443578623404
H           48.65462666712555       43.27875612950378       50.01635869290836
H           49.78602135246113       42.15184218672026       51.86503065911190
H           48.06204626131669       42.22326737414966       52.22517215073090
H           48.77950691233384       40.71705153164179       51.65831476954002
H           49.16973429741171       40.53226105152280       48.88992706490742
H           50.46043082221436       41.32102248454974       49.76931213421962
H           49.88858484557839       44.30719523164343       48.58772908996961
H           50.96476608524151       44.03614042271023       47.22747360902515
H           46.61578912801605       43.81511888572864       48.98351816592660
H           46.86414036297731       44.02909851500615       51.43170954749986
H           45.25576869512017       44.54399095086944       50.94753441678314
H           45.48521745527988       42.95437067270953       51.67935917595749
H           50.71216173982077       41.62929712178887       47.41065109936122
H           49.18136608749465       42.88970282386003       46.01115000593356
H           48.33972053682298       41.51393347375504       46.71253691643511
H           48.07047418115091       43.13760492770714       47.35633972541804
H           51.52756842259037       43.24999079545412       50.11623207944788
H           52.60560798533158       41.62875336990643       48.62242576372147
H           53.22156444035484       42.92895616936013       47.60310984335126
H           53.82397668689123       42.72892354503561       49.24817349873078
H           52.81241411102501       45.33208370609926       48.31658285314208
H           53.32992283613449       44.91361662335544       49.94697983279964
H           50.77976422161802       46.34896482919234       49.14907226277214
H           50.30974445873388       46.46121850266635       51.61198294432558
H           50.15279805353841       44.83129342520378       50.97342310544901
H           51.59163519117610       45.28623131203620       51.88960636761286
H           53.01394458381288       47.13316049494252       51.05336273234022
H           51.64609066462832       48.12265986163835       50.55795119182601
H           53.96812547890617       47.25256863108556       48.80083035065404
H           51.92392421893485       47.40150029817452       47.43924374976052
H           51.52832047843501       48.96530838940564       48.15630698048174
H           52.94137832838343       48.79285172987915       47.10376321387334
H           54.36917224647985       48.97140420879264       50.58620994245823
H           53.10136030054941       49.96183256155943       49.87248914994410
H           54.44118408776909       50.24262902265291       47.82407688202544
H           56.06091813690961       51.78642849415376       48.85735633134718
H           54.54722982349957       51.81683613762515       49.75821519937374
H           55.93437446583651       50.92980377397596       50.39261039084509
H           55.70972176583383       48.14720996322528       47.87731938924953
H           56.49933377883357       48.62973670713598       49.37895507868447
H           57.72829944590612       50.38615612939439       48.21613718208110
H           59.19083409038597       48.88665125581837       46.93826449703160
H           58.53064140168733       47.99750149464801       48.30671049198883
H           57.86620832209034       47.75144459787338       46.69287584287221
H           56.11002693586249       51.05981592227596       46.52874644068323
H           56.12579549450269       49.44893207694267       45.80900755815591
H           58.41386187735526       49.78543786836636       45.01906433076566
H           57.83477809111850       51.40148908848130       43.26070933352563
H           56.42406275833866       50.43590104539213       43.66255984848405
H           56.56123988306864       52.08381796003018       44.27732418784800
H           59.18151536464543       51.33450384628221       46.82688759251632
H           58.11253293962071       52.58084157101754       46.19394148918086
H           59.44616303719008       52.60748779458687       44.08207840854970
H           59.85850765935838       54.13422451505139       46.04773988733517
H           61.13215434306564       53.03236206047875       46.57833661932386
H           61.27851952660193       53.88908373218246       45.04406644258120
H           60.32085452920285       50.24726274128285       44.30396905142945
H           61.33262049562292       50.79667908881668       45.63892022096203
H           62.40547932778246       52.42262934121215       43.96149109362010
H           63.53834968525167       50.41081086678384       44.76024161706662
H           62.65889779586372       49.40781768548911       43.60718027381760
H           63.84177582935897       50.58128511373688       43.03431318543307
H           60.41574443307260       51.98284640011338       42.27815925870662
H           61.30592191275890       50.52127667401526       41.88423621964068
H           63.33682730391666       52.17043240716051       41.54089788883266
H           62.30321886430715       50.84350468734650       39.74303429593176
H           60.98159619993545       52.00981679262120       39.61565116292817
H           62.62162595695786       52.47029544056822       39.15611189924928
H           61.94726598157699       54.10132809183005       42.51056381684660
H           61.00759577853569       54.04809656762768       41.02445540049465
H           63.07591410994969       54.52665443957014       39.72069671971581
H           61.51809483973407       56.31076498922084       40.39849031747556
H           62.39184587636485       56.52112890264711       41.91509557376978
H           63.17528501445965       56.91179020591598       40.37981655094619
H           64.32028988475031       54.14429881623129       42.36352807562650
H           64.78886772321566       55.67214796260804       41.64355577922223
H           65.02895862039915       53.03780863139512       40.15273798275395
H           66.53420592559058       54.31522340055871       38.69886839283625
H           64.97812835278920       55.13508064847534       38.77900749496837
H           66.34384574331365       55.74956563421169       39.70817826205684
H           67.03515932905064       54.54748837036528       41.86844151284021
H           67.51657229957654       53.35326404894487       40.66673378239626
H           65.71726626069577       52.73172712376978       43.03750582918187
H           67.16068769065147       50.92906106704805       41.04694364406555
H           66.29457966461236       50.37196851877569       42.48052826956251
H           65.41761759023169       51.14423024786508       41.16114362827535
H           68.47361752891310       53.29992681164257       43.12576215948857
H           68.41462797100478       51.55337053705686       43.00186111434289
H           66.67670245573936       51.66127729907051       44.93477869928353
H           68.93857361228039       50.75784681491633       45.19099882245062
H           69.61636879541531       52.38048873801701       45.31730495281466
H           68.58354127136190       51.75437455720247       46.59995137137705
H           66.82026770114703       54.34478052320828       44.48843217193456
H           68.03228469027981       54.20884781009138       45.75565301064091
H           65.11856798505426       53.33480175772018       45.93809636345864
H           66.48673152771460       51.91988173165690       47.39935007615238
H           67.28443667735590       53.34056835749411       48.08079604874709
H           65.56745088113981       53.06641501758431       48.37022774372029
H           66.62285165654247       55.61946190686943       47.26930189453773
H           64.93813427836999       55.20367552815215       47.56807456398583
H           66.04624191236489       56.23501006985266       44.92282678685582
H           63.62322684295462       56.40686922678093       44.30827209803506
H           64.14697942574298       54.74141004450814       44.52386281250227
H           63.21234963228805       55.53441894629141       45.79063641041670
H           64.19028034245736       57.55916378350882       46.92125998061348
H           64.73951239954219       58.22792931952369       45.38447163477692
H           66.38936908603186       57.77268393450252       47.89361567292313
H           67.84870792386161       57.15873990764614       46.01828221630939
H           67.33717855611106       58.58315951139235       45.11045757627504
H           68.29200344732287       58.76649061854537       46.57966358695725
H           65.90486190489486       60.27285126951028       46.23792240845757
H           66.77173666343764       60.17241755289129       47.76568018363920
H           63.78919116100864       59.74272508136765       47.36725985822159
H           63.69919694022816       59.71470177333499       49.86791802267778
H           64.58762895815865       58.33860580714937       49.22938799526461
H           65.46140784212179       59.70927461037471       49.91733883722040
H           64.84434511134432       62.08639215895887       47.16047157616187
H           65.24161296693289       61.93911285790896       48.86920410598093
H           62.79452706413642       61.64800177669923       49.36107685973825
H           62.26280049309982       64.04465243914615       49.03611606086933
H           63.91900549227057       63.82570768545774       49.59779544401481
H           63.60505915842440       64.19452631432515       47.90105357456007
H           62.66589474947523       61.63912498240147       46.41140187898894
H           61.58453740015783       62.82902617842017       47.11386601471530
H           61.61235949922784       59.96236646106537       48.08654068483249
H           60.54129247078204       61.69363096606708       49.53680692731908
H           59.47160762602081       62.12103800247395       48.20431691722216
H           59.39081701035773       60.51081846688125       48.92191731461917
H           60.29242713967329       61.19529989859311       45.67411748411061
H           59.40736822997599       59.97047283020803       46.57372568783551
H           62.25463739506083       59.43017777158025       45.72338170994559
H           59.86142612037230       57.61764718478191       46.23410681800822
H           61.50669240269268       57.09387591083210       45.87549102891978
H           61.15676549777419       57.93953953373762       47.38114565638686
H           59.74591741035301       59.15466811956161       44.03747152459717
H           61.17259356525896       58.15453958162365       43.77239588317086
H           61.22255195960580       61.18889292580466       43.64441753692108
H           63.42466386230245       60.15397613676182       44.16234933561259
H           63.24509211276811       59.08409008183585       42.76972250312894
H           63.40148702301619       60.82625647211310       42.53993339456631
H           60.83116275445528       59.02378225259310       41.55900460419834
H           61.59844753161451       60.54206981527955       41.11913280323394
H           58.80290374555449       60.38584621110113       42.30795283945324
H           60.33936006513096       62.62499494798035       40.90974462713972
H           58.66862523505723       62.72854334855426       41.46143401919662
H           59.96579945496430       62.56939520193223       42.63153641783271
H           59.14530475296264       59.23047970847960       40.05901579237734
H           59.71073754290634       60.77163338341767       39.43149384641389
H           57.35378284984264       61.66976012993301       40.19962248996946
H           57.77513753328302       59.80647405164318       37.82713701942681
H           56.44943210170125       60.96102542125649       37.96410171851181
H           58.10906570196298       61.53752247691586       37.87335723801910
H           56.88785548126599       59.41976949860778       41.39455189687106
H           56.69778871377601       58.74069750234374       39.78281499725075
H           54.94821174858852       60.68678597296732       39.45256241394157
H           54.38394014173323       58.26413932680527       41.20996285677477
H           53.17245957948350       59.16864804431266       40.30275014325230
H           54.42292502707623       58.27864307252316       39.44638663710741
H           55.62239717051017       61.75348257089151       41.64417780264575
H           54.94331271712831       60.35614816086154       42.47338620851146
H           52.69958831739742       60.93337144575253       41.46756958831491
H           53.38113843037186       61.49329082989947       43.78124239232001
H           54.03186647599491       63.03525703337515       43.22789454201966
H           52.30062677919243       62.72345736768604       43.12948314122772
H           53.48837164850655       62.25932383165408       39.56641798952206
H           54.22628193123961       63.43595979198739       40.64889733236304
H           52.02573985535641       64.18659271592091       41.40616881879610
H           53.03323818893205       65.14663258656915       39.33309509483018
H           52.16427936938118       63.95338921628005       38.36957583228111
H           51.26891866765112       65.16830020562284       39.27980575725667
H           43.75958771110045       44.53334143673246       49.35332830253675
H           44.57197816745736       44.43774721830086       47.78950394556200
C           50.24188794160926       47.98471378819846       71.25639814109275
C           51.24961975757334       47.92972928912962       72.40173194542784
C           51.13272405649595       46.58860076619219       73.12442521282982
C           51.03396151900078       49.08073855854917       73.39388152821735
C           51.54774651397439       50.45073686576183       72.92477925771819
C           53.07364719400850       50.49320927124953       72.97380247645232
C           50.93791215775334       51.54999626720006       73.80669111717792
C           51.14694313079568       52.99495128573857       73.32550982619904
C           50.75416637212120       53.94607218135761       74.45840943360564
C           50.32589294229405       53.28951375443503       72.05720715002134
C           51.05234908273656       54.03118623657182       70.92066648649059
C           52.23400179564779       53.22582071514848       70.38289551725428
C           51.46409944484434       55.44219075190963       71.35590531214638
C           52.25988976565311       56.25946146453166       70.32714729450923
C           52.64383478483626       57.60383201011025       70.94672056978197
C           51.48224952415818       56.45371205642819       69.02123177743789
C           52.25588007544002       57.14605752084650       67.88880077478973
C           51.28600574574619       57.48783006378016       66.75929902192051
C           53.40103290615242       56.26054418575551       67.38468708748417
C           54.40711504778105       56.92570667401164       66.43328596225463
C           55.35258883435483       55.84829282605207       65.90452565912774
C           55.18823030451939       58.03283005380897       67.15045212218783
C           56.12382566373980       58.88112331877547       66.27663550501082
C           56.99753573476259       59.73805676340420       67.19250450362725
C           55.32680809223502       59.77113227126723       65.31722320138769
C           56.13790532618618       60.40657371998076       64.17619661956721
C           55.35823044749406       61.60627179954206       63.64126632817452
C           56.41364100340790       59.37213927422961       63.07586273500667
C           57.26457537622217       59.84219941647360       61.88520573644778
C           57.28071425345700       58.74685604325759       60.81976367834289
C           58.69264087107244       60.19394083245964       62.31010876724540
C           59.58919667179037       60.78146642488174       61.21015050030427
C           60.96148314332967       61.09778768869597       61.80441775599388
C           58.97063144302696       61.97823502454933       60.46591509796140
C           58.44432625586480       63.14709629607684       61.31514883004444
C           57.24475834930374       63.78620331346188       60.61241943589410
C           59.51583740713205       64.21644657218798       61.57188233371742
C           59.27168089097569       65.03187032537807       62.85088793886465
C           60.01375584127614       66.36336546005541       62.76222375447448
C           59.72542471055296       64.23092085286898       64.07831852110743
C           59.17984576592721       64.72587125257888       65.42462136927341
C           60.02025912000236       64.14087793024505       66.55923350795895
C           57.70853013135905       64.32871588339309       65.58744279260118
C           56.97742847333492       65.01252967825198       66.75006219954521
C           55.70198902807829       64.23356753030571       67.06674234648173
C           56.63832861525840       66.46963386443305       66.41102924456747
C           56.25001617552080       67.33350104661150       67.62463424015306
C           54.98971790425202       68.14261388468005       67.31287872149645
C           57.36813519003177       68.29979977043072       68.03999477199447
C           58.67819207953725       67.65632257037022       68.51485073045076
C           58.47030129965675       66.88151794224424       69.81577250917429
C           59.76047807006366       68.73760757145358       68.71920459306347
C           60.88501218955144       68.78542834752461       67.67293181014455
C           60.34303626788684       69.07610945971176       66.27392367388390
C           61.74697404212710       67.51751081307509       67.63083713296601
C           62.46438627656765       67.13259495647327       68.93207775086542
C           63.32362017593543       68.28277825251952       69.45381899312876
C           63.33540664036482       65.89456100001665       68.67078304431834
C           63.76813909607649       65.13911164404870       69.93597330039951
C           65.00210626238923       64.29502911040923       69.61420841181807
C           62.63087388737733       64.25994231026860       70.48966199354577
C           62.42448317277975       64.34804496693614       72.00823886167848
C           63.69987095099469       64.00232938367579       72.77723193314525
C           61.31913764261861       63.38402695266900       72.46631264570867
C           59.89327555396236       63.71720301629424       72.01056764883721
C           59.32433880203456       64.87075307931411       72.83606329666254
C           58.97144638352113       62.49509361151535       72.14879202490019
C           59.26063763939523       61.35098074833617       71.17012529145015
C           58.90867540155565       61.75718119473800       69.73887433388639
C           58.48082582979749       60.07542083931789       71.52384203142626
C           58.71286536962635       59.48382270371188       72.92181127102995
C           60.19652337629557       59.42348138117784       73.28835730319226
C           58.14571471827948       58.05768538709531       73.00925384929194
C           56.65813876312845       57.88008953488423       72.68464097043754
C           55.78791223079642       58.72632913540943       73.61353530025053
C           56.25012142881106       56.40479906556764       72.82844883310577
C           56.88091029732272       55.42416644794667       71.83043698576257
C           56.44175425814969       55.73265308842334       70.40185519705972
C           56.49505778112331       53.98356749095644       72.20182796110885
C           57.46795876803377       52.91166619928198       71.68377645877386
C           56.77721182398196       51.54932143602002       71.69284555583388
C           58.73302814164956       52.89696996041206       72.55060248891141
C           59.85744648917034       51.93835275395545       72.12817711225216
C           60.97364024352712       52.02532264223009       73.17011576221270
C           60.36783746471573       52.26940627960442       70.71927644238055
C           61.60478975563944       51.49255873111515       70.24288393730257
C           62.06581140684538       52.05600473602102       68.89833961050782
C           61.31751330119599       49.99049833826145       70.14714254282092
C           62.55679173636604       49.14049350076073       69.87041316229596
C           62.25902970161296       47.65577185575065       70.04034615802703
H           50.29987110533323       48.93312826446269       70.72926402571301
H           50.43677410862893       47.18823122359151       70.54141312570097
H           49.22968217891309       47.86289488769733       71.63799921037334
H           61.92138586790369       47.44698405134800       71.05352509684587
H           61.48066439426993       47.34180665242486       69.34862115890257
H           63.14974961767944       47.06278188574125       69.84819798660054
H           60.88742888608179       49.65451911981440       71.09208517661666
H           60.57422433077495       49.81156647255401       69.36603697870979
H           59.56156816273081       52.08613052429286       70.00537538501638
H           60.60377190967947       53.33587143622587       70.68687697065612
H           59.46326785589874       50.91842225332982       72.13833841558566
H           61.72185911596864       51.25313041343105       73.01422021130232
H           61.46036039241199       52.99738719415478       73.12579383268057
H           60.56478606413000       51.89489957574398       74.16996977192088
H           59.15037003234366       53.90566131424467       72.58749620320262
H           58.43425163600256       52.63548423796055       73.56946003609625
H           56.43141662623241       53.88938567939272       73.28831631782461
H           55.49804833820770       53.78319037071713       71.80204670604932
H           62.41684418974074       51.64428485499435       70.96036221806898
H           61.29245948823907       51.93410386324175       68.14316999088034
H           62.29118943721279       53.11678284293150       68.98564362138050