3536
 energy: -3716.254400049033 gnorm: 0.000953332239 xtb: 6.6.1 (8d0f1dd)
C           59.92429724286173       70.13906015391271       42.73496291014895
C           60.30757861887364       68.78792413942631       43.33780921994010
C           60.19007257080128       67.69761833827815       42.27550723479990
C           59.41626044873348       68.49345978189021       44.54965374242600
C           59.89004800553777       67.34814553490112       45.45405581240988
C           58.73197272429881       66.89523191569621       46.34153903097624
C           61.08480650586468       67.78459043940013       46.31184048428044
C           61.88700253796582       66.61988748473696       46.90743788394180
C           62.67269755658855       67.09219691776603       48.12832339235562
C           62.82300272447230       66.00534229427001       45.85896739112445
C           63.36891119300869       64.61936956019505       46.24998005419622
C           64.86536959164641       64.68601783721300       46.56027944341561
C           63.14147613148378       63.56966496322734       45.15350184717339
C           61.68143947559023       63.24590118968835       44.80596035871658
C           60.89054039543716       62.81993541703709       46.03983939526651
C           61.66256720313154       62.14225182406729       43.73639794569004
C           60.35826355261818       62.04380001699247       42.93271501473080
C           60.29108636571878       60.68476662067174       42.23736330934322
C           60.26732633253336       63.17842754890726       41.90398067424992
C           58.84986363706679       63.51830254770505       41.41660103766203
C           58.95614936861028       64.40699489915421       40.17759837379000
C           58.05323954946567       64.20249237906663       42.53570721280282
C           56.66196303321245       64.74296003914498       42.17158145263512
C           56.11667033312443       65.51523329355246       43.37179801481398
C           55.71712878648820       63.60769006398825       41.76468122332871
C           54.31979570379782       64.01889668222886       41.27106330727063
C           53.51855094445177       62.75240299968343       40.97785689136143
C           54.44376991249842       64.93377233143070       40.04306480178249
C           53.21924924318280       65.09713925461578       39.12720091632940
C           53.64040045048490       66.01683939427524       37.97743046124737
C           51.97764288834021       65.64011682759782       39.85772225551979
C           50.64792752740301       65.02940773135772       39.38954997966152
C           50.26991514412663       65.47985321170121       37.97934108127492
C           49.51188669406432       65.38336805330987       40.36402052526735
C           49.42928411629479       64.49569860250725       41.61279860613264
C           48.92042816707932       63.10111528431620       41.25555272072955
C           48.48793890655114       65.12075218391016       42.65412292452002
C           49.10927088275121       66.26008589250964       43.46682169576724
C           50.14253370818661       65.72248377431613       44.45335092487297
C           48.04396567075164       67.06629280428155       44.23315099985703
C           48.31220333179557       68.57825331836752       44.20469417094932
C           47.56116909050652       69.26017672621475       45.34828794453361
C           47.90366382047010       69.16633700815181       42.84052953573028
C           48.91939687581200       70.11324814272889       42.18431840833956
C           49.17513679795809       71.35208616218975       43.03799370307105
C           48.38215725289947       70.49156899385063       40.79496456742254
C           49.33837752348359       71.24314613442850       39.85636670320598
C           48.54517769675864       71.75892669380262       38.65545511552370
C           50.48189646167719       70.32755071234448       39.40884299576904
C           51.56446417114200       70.96266938825730       38.52453885069828
C           52.63018228686205       69.90578083959147       38.23014692482855
C           52.15158546723235       72.27707204006585       39.07393374749625
C           52.62879511319311       72.30545536720543       40.53513732241395
C           52.50957396557046       73.73250066263972       41.07480428678825
C           54.07348749443496       71.81116026571745       40.71505116317987
C           54.31524108930271       71.12447965559655       42.06957712388171
C           55.81112137052391       71.05229638544847       42.36700816166561
C           53.69150983133777       69.72644647934435       42.04457451666322
C           53.66415651310724       68.92605248929900       43.35393475450344
C           52.92719363395990       67.61823128019122       43.06335441516045
C           52.99049805099073       69.71560947477576       44.48370210850298
C           52.65538993169964       68.90859726481230       45.74710972857183
C           51.89951589705511       69.79901809201625       46.73147543424187
C           53.92229147222554       68.31840591717307       46.37512337944516
C           53.73203123710253       67.48919974330090       47.65391222473895
C           55.11166878733064       67.05848050712940       48.15418813334459
C           52.83321301550743       66.27117749096327       47.41291101723770
C           52.33574043006703       65.57621784408366       48.68519042961871
C           51.78735734492927       64.19315585887210       48.34029734251755
C           51.24670800593466       66.39262018435090       49.39837154100996
C           51.28136696770733       66.21600738395172       50.92395932233440
C           49.89077008912020       66.41599872221413       51.52221938762144
C           52.29390560747316       67.19898096429296       51.52197307463290
C           52.68154363758644       66.99042523768210       52.99146395076315
C           53.50537459070554       68.19741488388924       53.44531397711881
C           53.48906550039722       65.70205365745100       53.21883992265188
C           52.67722223474441       64.47547915110468       53.65217024025776
C           52.22612409110022       64.61296443080526       55.10476045239530
C           53.51560513037576       63.19826759935454       53.50879198405602
C           53.73082973134103       62.70833489922994       52.06983199115171
C           52.47172688932830       62.00755145336758       51.56544716981158
C           54.94296141373087       61.76819242055114       52.01624254864117
C           55.45871728153164       61.44480732764396       50.60642346782834
C           56.28496975679702       60.16168303211915       50.64713675979724
C           56.28545301121500       62.61323904538800       50.05910437775123
C           56.60843532973784       62.54865182865417       48.56037614163855
C           57.70577472670258       63.56065660151757       48.23538876852225
C           55.35602524526275       62.81934566720040       47.72162760683513
C           55.48096332910723       62.37362312772546       46.26788700353740
C           54.17723391094909       62.58405659983474       45.50762204931754
H           58.88011747347460       70.13386883277180       42.42934824564463
H           60.06365960421707       70.93818772347890       43.46000269382649
H           60.53636018380276       70.36019706028115       41.86297686897107
H           53.36894566447123       62.03031848501321       45.98058177685467
H           53.90451579378166       63.63740974664591       45.49134521700993
H           54.26116128976362       62.24357911687797       44.47756179905159
H           54.51185768127757       62.28504905594193       48.16100491474074
H           55.12640847119258       63.88667800819334       47.75943155913870
H           55.75109354322669       63.54758699496301       50.24508215616173
H           57.22218538371986       62.65694733578476       50.62168063230054
H           54.60152670623118       61.27215205285882       49.95041211357702
H           57.11042003483991       60.26630012294354       51.34704765532624
H           55.66896658867076       59.32697703918928       50.97055248688336
H           56.68974885288743       59.92286272736118       49.66694323896916
H           55.76689100087627       62.21096478232992       52.58196975215275
H           54.67043763697536       60.83669459622786       52.51593941779973
H           54.48350965178318       63.37983542762122       53.98333510266703
H           53.02214065907601       62.39811062867715       54.06589328516539
H           56.98353989642501       61.54949485744967       48.31467960013593
H           58.61279632944451       63.33632412401978       48.79387649075468
H           57.95068617242161       63.54644344277849       47.17651804387697
H           57.37922561297625       64.56617520628802       48.49639326599889
H           53.92639649560843       63.57053424975189       51.42480577055834
H           51.60382925685784       62.65403769044050       51.67350867525769
H           52.56159634900450       61.74482927697289       50.51498013262369
H           52.28969299105481       61.09880476378432       52.13615378432196
H           51.78394335726821       64.39006353767644       53.02915123761457
H           51.66833543797926       65.53434708904183       55.25685016450063
H           51.58617070715776       63.78010850350361       55.38724209585685
H           53.08923488817341       64.62233361468549       55.76679598109718
H           54.03491378103286       65.47326186691400       52.30237126238876
H           54.23639618012641       65.88660843872135       53.99458639180813
H           51.77165932843204       66.96258548641292       53.59823564425113
H           52.94671822213983       69.12250308687643       53.31269140799305
H           53.77045025174809       68.10622627305115       54.49571597295979
H           54.42211557853327       68.26882348456428       52.86253947870962
H           53.20912961892174       67.16413855570417       50.92533289679492
H           51.88214949830494       68.20786443607251       51.41569195736401
H           51.60449509323090       65.19417351069673       51.13627475714387
H           49.52238627249847       67.41853485810476       51.31093323575929
H           49.18765174408083       65.69925054496235       51.10135485512747
H           49.90541167233863       66.27890549402250       52.60119744322980
H           51.35139642815712       67.45505339569071       49.17023296853094
H           50.27265731915232       66.08166591227580       49.01345440123053
H           53.18031119186662       65.44346071774724       49.36795428132827
H           52.57014341850389       63.55657611028753       47.93829394502215
H           51.37756487740752       63.71732455282591       49.22726235103918
H           50.99702941074730       64.27750793310778       47.59593770603254
H           51.95461324120117       66.56871624540523       46.84125248727377
H           53.38784503872826       65.55101191065940       46.80632089405211
H           53.27841638140422       68.12373152302492       48.42070058789160
H           55.60912129585401       66.43657140074667       47.41231386999834
H           55.73984556769396       67.92780023841981       48.33878602783223
H           55.04095398207945       66.49597317781361       49.08202109447071
H           54.41802539610891       67.68302683790101       45.63860783764395
H           54.60163983642717       69.14323871929403       46.60435381938478
H           51.98323919377186       68.09936830231854       45.45462579716472
H           52.55170534237449       70.57013449693898       47.13571477185620
H           51.05850818285818       70.28112481383440       46.23477927591588
H           51.50352145210589       69.21834871251441       47.56021230206238
H           53.63797323255722       70.54876327801412       44.76820189970304
H           52.05968239593598       70.13969705272390       44.09424001803281
H           54.69246558315744       68.69164194700311       43.64500877627377
H           51.86850005580931       67.80927348137550       42.90028781350255
H           53.32619468609160       67.15861595927596       42.16145647129035
H           53.02677247565710       66.91069876620841       43.88101474565948
H           52.65916235021511       69.81529930280594       41.70036540443967
H           54.23217179916466       69.13320063953249       41.30024439570013
H           53.83518962776658       71.72491476531383       42.84794076765126
H           56.24781413455823       72.04893795836823       42.38132321165239
H           55.99348620956125       70.58988793249632       43.33371781520540
H           56.31966371384408       70.46804737055872       41.60187427293894
H           54.33800043211603       71.11341011216007       39.92150936223195
H           54.74610362982515       72.66752720749793       40.62179816611589
H           51.96521135591327       71.67636446256731       41.13048140724731
H           53.06958081197734       74.42415211188444       40.44762939326424
H           51.47073966204496       74.05819314774168       41.09434237589325
H           52.90219469207332       73.79285402167693       42.08631667856319
H           52.98031123429263       72.57669834989356       38.42640263806538
H           51.37906415237204       73.04207478446509       38.96342713956041
H           51.10675327076323       71.22317723038742       37.56208097578075
H           53.43665962620798       70.32384360501494       37.63116424994100
H           53.04621263924222       69.50571242985187       39.15024143589476
H           52.19092584253589       69.07974471569696       37.67336808085260
H           50.96415354626173       69.90564741941087       40.29113983571141
H           50.04997418362670       69.48867215432725       38.85471141407682
H           49.74955411442147       72.10523289899602       40.38622464856037
H           47.72072249580476       72.38815906547367       38.98508294560180
H           49.17358840669656       72.34907218980007       37.99370755678720
H           48.13330535067633       70.92731285382845       38.08666605683966
H           48.06264840806994       69.57822529145832       40.28477758248273
H           47.48996951466732       71.10659348965477       40.94176669409894
H           49.86325806636285       69.56788379091402       42.07318048529450
H           49.55689569376622       71.07429923657868       44.01722616685213
H           49.90878846833975       72.00392696941745       42.56942230902833
H           48.25460160909311       71.91635175122890       43.17489413647508
H           47.73168244484989       68.34352773262445       42.14315659096930
H           46.95355326247911       69.69509859112118       42.94841721891564
H           49.38538898957402       68.73507525235902       44.35877220890546
H           47.68612696119274       70.33919978933092       45.31087075596355
H           46.49694034699539       69.03942971251358       45.28488168535092
H           47.92559000077942       68.90672427917477       46.31109626660857
H           47.05033678679877       66.88277919986800       43.81770248723762
H           48.02074212463247       66.72674880186192       45.27064565698181
H           49.61356615408933       66.93756742040894       42.77041609458369
H           50.52083782298785       66.53257964399154       45.07107011214092
H           49.69036163853224       64.97948598446730       45.10694444512090
H           50.98403103894826       65.26217549052996       43.94316378409157
H           47.59998046600974       65.48721256188972       42.13119930671703
H           48.15445034970334       64.34632004807850       43.34752489309564
H           50.42742714200016       64.39331948703762       42.04706095060708
H           47.90125348814419       63.16083567778983       40.87704178729938
H           49.54097009351722       62.63394890795154       40.49605190387790
H           48.92505733742386       62.45809232145589       42.13269805403941
H           49.63014318245123       66.42716634696136       40.66299182445006
H           48.55604592835455       65.30639139239214       39.83853653781520
H           50.76150887747527       63.94033253485313       39.36700874076232
H           49.29715195982813       65.07774212405913       37.70102640580529
H           50.21830991538104       66.56581813328130       37.92509853118506
H           50.99189036190951       65.12709931980780       37.24783591711095
H           52.07559695882095       65.43528374612558       40.92342347425016
H           51.93123419296928       66.72535302288003       39.73985462330671
H           52.97450945500618       64.11787886822819       38.70407691875783
H           53.96535632878533       66.98109742766617       38.36432125378456
H           54.46973419072789       65.58042180682234       37.42243816758068
H           52.82625063925279       66.19163119755565       37.28164839328668
H           54.74623573763161       65.92814169778678       40.38166073690208
H           55.25502157807174       64.54731071609341       39.41798887511523
H           53.80794113592746       64.55814459866812       42.07412652898060
H           53.53249285744421       62.09302792414726       41.84308748040579
H           52.48282528906335       62.98468431605594       40.74998830894974
H           53.94706455846126       62.21758397107973       40.13422859114988
H           56.19036786398267       63.02793957548179       40.96870900697245
H           55.59955391006263       62.94540141287188       42.62486498320732
H           56.76743573053112       65.44436085463803       41.34001403998970
H           55.98684774112851       64.85234387241735       44.22458313056783
H           56.80726280696006       66.30797136795374       43.65403946042842
H           55.16049688845082       65.97205262212847       43.14058610626838
H           57.93308577585508       63.49855649549250       43.36206816761637
H           58.64840263751061       65.04130917030616       42.90583653061094
H           58.34818993786768       62.58857483693906       41.13039303661444
H           57.98260990095859       64.57537596753909       39.72593447031886
H           59.38933422838917       65.37066964998637       40.43710086844325
H           59.59278662222565       63.93955755432525       39.42861456548680
H           60.70536281565466       64.08779078381284       42.32157713453388
H           60.88024621529923       62.90081846640657       41.04164072022881
H           59.51399006369108       62.11756823127083       43.62253522152663
H           61.17269863549114       60.53404767623270       41.61636456717603
H           60.24541624863442       59.87949465150798       42.96714132277997
H           59.41236310240354       60.61614338152754       41.60163854530726
H           62.48311401447666       62.30747377092098       43.03253595713312
H           61.84971172260477       61.18427618336648       44.22779074607313
H           61.20612560276452       64.13987873676315       44.39110324780546
H           60.68785703474553       63.66995954565419       46.68503725184425
H           59.93667435803081       62.38506876959173       45.75154960115653
H           61.44696345487213       62.08032091678582       46.61071804250492
H           63.64917796573415       63.90731383815394       44.24480089861160
H           63.62665839847646       62.64054579803159       45.46716552936915
H           62.85921180217701       64.28385885862336       47.15725164024053
H           65.42797625312862       64.95691796382303       45.66837166721383
H           65.06906413414299       65.42640895959133       47.32978172921528
H           65.22866915626874       63.72184369395968       46.91063721131600
H           62.28506315678276       65.92727095961156       44.91421416673364
H           63.65488668288831       66.69300520590728       45.68833056814540
H           61.18398787443746       65.84940161143659       47.23895786094325
H           63.37411034055511       67.87725810683786       47.85085108320645
H           61.99690284343277       67.48984759271410       48.88250162261942
H           63.22908432830518       66.27100638775971       48.57304082961487
H           61.76379509094909       68.40155854986929       45.71964298295152
H           60.70741577107595       68.41288034629355       47.12161147069673
H           60.18869069336457       66.50076654109399       44.82980469537409
H           57.92410632036665       66.48686207132003       45.73938275210213
H           59.05182769244006       66.12759477131480       47.04014020369425
H           58.34214791093810       67.73535692677484       46.91249422858913
H           59.34054380045652       69.39584431303440       45.16022708685524
H           58.41219615106368       68.26647993146845       44.18192487654481
H           61.35304200557571       68.84142998591253       43.66145787121453
H           60.51431375512936       66.73534027426724       42.66412010189345
H           59.15858513796385       67.60567952998746       41.94044212413650
H           60.81075700426274       67.93618538601822       41.41385323474934
H           56.28196622460703       62.92650789211994       45.77135557504840
H           55.74838476672934       61.31447647829627       46.24396940742968
C           38.07188292428744       43.35440676743545       42.48751902863363
C           39.54287247674964       43.73337392775269       42.63997821591433
C           40.16656724107902       42.94634662758557       43.79189039794327
C           39.72246601499672       45.23513232209096       42.89170786898789
C           39.26364355440015       46.16815893319973       41.76429477455238
C           39.96503293478612       45.83636104696171       40.44587078900663
C           39.56379833384413       47.63474510973393       42.11301052788675
C           38.85871468601606       48.20788241975226       43.34768465898588
C           37.33942359395879       48.18292285775750       43.18032824376526
C           39.30642198567531       49.65465183851482       43.61210440495795
C           40.80622996344839       49.86244305712293       43.85385833064863
C           41.33312718841417       48.93767035009045       44.94954385233279
C           41.11495460305284       51.31440601123367       44.24725143218596
C           40.75859489628282       52.39959943015313       43.22352364333801
C           41.42470383105228       52.13273360664751       41.87560768747709
C           41.19470450326444       53.77679711714356       43.75312135170322
C           40.20395918000512       54.41900250129969       44.73289958523057
C           39.07620537557116       55.10895262256500       43.96365253764963
C           40.89239834958982       55.44284047580721       45.64846993513854
C           41.78285508625040       54.85489770762803       46.74892087959929
C           40.97644672983132       53.95780415679510       47.68721651827843
C           42.42863436985309       55.95815406968437       47.59956954887940
C           43.38110964453445       56.93149271695960       46.89713074409701
C           44.59205766455571       56.19188185234950       46.33252085070261
C           43.85703888025650       57.99981928764779       47.89312578530873
C           42.79151001679325       59.03617872488172       48.29086628940608
C           42.97077733762168       60.31969267445191       47.48055206247386
C           42.85281861993078       59.35034277388149       49.79245102688891
C           42.30363679213674       58.22273510359272       50.68011657404469
C           40.77654776182752       58.26002656157863       50.70403894255251
C           42.87973809812097       58.33324211953975       52.09683690844690
C           42.60868043422575       57.14218336580129       53.02976897972619
C           43.01065066413931       57.53131513696051       54.45194765588305
C           43.38425400598119       55.90830155977360       52.55532583872488
C           43.17648978594447       54.61670258960707       53.35789867854981
C           44.25777318468067       53.61638901529143       52.95087081389532
C           41.78260109075825       54.02250296095475       53.12022602838978
C           41.35503945694813       52.96351698335821       54.15055760198717
C           40.30000759194471       52.04749626325825       53.53419948212061
C           40.82667247407380       53.63259874234383       55.42290680685017
C           40.49723125372954       52.69662637666895       56.59565966212970
C           39.82808063263528       53.52335314214886       57.69545384419445
C           41.73632244906035       51.97537416109085       57.15377739511983
C           41.96212367085563       50.55416660352851       56.61612958828433
C           40.99548070397303       49.57230990223312       57.27754482797244
C           43.40752040463354       50.09980255652902       56.86931942555604
C           44.44517187810234       50.74619645736177       55.94248978818190
C           44.38109268254210       50.13914180607528       54.54206580304972
C           45.87433337105222       50.60305800755353       56.49448456578916
C           46.78218765094102       51.81376579652725       56.20697832758260
C           48.14601562107306       51.33688475953117       55.70988171932007
C           46.97805012825989       52.70421795934573       57.44495956666373
C           45.68669617556066       53.27282970797535       58.04459460525133
C           45.11744158504678       54.37509966217205       57.14952191794895
C           45.88630119298685       53.85811729820202       59.45187556709243
C           46.44325124628468       52.92392994768258       60.53673346285328
C           45.80894664786989       51.53492041062332       60.50426063147600
C           46.19904460472422       53.49752401794591       61.94231552543507
C           46.64546341023851       54.93873251908780       62.20411736770319
C           48.16137747532535       55.07735693559847       62.10278352273039
C           46.17328713450518       55.37905083003264       63.59889488077229
C           44.68977482962823       55.77645275209238       63.66218672641047
C           44.51292785829338       57.20134508900775       63.14506808498855
C           44.18489254599349       55.63649949035992       65.10268085549167
C           42.70715594751214       55.96617211629133       65.35412080578064
C           42.44427289313635       55.90331581376080       66.86099246170507
C           41.74009380105399       55.00854024500089       64.63531428725462
C           41.20829940236967       55.47263522653311       63.27351383597436
C           40.32846264024482       56.71504665799231       63.41737366977058
C           40.37132970453959       54.36900705127476       62.60866516814094
C           41.12143214194411       53.10840505139230       62.15418004850672
C           42.07968266558655       53.42171256772430       61.01011189362392
C           40.07785115695086       52.05960981846235       61.74172349533310
C           40.60120351082325       50.67410723431438       61.33394944000279
C           39.43210300767870       49.85957013512329       60.77955027053267
C           41.25555781968918       49.96715155466273       62.52572427358060
C           41.93687947875873       48.62061853878677       62.23550073672517
C           42.24986385168287       47.94510412651626       63.57089412026570
C           43.21303027586445       48.81951580801135       61.40948322953835
C           43.86005523779095       47.53732978102187       60.86401030342719
C           45.29370585813493       47.84492807632265       60.43341802641674
C           43.04876789762135       46.97731054794182       59.69134787143161
C           43.49088940311673       45.60048325688435       59.18049557311557
C           42.73386419004041       45.27981707729914       57.89229873182915
C           43.26909458513770       44.48677240775092       60.22010405167856
C           44.53515104546384       44.04242066888078       60.96342968237818
C           45.47796501759168       43.28811265969809       60.02734110067340
C           44.19960036349541       43.14452977095679       62.16070200434733
C           43.44795344219724       43.83844289867542       63.29399680668004
C           43.33670595510974       42.93781003184203       64.51881346075569
H           37.50803804840723       43.65902457711220       43.36747209435111
H           37.63166766345577       43.83042471532674       41.61498936478301
H           37.96799653816837       42.27725215954983       42.37179907214621
H           42.78768926645387       43.43633627926382       65.31477371236974
H           42.81632196063792       42.01546275039085       64.26883365604148
H           44.32488980883393       42.67984190382617       64.89412709361015
H           43.61958660275465       42.28425189917861       61.81614017662766
H           45.13865186120787       42.76284169375413       62.57010186352930
H           42.52601934317270       44.82802975392584       60.94211465857512
H           42.84956335264732       43.60674738402416       59.72525962500227
H           44.55191776258545       45.65274711283325       58.93134512059726
H           43.07093086268019       44.33205595256253       57.47760320219162
H           41.66473381949152       45.21083209641839       58.08388011534766
H           42.89691073170845       46.05315217803415       57.14514984811738
H           41.99603225237048       46.91050820809991       59.97767688954771
H           43.11360486468950       47.68952694469232       58.86504853709924
H           42.99568693574166       49.46974356560840       60.55995419002778
H           43.93869161595227       49.34029680379197       62.03935802220933
H           45.05968890961217       44.92571235026568       61.34006510655547
H           45.78211039329881       43.90986709445815       59.18934441755183
H           46.37518408537499       42.97722722087805       60.55697077720244