3536
 energy: -3716.268419993085 gnorm: 0.000780688415 xtb: 6.6.1 (8d0f1dd)
C           61.59114774329150       40.17812764133106       71.77028331710865
C           60.15945851835420       40.71570299314929       71.75943047583559
C           59.23496423359402       39.71879179883129       71.06496826208493
C           60.13968594003393       42.08867715629155       71.07742082393119
C           58.78211885871650       42.80388739507853       71.00638371759523
C           58.95867870758489       44.09968444386435       70.21600211944798
C           58.23220822801689       43.06838751300049       72.41430745664290
C           56.93918403367024       43.89422840579860       72.50867565255493
C           56.62875760561337       44.15257906941822       73.98361080930628
C           55.77735258377133       43.17909400372552       71.81003685718878
C           54.43778430305395       43.93143260389810       71.76085148763704
C           53.35978554643290       42.97892203848404       71.24126182516821
C           54.53512611249267       45.17297865605092       70.86699330725756
C           53.38788656926862       46.18955245387372       70.98528744313238
C           53.50820800931675       47.18913817029655       69.83615665306856
C           53.43647613667038       46.88172339907428       72.35417836378927
C           52.47491296771198       48.05602483532837       72.59225845283170
C           52.74693800607317       48.61255614301201       73.99035055247792
C           51.00566879368070       47.65055968894222       72.42642816512334
C           50.00882289450843       48.82169120515118       72.54006191290947
C           49.29416787171174       48.80698778063613       73.89228548234135
C           48.95713928494644       48.78082870090231       71.41994118268198
C           49.47399208395014       49.23194868131612       70.04778155318535
C           49.56291945592399       50.75705494081322       69.98523732359922
C           48.56635316209263       48.74369687132729       68.90939644889188
C           48.53372663332504       47.23054651990992       68.66492098562286
C           49.92782691817975       46.68126332237107       68.36441137361361
C           47.61527184658274       46.88937026503996       67.48068598705315
C           46.13204073128479       47.24924213417430       67.62066436760333
C           45.53227265018634       46.62671578401228       68.88310473956612
C           45.31940679679257       46.78392889203071       66.39959188087302
C           45.49145841303100       47.61031126776955       65.11286602373931
C           44.20733968786293       47.51229751065721       64.28656936942230
C           46.70195430445343       47.17724983092449       64.26062868311857
C           47.66186000180091       48.32267832652802       63.91023405449997
C           47.02055234227921       49.28104227016955       62.91024308712694
C           48.98444109641326       47.77575253350403       63.35356617661548
C           50.16416005584989       48.75319474843040       63.48211586130196
C           51.26176673194252       48.37721397344570       62.48910328780202
C           50.69003707741081       48.74527795916448       64.92217033977515
C           51.72218482413564       49.82071825188552       65.29183596605762
C           52.26442785848471       49.51709546355244       66.68742763310526
C           51.08905346301374       51.21450430901697       65.23890505521767
C           51.96500405444812       52.39337491847674       65.68808579061617
C           51.11943052234949       53.66432492151948       65.63059843436092
C           53.21256713122985       52.52442005526946       64.80765295817696
C           54.15096015192059       53.69718967324884       65.13421421599131
C           55.17682412145663       53.82597977130279       64.01067483194439
C           54.82297973430596       53.49158902546220       66.49740252715402
C           55.77492747825465       54.60028356768125       66.97090091578872
C           56.42544564517299       54.16270570404392       68.28228218923252
C           55.04344214728654       55.93282430210650       67.16106647823297
C           55.97215483351325       57.13683370633520       67.40925142238163
C           55.71930077688097       57.75677576961262       68.78417659871815
C           55.80245784500886       58.21469595870132       66.33059581291317
C           56.27688622024758       57.81213222925205       64.92734236784217
C           57.79846743093297       57.69798396864115       64.88644007892680
C           55.74430312482635       58.83090986745554       63.90938609933993
C           56.13330598131426       58.55346990955250       62.44662764465728
C           57.29326262450829       59.45162955162210       62.01310449220630
C           54.95533981869767       58.78125253790586       61.48947270400230
C           53.84589702872454       57.71915907344614       61.51924141356050
C           54.31904124067371       56.42363269136130       60.86645767483628
C           52.62002623639328       58.30162772759986       60.79927149522226
C           51.41733113609639       57.37645517001864       60.55870162126061
C           50.36623345720657       58.16899789930457       59.78093288624763
C           50.83891767360021       56.84707836131322       61.87513813764303
C           49.73004733714528       55.79088418670687       61.73664566332948
C           48.90856745873244       55.75835400570288       63.02418456311710
C           50.33096473564512       54.41812073220568       61.41233069377424
C           49.33904315720149       53.30030893249340       61.04885977617079
C           50.09332758960859       51.97038073266441       61.01778007405948
C           48.67214025625456       53.57341252028854       59.69610870382633
C           47.49729315471083       52.65599846500932       59.32053585423420
C           47.21030710830924       52.81191676045039       57.82841445510090
C           46.25824262986493       52.98040435824589       60.16711872474345
C           44.94789585912534       52.27920033386131       59.77216087784889
C           43.83496170912442       52.76311691802147       60.70232487017016
C           45.09504641195436       50.75602806724184       59.83816872323905
C           43.90149930739668       49.92771363845320       59.33768630430056
C           44.10901573695661       48.47347892821467       59.76051935125637
C           43.76245874518516       50.04164244339454       57.81493639646167
C           42.49903147699236       49.41466193863820       57.20568558009723
C           42.70527729167100       49.24665633037330       55.70043810529427
C           41.26451466367303       50.28075700770308       57.48402171177397
C           39.91201918442581       49.58305717087405       57.26732267427754
C           38.81809782078114       50.63412141459190       57.08004117335587
C           39.57327104414929       48.66259182173998       58.44532052835680
C           38.40358285833396       47.71744839833569       58.18059971527320
C           38.09333461148399       46.85454693176807       59.39826039694020
H           61.95444040276698       40.04091328751404       70.75356665949842
H           62.25931383697971       40.86959282962157       72.27928163607555
H           61.63800630571941       39.21868852081964       72.28134825574962
H           37.82971023591008       47.47808721820694       60.25041259982810
H           37.26043515519967       46.18524909492466       59.19348732730063
H           38.95595648709606       46.25282890348708       59.67576686027587
H           40.44932385935702       48.06033193261067       58.69544147102569
H           39.33503537469531       49.27852115083271       59.31624399543609
H           41.29763164344279       50.64504281963028       58.51296688985757
H           41.31834695011699       51.15376224887683       56.82823603388515
H           42.34663875065075       48.42207893481026       57.63543463943909
H           41.83140278290931       48.80175303738919       55.22886855018600
H           42.88966056227532       50.21206080357040       55.23336855082283
H           43.56060090723253       48.60439877757480       55.50208503849436
H           43.77914061705845       51.09508122691075       57.53066307706928
H           44.63782004897173       49.56825831108858       57.36169851074788
H           45.96561565733373       50.45481973759289       59.25492069604971
H           45.29121550052482       50.48837440406736       60.87911607764639
H           39.96344379612004       48.97595897462155       56.35680759940608
H           37.86151635003642       50.17259525983251       56.84774980816086
H           38.70147400594867       51.21833980408964       57.99116382656738
H           39.06785331402303       51.31110442430783       56.26590165240890
H           42.98789628674139       50.29035282131283       59.81518242382986
H           43.24249674865236       47.86276566494929       59.52650109646353
H           44.97491184823810       48.05103035160853       59.25520934916573
H           44.27929674531605       48.40492554478070       60.83291029138243
H           44.68649097427870       52.58017061202314       58.75382208527583
H           43.79597487510833       53.85094516652826       60.71738650813729
H           42.86516010735506       52.39457545551281       60.37804480385791
H           44.00943125330331       52.41810502275207       61.71948202168105
H           46.47139705424475       52.73629321424007       61.21066601501365
H           46.08325240013392       54.05931188809325       60.11589729840981
H           47.79337513346534       51.61917239710581       59.50351581626161
H           46.47260043858418       52.09051321785226       57.48755639305352
H           46.83375107580724       53.81183601439481       57.62349529062659
H           48.11999746272837       52.66448587551714       57.24958316936924
H           48.31383276292791       54.60415941484518       59.67159879984781
H           49.44020814762541       53.48222465430653       58.92508108536102
H           48.57191400282486       53.24055748866184       61.82677889458385
H           50.84591575591623       51.97956600188147       60.23241048279062
H           50.59752327675358       51.79305165801425       61.96575796262171
H           49.42125537266709       51.13558135471082       60.83568662429838
H           51.02794285576352       54.53105827474943       60.57836181845715
H           50.91442170302960       54.09136625395656       62.27837251635388
H           49.06331425808737       56.08692669795070       60.92458914828133
H           48.14094459105252       54.99064687566727       62.97852967855412
H           49.54340811425498       55.55829047954382       63.88431247254421
H           48.41671876679101       56.71576125165596       63.18106502260438
H           51.64156064648153       56.41768511791023       62.47867048399981
H           50.43790024965228       57.69942384672047       62.42887518408077
H           51.73582641549940       56.53832401905620       59.93251807616774
H           50.79657020735872       58.57688529555619       58.86912418290001
H           49.52477983451236       57.54426964633264       59.49751686546217
H           49.99279282904477       58.99625504777687       60.38325665130017
H           52.27298186562311       59.17072753918136       61.36684418611178
H           52.95422859520902       58.66867733268172       59.82476064936345
H           53.58700058535300       57.50817522595651       62.56224228607864
H           53.57533603210949       55.63919097688354       60.98168638083617
H           54.50010447611825       56.57671660860879       59.80462154263802
H           55.24414970922721       56.07737721565235       61.32093227605090
H           54.52078344148930       59.75999011699808       61.71090746766981
H           55.34493231204834       58.82512413352121       60.46955753216087
H           56.45321983398136       57.51053369351141       62.35866132288287
H           57.62790653302718       59.18880345593165       61.01166596288758
H           56.97663939614539       60.49299033479821       62.00071053671908
H           58.13859345934449       59.36157037753226       62.68893273407159
H           54.65523139728978       58.84305847948490       63.99549636230053
H           56.09568695190766       59.82533886127609       64.19232087369211
H           55.85208254251526       56.83442382548548       64.67610999081809
H           58.14231928671349       57.36859053454262       63.90971625206480
H           58.25769579819193       58.65778553966103       65.11291872858294
H           58.15022521395132       56.97244264261216       65.61636789519866
H           54.74549622267947       58.49073285689350       66.28737486702303
H           56.35532274076090       59.10755349597705       66.63406276869604
H           57.01123179295576       56.79478987997910       67.39296846934693
H           54.71905083691622       58.18390028842850       68.83355080228725
H           55.81483135506817       57.01047795225318       69.57012085544335
H           56.43401927704688       58.55300127182772       68.98608061165662
H           54.44436983336967       56.13332634667780       66.27461902388603
H           54.34768032608207       55.82418262035318       67.99662227885574
H           56.56771344646933       54.73370642154084       66.22783882532589
H           55.67057120384117       54.06208895682128       69.05965071176654
H           56.92207256881729       53.20137420010104       68.16804383170481
H           57.16243844059646       54.88795005568745       68.62016676126456
H           54.04733320150964       53.37325795473537       67.25728412414904
H           55.38756607610705       52.55605473277475       66.45791707398982
H           53.56141861680034       54.61718689469267       65.15642079594797
H           55.74515696311883       52.90448018019550       63.91144370078731
H           54.67584867043956       54.02616359606922       63.06582576547633
H           55.87212395211242       54.63979365046131       64.19578772799180
H           53.79305614049618       51.60150845316878       64.86892597967714
H           52.88072371463408       52.62994189587672       63.77032059949765
H           52.26452248850128       52.22993394939493       66.72696076945783
H           50.16270621788560       53.50844568464663       66.12345296773535
H           51.62016886653080       54.49553433006323       66.12005959063420
H           50.92411890846189       53.93775669002684       64.59618672305660
H           50.75736723348837       51.41605151308433       64.21825617208098
H           50.19691717134280       51.19815870647137       65.87063936311795
H           52.55309220388936       49.76870319849639       64.58254195244417
H           52.64756522458472       48.50115695353180       66.73477278082825
H           53.07438716218046       50.19030381855175       66.94936433000881
H           51.47947369682620       49.62100341090758       67.43345717481807
H           49.84406121819686       48.85086303461408       65.60577704313735
H           51.13605886146723       47.76540161486454       65.10834660864789
H           49.80704772598094       49.75535663364202       63.23367188209487
H           52.09230605123012       49.07628270932170       62.54325560807615
H           51.63882639991643       47.37730596262914       62.69546992482255
H           50.87482089499692       48.39510089643989       61.47230307187817
H           49.24798848698856       46.85030483117141       63.87277719771522
H           48.83661718722733       47.52280783846359       62.30106693072710
H           47.87338591778678       48.88091290532700       64.82875674549847
H           46.75745050469028       48.75072979071403       61.99670390871449
H           46.11968457846593       49.72646698966108       63.32595432014736
H           47.70406866969596       50.08644464670436       62.65149285036348
H           47.25713993290218       46.40587847499515       64.79370203513530
H           46.34792649161359       46.72219034129057       63.33269637687881
H           45.62222149992465       48.65778663246136       65.40821949211428
H           44.00279560850498       46.47482909986878       64.02878384504669
H           43.35485768980359       47.89740565714109       64.84280693899716
H           44.29756080128492       48.08029690996542       63.36397397773490
H           45.54163945265901       45.73394592615552       66.19390061506250
H           44.26428431566386       46.83558293091483       66.68116510011113
H           46.02904243380485       48.33770507211644       67.69540314595719
H           44.46245317883965       46.82063746763414       68.93674050126289
H           45.68084434096372       45.54831579526072       68.88192952326929
H           45.98828027185632       47.03784735602657       69.78004133417636
H           48.01574035833551       47.39110384095176       66.60038862609441
H           47.67711193875948       45.81084506417827       67.30695095374033
H           48.15814099557637       46.72314914425224       69.55886183809422
H           49.87042862544956       45.62399216112158       68.11635096259063
H           50.37449888793355       47.20855348011657       67.52595055599814
H           50.58437992475626       46.77714315461797       69.22317946487819
H           47.55200224333478       49.09058423949406       69.12027641763453
H           48.89179574538751       49.22668317876147       67.98387607891344
H           50.48070888983369       48.83379259002675       69.89785563758254
H           48.56841220862024       51.19839629660985       70.03948231111227
H           50.15096614337872       51.14631572641962       70.81303028637909
H           50.03018599318444       51.07763355742523       69.05603824499050
H           48.57307228894523       47.76106001687773       71.35713815916822
H           48.11689109853716       49.42341685082497       71.69788146755148
H           50.56215974190029       49.76287649441978       72.45857436509318
H           48.66994635328554       49.69167955139913       74.00618503771354
H           48.65560317623405       47.92848698708765       73.97084444908542
H           50.00452965264877       48.78503811344572       74.71431851341444
H           50.88899957567580       47.18443873475034       71.44844998411783
H           50.76077428033994       46.89056551473942       73.17251220247854
H           52.69668425165588       48.84636137666597       71.86799758769955
H           53.79927540861258       48.87061042279444       74.10000490339324
H           52.15980407120892       49.50735248360501       74.18012174384545
H           52.50076480678509       47.87256878797871       74.75025789181262
H           53.24507763159968       46.13553082315256       73.12937836863381
H           54.45471163707545       47.25309119575732       72.50659499067388
H           52.43486670414967       45.66081545932108       70.88544901110187
H           53.50111491993639       46.66583279359457       68.88300125248291
H           52.68506225127319       47.89680425467509       69.83139415401901
H           54.43703481694791       47.74868717750169       69.91342151599407
H           55.46394394387962       45.70259909843643       71.08318817547827
H           54.59125491378456       44.83039818042055       69.83102406433234
H           54.16447852850642       44.22942441377208       72.77603296829234
H           53.61537126395223       42.62529868239408       70.24416622783210
H           53.26333903858855       42.11432993348362       71.89526026204352
H           52.39275110819734       43.47271507798150       71.19341682206630
H           56.07047275740113       42.95843564512467       70.78237928317978
H           55.61710326620055       42.22301001047583       72.31724458713987
H           57.11319171583704       44.86152864132516       72.03135163939986
H           56.38115955873653       43.22214429934714       74.49162493102290
H           57.49052322281951       44.59288528308746       74.48174015535255
H           55.79349193674143       44.83889635593673       74.09454368148015
H           58.05205400124684       42.11072007452297       72.90816840699276
H           59.00691719252605       43.58899249954430       72.98530741359190
H           58.08663330794900       42.16312111114232       70.45852676719196
H           59.44665077088162       43.89766421026885       69.26518680507019
H           58.00050581831827       44.56303328623065       70.00345326540481
H           59.57288467441411       44.80681288944658       70.77004622973521
H           60.84627424628469       42.74123822246430       71.59855681806432
H           60.50879756272005       41.96125328302288       70.05610523963389
H           59.83698047048834       40.82553907165917       72.80027734194566
H           58.19540665284228       40.02160088944014       71.15165154926204
H           59.48405946200574       39.64303726272119       70.00864451078192
H           59.33747533444369       38.73192723858948       71.51232742489996
H           37.51132700390028       48.29069514377117       57.92250070838335
H           38.64196042133322       47.07408108607640       57.33041740371718
C           45.06970477433320       69.64960828092478       41.71464895389135
C           44.59564406721638       68.36605079748369       42.39681097925306
C           45.15618603709770       68.28815769467948       43.81481482797457
C           45.01507957392654       67.15949226971092       41.54915433800375
C           44.61998412824425       65.77677301930811       42.08668165060232
C           45.20546022640303       64.70462365294277       41.16797640144335
C           43.09646819737917       65.64346077422390       42.20381435967658
C           42.57436797955647       64.26596494504396       42.64019026654409
C           41.04647335826129       64.27346768253733       42.59344005882603
C           43.08563269209741       63.91705463341327       44.04125736656307
C           42.73587421612419       62.52108598970879       44.57440907577260
C           43.16805517264257       62.44884781994582       46.03915994428637
C           43.40181608679932       61.43238474792592       43.72315168165969
C           43.14199623063522       59.99604163890475       44.20976958522551
C           44.37977333337196       59.44122579892012       44.91259317621397
C           42.75381413389341       59.04778618006056       43.06675354959277
C           41.38172594768658       59.29608394428785       42.42921595762729
C           40.25290264651990       59.06851661462967       43.43511219537695
C           41.16711201454548       58.36302231907056       41.22689560619397
C           41.98457188439082       58.68963707246201       39.97173267671182
C           41.45855687295859       59.95431478431484       39.29366089679544
C           41.93407060307228       57.52086040313621       38.97525143130201
C           42.81717209069876       56.31909465676455       39.34111315013728
C           44.28598240001995       56.64629550663975       39.07402289220110
C           42.40912387057229       55.06462065661194       38.54522822345450
C           41.50950869820212       54.04989490967247       39.27004242519384
C           40.13490048825736       54.63381870731494       39.59762139309756
C           42.12224791550672       53.47406073455947       40.55398658024905
C           43.50523882859342       52.82611133994686       40.42448727495249
C           43.45181904367383       51.57627908004908       39.54799138821918
C           44.04722433299260       52.46349941261669       41.81581297219090
C           44.60853580070644       53.65343842721335       42.60948350761495
C           46.00167535033766       54.01468022400992       42.09898004469940
C           44.64710969561809       53.31029837362802       44.10446774870561
C           44.91814369059894       54.49196547294024       45.04273841145379
C           45.28120298092813       53.96318140667997       46.42815796156227
C           43.77506177912545       55.51716239559356       45.12489767731936
C           42.40052181832669       55.00833695190379       45.59511771904416
C           41.47253267482125       54.75237515062466       44.40611036654351
C           41.72162777755671       56.01715866908883       46.53767588560336
C           42.28815621994252       56.07617577113577       47.96176124930393
C           41.90325918268250       54.82679601534384       48.75357420994306
C           41.76595287501252       57.31147986666255       48.71432081161194
C           42.33602172329231       58.66109066800425       48.26335055674718
C           43.82596868024773       58.75556136999450       48.58960124463298
C           41.61772647054983       59.83653665014447       48.94522764837289
C           40.11255098610562       59.97898170558342       48.68602113087550
C           39.79035263558590       59.92225255283069       47.19262251625754
C           39.58301742071831       61.31446778757190       49.23506720727242
C           39.79869846067943       61.58254578266404       50.72828541824599
C           39.24079134051257       60.45305128495146       51.59216732353710
C           39.12798048693210       62.89699093561963       51.15400080378483
C           39.61638032664651       64.17688360344579       50.46520450253352
C           41.11915966925926       64.36902713840077       50.65003136107845
C           38.84646631835289       65.37774744535376       51.03630412414486
C           38.88477141769862       66.63049895937270       50.14836744249771
C           38.60569341053445       67.87513231046280       50.98815639309652
C           37.89475724426538       66.49559402406310       48.98439331539877
C           38.07928675713909       67.52568990711016       47.85142175671674
C           37.01533289721449       68.62212877338365       47.94459605683546
C           38.00337260115311       66.87469057726679       46.45731201100943
C           39.32932271433553       66.40976936102047       45.83363272979224
C           40.05086764885888       65.37637369888803       46.69596299552118
C           40.29165610743154       67.56056991421276       45.50633875097235
C           39.76457119068210       68.62815367187251       44.53989826243763
C           39.26538548573851       68.01140703900121       43.23160997079094
C           40.86289511143111       69.64544387826294       44.19734860166908
C           41.40879637758806       70.50925216006067       45.34303562802890
C           40.30748617905266       71.35267288672325       45.97910600883255
C           42.52967287073058       71.39034084550018       44.77165778344954
C           43.40312671546080       72.13177750557389       45.79264836355232
C           44.36354182841485       73.05563615905371       45.04118928237935
C           44.17579224985816       71.16690582379216       46.71282806472838
C           43.85219675458851       71.35251003042278       48.20070523786610
C           44.54240585437210       72.60306054579296       48.74343072989566
C           44.27056622167112       70.12478412261814       49.02037534216185
C           43.29591992424628       68.94367509662673       48.92579499739465
C           42.04344903226007       69.21433968745401       49.75715018220433
C           43.96685895633645       67.64970670578434       49.40464175240967
C           44.91801504500943       67.02545244122697       48.37419027341158
C           44.13602865750990       66.14106526579673       47.40392530419063
C           46.01349438694609       66.20367927987625       49.06450735613819
C           47.09882166987458       67.04706054888214       49.74763574993104
C           48.07237021125682       67.61119139861852       48.71626931442935
C           47.82475574264638       66.19238701590800       50.79392762818220
C           48.88674906294119       66.91759141269550       51.62871990550229
C           49.51631717092476       65.93778270642976       52.61812388618984
C           48.35919536280214       68.16666965010548       52.34857326479974
C           47.16765151121640       67.93912264193673       53.27544915034953
C           46.76454492958291       69.22787826600198       53.98279771942435
H           46.15555727904256       69.66751635867494       41.64687812293207
H           44.66538793895413       69.72377506537678       40.70699469202290
H           44.74905260247952       70.52648150696757       42.27362890281379
H           47.58380722752896       69.60227324787154       54.59222758124714
H           46.49883224246456       69.99800421508097       53.26029893771495
H           45.90578476263110       69.06035669042350       54.63033464831138
H           49.17935924239379       68.58282994645478       52.93980064075870
H           48.08480880835835       68.92011252204168       51.60587819403118
H           47.08159967833022       65.76573054194996       51.47212639335575
H           48.30798208495914       65.35816545415967       50.27856026131656
H           46.61470581150139       67.88686149844118       50.25489810872065
H           47.53835583812362       68.12942708355467       47.92262318341907
H           48.75604423222818       68.31924014246552       49.17498732747344
H           48.65830147096881       66.81309745385134       48.26476420338829
H           45.53588800416145       65.55744266255279       49.80401973902935
H           46.49277781260213       65.55275158966946       48.33058194160281
H           44.50349134178405       67.86961598456612       50.32937130348123
H           43.19799110146005       66.91320763644691       49.65081408831747
H           49.68438668594936       67.25256425153056       50.95492833762068
H           49.98653299655928       65.11525871706067       52.08522683202890
H           50.27553222903015       66.43464079926892       53.21835066577104