3536
 energy: -3716.246491863720 gnorm: 0.000983020949 xtb: 6.6.1 (8d0f1dd)
C           61.59083474299242       40.17843200817421       71.76969617280336
C           60.15931386845385       40.71564790369744       71.75899467642866
C           59.23452178643141       39.71899197113092       71.06441151084917
C           60.14015846079921       42.08869029699792       71.07715581838110
C           58.78219456108743       42.80331939416623       71.00654068039580
C           58.95939514673527       44.09961258130902       70.21639968501600
C           58.23238027024826       43.06842368114184       72.41435783267160
C           56.93975664114960       43.89510795074079       72.50806763305542
C           56.62858359916654       44.15264860117285       73.98270115512527
C           55.77801250018539       43.17927937017846       71.80939457278541
C           54.43797267844277       43.93087867074548       71.76098903384712
C           53.36010388537277       42.97881533524149       71.24042354805751
C           54.53550180372703       45.17298610137043       70.86765972013093
C           53.38780489007839       46.18913174233262       70.98657725504781
C           53.50838123048533       47.18879771508455       69.83696226856553
C           53.43671440212376       46.88183715397548       72.35511177626857
C           52.47523057422648       48.05665391503124       72.59202171759236
C           52.74686736355325       48.61259003388819       73.99033987105841
C           51.00601751090431       47.65038368237804       72.42657577797983
C           50.00943575744882       48.82188936250397       72.54042362731403
C           49.29461932162614       48.80605156485482       73.89215700729169
C           48.95716808904061       48.78021174407430       71.42081735250058
C           49.47426200814839       49.23129026632543       70.04877497398466
C           49.56215234778665       50.75681561775349       69.98655891308583
C           48.56618901634691       48.74354520653504       68.91015339839416
C           48.53331771288686       47.23026111160282       68.66567355628824
C           49.92745752669229       46.68028407055866       68.36538987351231
C           47.61527345879879       46.88955969590161       67.48078926413611
C           46.13197354669743       47.25035069851752       67.62122590249251
C           45.53276365791211       46.62727279568914       68.88328766045927
C           45.31991606356131       46.78417305942130       66.40001818855856
C           45.49115911706056       47.61121678820734       65.11361119343145
C           44.20719712149509       47.51275975919995       64.28686494003492
C           46.70157118529693       47.17748264709818       64.26095322163803
C           47.66158668138598       48.32312940254224       63.91079268936729
C           47.02040157540773       49.28195607369906       62.91058411710456
C           48.98432884369976       47.77586660120691       63.35374810066233
C           50.16412178461542       48.75373092373891       63.48171808903157
C           51.26194521956006       48.37669101552186       62.48868935993532
C           50.69035251468991       48.74561382736834       64.92194430769196
C           51.72302948210934       49.82105356023852       65.29117819333183
C           52.26421891809553       49.51764843569232       66.68748771192600
C           51.08927589236981       51.21488236588360       65.23849503707135
C           51.96561566098043       52.39344585542785       65.68844683854041
C           51.12016674276156       53.66463438560607       65.63013411156622
C           53.21341057523152       52.52420730335430       64.80778368208584
C           54.15131105779772       53.69775713501625       65.13465133668683
C           55.17758383770965       53.82555842647646       64.01089212210920
C           54.82339871105214       53.49223812321029       66.49806922600528
C           55.77596581056279       54.60112770697776       66.97098643287090
C           56.42529128516735       54.16366825328134       68.28311870193602
C           55.04358624364860       55.93349407508720       67.16114419262831
C           55.97260317452891       57.13754942817034       67.40994331959259
C           55.71857354963255       57.75772922025386       68.78432961989462
C           55.80223530425457       58.21506080020995       66.33082941229971
C           56.27629295447700       57.81131026338287       64.92759827732444
C           57.79816301871463       57.69766527327751       64.88635540598219
C           55.74365704878470       58.83099923841173       63.91013194167583
C           56.13292266325961       58.55300244033602       62.44742502402677
C           57.29237937298046       59.45196365271055       62.01345335547225
C           54.95480138061120       58.78104433526904       61.49008169950443
C           53.84526058132425       57.71870379188479       61.52060872818663
C           54.31858756404045       56.42324809146063       60.86709679703191
C           52.61975346073810       58.30148725548700       60.79979114486232
C           51.41745665362723       57.37548762221180       60.55865429397810
C           50.36606508065203       58.16883255781705       59.78147350399792
C           50.83906449063621       56.84656085557462       61.87560760824042
C           49.72947722722984       55.79081536994711       61.73667862495674
C           48.90857273538639       55.75822714231516       63.02476537111322
C           50.33091888784718       54.41793451698423       61.41227735965357
C           49.33848058054192       53.29996007533737       61.04985057442864
C           50.09340095387830       51.97016891281222       61.01799320429217
C           48.67150948034926       53.57327175931241       59.69682400659485
C           47.49664362628087       52.65522328508245       59.32156837451758
C           47.20983094966987       52.81184411762537       57.82914828442106
C           46.25746438093854       52.98019434580297       60.16808413314436
C           44.94687948690816       52.27933524040857       59.77223405784417
C           43.83449552095560       52.76288725905687       60.70339527061585
C           45.09453107660154       50.75583546353158       59.83839105808443
C           43.90056607522916       49.92748994182606       59.33805493346465
C           44.10891501279276       48.47327201042147       59.76086995458943
C           43.76184267754836       50.04130158762678       57.81496697523193
C           42.49811537977339       49.41407530285399       57.20572319041892
C           42.70497758731528       49.24614633739856       55.70034103760000
C           41.26382796597842       50.28070025217168       57.48393239192647
C           39.91129389305266       49.58261293490904       57.26711821306532
C           38.81792773972558       50.63425400303029       57.08045535522890
C           39.57327263498289       48.66242882789047       58.44569061179373
C           38.40358558925757       47.71727266266552       58.18054599525425
C           38.09395121028385       46.85484193294679       59.39852166979347
H           61.95518743786130       40.04151443023591       70.75328079512725
H           62.25822405805486       40.86996214509536       72.27935878587162
H           61.63693259648435       39.21914998668412       72.28059940512723
H           37.82959217551605       47.47871158648935       60.25002900408604
H           37.26173234882798       46.18544158682236       59.19289219681846
H           38.95652242597085       46.25349749114726       59.67710111631347
H           40.44998555544370       48.06115836847918       58.69604134956861
H           39.33516749789852       49.27909166253376       59.31580069027686
H           41.29827573360365       50.64485002281329       58.51273319845620
H           41.31927506088670       51.15333521731194       56.82800273841320
H           42.34709737485117       48.42202541674798       57.63567479778785
H           41.83077763999039       48.80222644885988       55.22978406029715
H           42.89055706528695       50.21157045215753       55.23373959798071
H           43.56023667005475       48.60346358558373       55.50292951362600
H           43.77891176235454       51.09478300532995       57.53085930670061
H           44.63760364670802       49.56800456956256       57.36249068463604
H           45.96510026517636       50.45485022978718       59.25499447966229
H           45.29051871624039       50.48886754691681       60.87922980850237
H           39.96402791037863       48.97632358995498       56.35699563490513
H           37.86240807919820       50.17160808559824       56.84852275652203
H           38.70205898613457       51.21784240623502       57.99185569124164
H           39.06809399162272       51.31067415895182       56.26608470594024
H           42.98801427494840       50.29051470943216       59.81555286196694
H           43.24244626409198       47.86336905740725       59.52632827804842
H           44.97507791743327       48.05188497454809       59.25516927902732
H           44.27945603062175       48.40542369951324       60.83305300748937
H           44.68670095955347       52.58026988605248       58.75404771014774
H           43.79630542427475       53.85060874207235       60.71892760546375
H           42.86568411384236       52.39407225911658       60.37781341114615
H           44.01053001467928       52.41615942857253       61.71945563198086
H           46.47080166832585       52.73535056094030       61.21097014405120
H           46.08344620916470       54.05877206843525       60.11589049421717
H           47.79344448719977       51.61923242153761       59.50407652344219
H           46.47192079647616       52.09066025279213       57.48886584178292
H           46.83370173366258       53.81199809572118       57.62514330547521
H           48.11971004018172       52.66421755092567       57.25063284210990
H           48.31307146176114       54.60367786047288       59.67251304504448
H           49.43945006201222       53.48180398584952       58.92584790701527
H           48.57214981452449       53.24058766993867       61.82738735435916
H           50.84556056709727       51.98031896612705       60.23225948977013
H           50.59802491824381       51.79363378265928       61.96560266310455
H           49.42104792749559       51.13592428115627       60.83579473795035
H           51.02703002798388       54.53064209206136       60.57783978013132
H           50.91407007169146       54.09136958130286       62.27794329734463
H           49.06348025641129       56.08696052790066       60.92463740034903
H           48.14152306568606       54.99035319763563       62.97831403067194
H           49.54442550131301       55.55826232403594       63.88394361152860
H           48.41734463026169       56.71582960231572       63.18042000968757
H           51.64136922454880       56.41662503797075       62.47843442605242
H           50.43767108579241       57.69884560113916       62.42822140171445
H           51.73593326630321       56.53783874354933       59.93264030237766
H           50.79677413700408       58.57669238823680       58.86994278560655
H           49.52492002428092       57.54381547042035       59.49810519262330
H           49.99362830092855       58.99522624514737       60.38493307425659
H           52.27179282226803       59.16958372343899       61.36715129345298
H           52.95413705475840       58.66779505348722       59.82530904135175
H           53.58638337708889       57.50757201517126       62.56268164141750
H           53.57487169543565       55.63894629188022       60.98243915970428
H           54.49909669584536       56.57719494281726       59.80531917840509
H           55.24386251383751       56.07790472446472       61.32148124468469
H           54.52004274756701       59.75919764311015       61.71144356931922
H           55.34408368086332       58.82394612341185       60.47021981462817
H           56.45260323885327       57.51051897245105       62.35904370785629
H           57.62669104788051       59.18843345873223       61.01214971933553
H           56.97461074537107       60.49285620841025       62.00074263721029
H           58.13682736653932       59.36170542951787       62.68990198631368
H           54.65477259485623       58.84395716815099       63.99550011257008
H           56.09640769399641       59.82473222460698       64.19225943598242
H           55.85099966596358       56.83439780035913       64.67561528869690
H           58.14184287228660       57.36805808683455       63.90947202305796
H           58.25602065334246       58.65780663257755       65.11286860247905
H           58.14900506583223       56.97185947729351       65.61598478149978
H           54.74551842446544       58.49082629999965       66.28666226557758
H           56.35587078449220       59.10718575114713       66.63269005852992
H           57.01087981901316       56.79539382713103       67.39251204791211
H           54.71826510034895       58.18418293189865       68.83218180025062
H           55.81415083574701       57.01070401352435       69.56902146486934
H           56.43336551610408       58.55353204277272       68.98493507305113
H           54.44413892955895       56.13377323006274       66.27485435476612
H           54.34873330050478       55.82365865534778       67.99667403828134
H           56.56769402888753       54.73366223194136       66.22731241752614
H           55.66892817055403       54.06327351589686       69.05857947665920
H           56.92157323305889       53.20234694603192       68.16833167407742
H           57.16121162468608       54.88964229685422       68.62003446534492
H           54.04735812212225       53.37453190113893       67.25711164048647
H           55.38737614083121       52.55665371496227       66.45776304357189
H           53.56157240226566       54.61700215653376       65.15552365343234
H           55.74484672844476       52.90337869380186       63.91236718134710
H           54.67629507271631       54.02571117680748       63.06618526715632
H           55.87334130075453       54.63875060334778       64.19607728158041
H           53.79405936869239       51.60168941072352       64.86955575387803
H           52.88184951866462       52.62943502105249       63.77050258651364
H           52.26488825918064       52.22958517121447       66.72654772306900
H           50.16366693909158       53.50839656053870       66.12280977392938
H           51.62161946052468       54.49531265377917       66.11920337140172
H           50.92545161466776       53.93695006809151       64.59531681810434
H           50.75787543946012       51.41679691333708       64.21804122681746
H           50.19801876672147       51.19823863889650       65.87061065279805
H           52.55340136490464       49.76901833813258       64.58195950157103
H           52.64710543061856       48.50169059952702       66.73447164174247
H           53.07400008469954       50.19099966079177       66.94923791904802
H           51.47824460081507       49.62195909180533       67.43192276241689
H           49.84480051521611       48.85197976454889       65.60512728573562
H           51.13679597144360       47.76617748384086       65.10761841485925
H           49.80762330955951       49.75565777475786       63.23326843389169
H           52.09300084609408       49.07523895311855       62.54313407202051
H           51.63725234475991       47.37613103811869       62.69517647277577
H           50.87514829389452       48.39522272046488       61.47184927559411
H           49.24878277814204       46.85134898673271       63.87335551201519
H           48.83740277247576       47.52314870350855       62.30126452946101
H           47.87405139879068       48.88148118632142       64.82833759950012
H           46.75765104811417       48.75136263861604       61.99715275122344
H           46.11993932917742       49.72728344310546       63.32687501998581
H           47.70426906311036       50.08725776588682       62.65208151616554
H           47.25765964030298       46.40696116382119       64.79377434793548
H           46.34807292364543       46.72306835546497       63.33272556882218
H           45.62323744183915       48.65843251783456       65.40762854315075
H           44.00407417458196       46.47535441403431       64.02853917524537
H           43.35540844438106       47.89736699725107       64.84360060445692
H           44.29769352212586       48.08144316540698       63.36455652043713
H           45.54357166482551       45.73514413598317       66.19315761247640
H           44.26534433611381       46.83590025209577       66.68082989118577
H           46.03036265362213       48.33848149160411       67.69451560042339
H           44.46332835717850       46.82128956927600       68.93577088943108
H           45.68244814544533       45.54932243806801       68.88074261652136
H           45.98902731543561       47.03908065191601       69.77943199571584
H           48.01704231551374       47.39098313545722       66.60063148727087
H           47.67699216134532       45.81135024698184       67.30741724469323
H           48.15795968754321       46.72321803081699       69.55849691911445
H           49.87002698892317       45.62297893815745       68.11790958855534
H           50.37468286200244       47.20668201818113       67.52620850171745
H           50.58427217802353       46.77696433208632       69.22370878620039
H           47.55236630520915       49.08970155501989       69.12165821131372
H           48.89145174217980       49.22690877018409       67.98449837971117
H           50.48110606530744       48.83393721825098       69.89757619158038
H           48.56741825050386       51.19674744919573       70.04062943544052
H           50.15001725917455       51.14532787284947       70.81453119297389
H           50.02961512940688       51.07845351010980       69.05738686246593
H           48.57421714378442       47.76059414763670       71.35715919113922
H           48.11780886839152       49.42335185506555       71.69769891017162
H           50.56261425511179       49.76274052782644       72.45799470271332
H           48.67054394561433       49.69055109992515       74.00573025909610
H           48.65677865532344       47.92727258371293       73.96902975161385
H           50.00533125285397       48.78385297153963       74.71352690948447
H           50.88898610481891       47.18330534385377       71.44902064843744
H           50.76221145389815       46.89190572161426       73.17366717636079
H           52.69704338144141       48.84631884387506       71.86695615131431
H           53.79914287604766       48.87050194791330       74.09970630982885
H           52.15921741718810       49.50680538817576       74.17970251143214
H           52.50041981359923       47.87143537185575       74.74836548757398
H           53.24394277259179       46.13584531986888       73.12912820546713
H           54.45496257341551       47.25263950059979       72.50671333301072
H           52.43540531014339       45.66068829095001       70.88507180585873
H           53.50167443321046       46.66600138298980       68.88318567556664
H           52.68545651414738       47.89681245393901       69.83152142178994
H           54.43730582571790       47.74858552572561       69.91360830451316
H           55.46401797272529       45.70307475988410       71.08367796251319
H           54.59170069012883       44.83168967443155       69.83104337608815
H           54.16515127211176       44.22921720825387       72.77527106209958
H           53.61534886921842       42.62620356890238       70.24268099803824
H           53.26443273338673       42.11408989333324       71.89362173385082
H           52.39292301785341       43.47242134218886       71.19276299610382
H           56.07059664619239       42.95872487900467       70.78142696172651
H           55.61780142763083       42.22401325953542       72.31681466569147
H           57.11393394935190       44.86217186252972       72.03039475126735
H           56.38049647973109       43.22194351929515       74.48915610233708
H           57.49055512722882       44.59226371521470       74.48054405496462
H           55.79387930943439       44.83958201040381       74.09303585828354
H           58.05130618099086       42.11108111990656       72.90720885395420
H           59.00695170216830       43.58923796740992       72.98425454947927
H           58.08689775955726       42.16326577865942       70.45782854893616
H           59.44715589711735       43.89793540353741       69.26518350573858
H           58.00148291105045       44.56393804004659       70.00359986470650
H           59.57387763973140       44.80597582084352       70.77075209603483
H           60.84576515475978       42.74160615619154       71.59831775992889
H           60.50885913986693       41.96237578047811       70.05544724918059
H           59.83665990904354       40.82615079144573       72.79899181780975
H           58.19489208158868       40.02153115032090       71.15170944431175
H           59.48314567800930       39.64312781188099       70.00789355064225
H           59.33766266443967       38.73252316669032       71.51187293308870
H           37.51226973565417       48.29147818338174       57.92351800940123
H           38.64240056496754       47.07470868135824       57.33027497916233
C           45.06993694442883       69.64965447060435       41.71451094323222
C           44.59544328336612       68.36636127079278       42.39660338600675
C           45.15568503849907       68.28833720826185       43.81513385855202
C           45.01517539543767       67.15966654020666       41.54915823372645
C           44.62028727444876       65.77699931652654       42.08742745503329
C           45.20528040310371       64.70487406507560       41.16783492316222
C           43.09658825278359       65.64380316026421       42.20401550103951
C           42.57460802475035       64.26579048294936       42.63906059926269
C           41.04681410528016       64.27339120193166       42.59357347358009
C           43.08637311845195       63.91714056732167       44.04036748613846
C           42.73515431199660       62.52147874353064       44.57353347706871
C           43.16704122482155       62.44909577912441       46.03867176975848
C           43.40120354781929       61.43261728336683       43.72240584181389
C           43.14075585796571       59.99622896301608       44.20888364375605
C           44.37888452037134       59.44129151446612       44.91196552718684
C           42.75323341421414       59.04788660321383       43.06560961654070
C           41.38092856644081       59.29690725034465       42.42834633591857
C           40.25261200189097       59.06919193948886       43.43464122654878
C           41.16693336101601       58.36332281452769       41.22642162210025
C           41.98529993601255       58.69023827892456       39.97177897212588
C           41.45898323807160       59.95469785386335       39.29373107964803
C           41.93436300831530       57.52137981042674       38.97537678885121
C           42.81731880258558       56.31964140628215       39.34185402318254
C           44.28625574488767       56.64722688076443       39.07450760097600
C           42.40970729858381       55.06548998918752       38.54527912910634
C           41.50994549343815       54.05078527978018       39.26962730469108
C           40.13560281301377       54.63480908706540       39.59707112623868
C           42.12186905185308       53.47486957849557       40.55396674414752
C           43.50496830002557       52.82706069513200       40.42395945483528
C           43.45109638416709       51.57687740982525       39.54839494840550
C           44.04676998707401       52.46359732654192       41.81524164187838
C           44.60780780720410       53.65372611157566       42.60887406518025
C           46.00143189815834       54.01456068592675       42.09864564153924
C           44.64603470053203       53.31007016921085       44.10389951931289
C           44.91772094234635       54.49189210515677       45.04200666478059
C           45.28072728372860       53.96241905556138       46.42768685640946
C           43.77426462605990       55.51706486591888       45.12463917007043
C           42.39943874282266       55.00773608632497       45.59450084656668
C           41.47167619892728       54.75292933099283       44.40520992570100
C           41.72083776480438       56.01714164366650       46.53684296121276
C           42.28794073877703       56.07601388124684       47.96086635076752
C           41.90184900715316       54.82710916377074       48.75317813209426
C           41.76493609411283       57.31112379304798       48.71372644563840
C           42.33473621189313       58.66085897361188       48.26268687971170
C           43.82512397957731       58.75534078017807       48.58922137701615
C           41.61660727754702       59.83642887630568       48.94501750806099
C           40.11114708176328       59.97872833000176       48.68561179810091
C           39.79003644398211       59.92270100787110       47.19206274736973
C           39.58259774448258       61.31464377803893       49.23467531513259
C           39.79858615054228       61.58241385552341       50.72812083725180
C           39.23963643934281       60.45255459632639       51.59125204530898
C           39.12690344306304       62.89659918557613       51.15380063468385
C           39.61501747218684       64.17664787404419       50.46503525937575
C           41.11817766661681       64.36900066613018       50.65027827954495
C           38.84561023192462       65.37756304936629       51.03659681263473
C           38.88507055271732       66.62995327131520       50.14802479198810
C           38.60586335090139       67.87430186402821       50.98794493049130
C           37.89476254104627       66.49546459871928       48.98421295430498
C           38.08032596800528       67.52611467562615       47.85179177351890
C           37.01609074482075       68.62201825733558       47.94488425874024
C           38.00385858757065       66.87525375630509       46.45768064872958
C           39.32931602764832       66.41026659124684       45.83344488291723
C           40.05087551402688       65.37639574160973       46.69574612532214
C           40.29204262316854       67.56114252348610       45.50686163702085
C           39.76463704796156       68.62864764647502       44.54022405772459
C           39.26589087344390       68.01143035993438       43.23224005205373
C           40.86323612374162       69.64557223495467       44.19765322318226
C           41.40912858151522       70.50886711213549       45.34389797069561
C           40.30772986382777       71.35254578935037       45.97928119336282
C           42.52970425068700       71.39020959278361       44.77194158392628
C           43.40312212135000       72.13160684958207       45.79292687668158
C           44.36369279373407       73.05506434965584       45.04155564262711
C           44.17601982831989       71.16649175385693       46.71299025326490
C           43.85170164693249       71.35236154369230       48.20081702921519
C           44.54214849935225       72.60248590112279       48.74340243724882
C           44.27061648471076       70.12481171491747       49.02070127218393
C           43.29539141628700       68.94403813815461       48.92517380883837
C           42.04254972198585       69.21393678432199       49.75610664226558
C           43.96616567385880       67.65002669398204       49.40473022612624
C           44.91752246795181       67.02640989068648       48.37394435623620
C           44.13598376231123       66.14131726944240       47.40365953082969
C           46.01307917100378       66.20421325694275       49.06419498495115
C           47.09837832317390       67.04826400533845       49.74705792810304
C           48.07173548742935       67.61238803441410       48.71525541922208
C           47.82403442615065       66.19303584697728       50.79358443885855
C           48.88639098228896       66.91856453318347       51.62830770869012
C           49.51566565398009       65.93824649382292       52.61817404969066
C           48.35815075811335       68.16731608203642       52.34846988641812
C           47.16653294083915       67.93926825738546       53.27558338955035
C           46.76397332488166       69.22896944592270       53.98179518643933
H           46.15575255915610       69.66747486509473       41.64679151951181
H           44.66538507105187       69.72277748698086       40.70729576513986
H           44.74896947729959       70.52604912186544       42.27366271309357
H           47.58346252905060       69.60307387338774       54.59097946584433
H           46.49901874937451       69.99718801000814       53.25758257715294
H           45.90527291662369       69.06124174843272       54.62870913727767
H           49.17867959455207       68.58255759740555       52.93934281243637
H           48.08366962803267       68.91935234060863       51.60531826990628
H           47.08106572431399       65.76727866286897       51.47212530312265
H           48.30708317880563       65.35837766594885       50.27869051331875
H           46.61453935487351       67.88707850910006       50.25440663790159
H           47.53659350729422       68.13036749532280       47.92262231555546
H           48.75560626582143       68.31974204510001       49.17432521527482
H           48.65724246508090       66.81432401454371       48.26270753020179
H           45.53598304620368       65.55829788920170       49.80418187118619
H           46.49264707832539       65.55320165924253       48.33055322079404
H           44.50307304797649       67.86943504060194       50.32922679662934
H           43.19817737160929       66.91267166332933       49.65019236106992
H           49.68393008515253       67.25245757617367       50.95471068505725
H           49.98603087519105       65.11494333648348       52.08619246893431
H           50.27479386768696       66.43490006290980       53.21877697035652