      -----------------------------------------------------------      
     |                   =====================                   |     
     |                           x T B                           |     
     |                   =====================                   |     
     |                         S. Grimme                         |     
     |          Mulliken Center for Theoretical Chemistry        |     
     |                    University of Bonn                     |     
      -----------------------------------------------------------      

   * xtb version 6.6.1 (8d0f1dd) compiled by 'stahn@M-Bot' on 2023-08-01

   xtb is free software: you can redistribute it and/or modify it under
   the terms of the GNU Lesser General Public License as published by
   the Free Software Foundation, either version 3 of the License, or
   (at your option) any later version.
   
   xtb is distributed in the hope that it will be useful,
   but WITHOUT ANY WARRANTY; without even the implied warranty of
   MERCHANTABILITY or FITNESS FOR A PARTICULAR PURPOSE.  See the
   GNU Lesser General Public License for more details.
   
   Cite this work as:
   * C. Bannwarth, E. Caldeweyher, S. Ehlert, A. Hansen, P. Pracht,
     J. Seibert, S. Spicher, S. Grimme, WIREs Comput. Mol. Sci., 2020, 11,
     e01493. DOI: 10.1002/wcms.1493
   
   for GFN2-xTB:
   * C. Bannwarth, S. Ehlert and S. Grimme., J. Chem. Theory Comput., 2019,
     15, 1652-1671. DOI: 10.1021/acs.jctc.8b01176
   for GFN1-xTB:
   * S. Grimme, C. Bannwarth, P. Shushkov, J. Chem. Theory Comput., 2017,
     13, 1989-2009. DOI: 10.1021/acs.jctc.7b00118
   for GFN0-xTB:
   * P. Pracht, E. Caldeweyher, S. Ehlert, S. Grimme, ChemRxiv, 2019, preprint.
     DOI: 10.26434/chemrxiv.8326202.v1
   for GFN-FF:
   * S. Spicher and S. Grimme, Angew. Chem. Int. Ed., 2020, 59, 15665-15673.
     DOI: 10.1002/anie.202004239
   
   for ALPB and GBSA implicit solvation:
   * S. Ehlert, M. Stahn, S. Spicher, S. Grimme, J. Chem. Theory Comput.,
     2021, 17, 4250-4261. DOI: 10.1021/acs.jctc.1c00471
   
   for DFT-D4:
   * E. Caldeweyher, C. Bannwarth and S. Grimme, J. Chem. Phys., 2017,
     147, 034112. DOI: 10.1063/1.4993215
   * E. Caldeweyher, S. Ehlert, A. Hansen, H. Neugebauer, S. Spicher,
     C. Bannwarth and S. Grimme, J. Chem. Phys., 2019, 150, 154122.
     DOI: 10.1063/1.5090222
   * E. Caldeweyher, J.-M. Mewes, S. Ehlert and S. Grimme, Phys. Chem. Chem. Phys.
     2020, 22, 8499-8512. DOI: 10.1039/D0CP00502A
   
   for sTDA-xTB:
   * S. Grimme and C. Bannwarth, J. Chem. Phys., 2016, 145, 054103.
     DOI: 10.1063/1.4959605
   
   in the mass-spec context:
   * V. Asgeirsson, C. Bauer and S. Grimme, Chem. Sci., 2017, 8, 4879.
     DOI: 10.1039/c7sc00601b
   * J. Koopman and S. Grimme, ACS Omega 2019, 4, 12, 15120-15133.
     DOI: 10.1021/acsomega.9b02011
   
   for metadynamics refer to:
   * S. Grimme, J. Chem. Theory Comput., 2019, 155, 2847-2862
     DOI: 10.1021/acs.jctc.9b00143
   
   for SPH calculations refer to:
   * S. Spicher and S. Grimme, J. Chem. Theory Comput., 2021, 17, 1701-1714
     DOI: 10.1021/acs.jctc.0c01306
   
   with help from (in alphabetical order)
   P. Atkinson, C. Bannwarth, F. Bohle, G. Brandenburg, E. Caldeweyher
   M. Checinski, S. Dohm, S. Ehlert, S. Ehrlich, I. Gerasimov, C. Hölzer
   A. Katbashev, J. Koopman, C. Lavigne, S. Lehtola, F. März, M. Müller,
   F. Musil, H. Neugebauer, J. Pisarek, C. Plett, P. Pracht, F. Pultar,
   J. Seibert, P. Shushkov, S. Spicher, M. Stahn, M. Steiner, T. Strunk,
   J. Stückrath, T. Rose, and J. Unsleber
   
 * started run on 2024/10/04 at 20:15:11.290     

           -------------------------------------------------
          |                Calculation Setup                |
           -------------------------------------------------

          program call               : /home/abt-grimme/AK-bin/xtb input.xyz --input input.inp --opt
          hostname                   : boar031.thch.uni-bonn.de
          coordinate file            : input.xyz
          omp threads                :                     8

   ID    Z sym.   atoms
    1    6 C      1-146, 294-300, 306, 309-314, 323-468, 616-622, 628,
                  631-636, 645-790, 938-944, 950, 953-958, 967-1112,
                  1260-1266, 1272, 1275-1280, 1289-1434, 1582-1588, 1594,
                  1597-1602, 1611-1756, 1904-1910, 1916, 1919-1924,
                  1933-2078, 2226-2232, 2238, 2241-2246, 2255-2400,
                  2548-2554, 2560, 2563-2568, 2577-2722, 2870-2876, 2882,
                  2885-2890, 2899-3044, 3192-3198, 3204, 3207-3212,
                  3221-3366, 3514-3520, 3526, 3529-3534, 3543-3688,
                  3836-3842, 3848, 3851-3856
    2    1 H      147-293, 301-305, 307, 308, 315-322, 469-615, 623-627, 629,
                  630, 637-644, 791-937, 945-949, 951, 952, 959-966,
                  1113-1259, 1267-1271, 1273, 1274, 1281-1288, 1435-1581,
                  1589-1593, 1595, 1596, 1603-1610, 1757-1903, 1911-1915,
                  1917, 1918, 1925-1932, 2079-2225, 2233-2237, 2239, 2240,
                  2247-2254, 2401-2547, 2555-2559, 2561, 2562, 2569-2576,
                  2723-2869, 2877-2881, 2883, 2884, 2891-2898, 3045-3191,
                  3199-3203, 3205, 3206, 3213-3220, 3367-3513, 3521-3525,
                  3527, 3528, 3535-3542, 3689-3835, 3843-3847, 3849, 3850,
                  3857-3864

molecular fragmentation (1/2 indicates fragments):
111111111111111111111111111111111111111111111111111111111111111111111111
111111111111111111111111111111111111111111111111111111111111111111111111
111111111111111111111111111111111111111111111111111111111111111111111111
111111111111111111111111111111111111111111111111111111111111111111111111
111111111111111111111111111111111122222222222222222222222222222222222222
222222222222222222222222222222222222222222222222222222222222222222222222
222222222222222222222222222222222222222222222222222222222222222222222222
222222222222222222222222222222222222222222222222222222222222222222222222
222222222222222222222222222222222222222222222222222222222222222222222222
222222222222222222222222222222222222222222222222222222222222222222222222
222222222222222222222222222222222222222222222222222222222222222222222222
222222222222222222222222222222222222222222222222222222222222222222222222
222222222222222222222222222222222222222222222222222222222222222222222222
222222222222222222222222222222222222222222222222222222222222222222222222
222222222222222222222222222222222222222222222222222222222222222222222222
222222222222222222222222222222222222222222222222222222222222222222222222
222222222222222222222222222222222222222222222222222222222222222222222222
222222222222222222222222222222222222222222222222222222222222222222222222
222222222222222222222222222222222222222222222222222222222222222222222222
222222222222222222222222222222222222222222222222222222222222222222222222
222222222222222222222222222222222222222222222222222222222222222222222222
222222222222222222222222222222222222222222222222222222222222222222222222
222222222222222222222222222222222222222222222222222222222222222222222222
222222222222222222222222222222222222222222222222222222222222222222222222
222222222222222222222222222222222222222222222222222222222222222222222222
222222222222222222222222222222222222222222222222222222222222222222222222
222222222222222222222222222222222222222222222222222222222222222222222222
222222222222222222222222222222222222222222222222222222222222222222222222
222222222222222222222222222222222222222222222222222222222222222222222222
222222222222222222222222222222222222222222222222222222222222222222222222
222222222222222222222222222222222222222222222222222222222222222222222222
222222222222222222222222222222222222222222222222222222222222222222222222
222222222222222222222222222222222222222222222222222222222222222222222222
222222222222222222222222222222222222222222222222222222222222222222222222
222222222222222222222222222222222222222222222222222222222222222222222222
222222222222222222222222222222222222222222222222222222222222222222222222
222222222222222222222222222222222222222222222222222222222222222222222222
222222222222222222222222222222222222222222222222222222222222222222222222
222222222222222222222222222222222222222222222222222222222222222222222222
222222222222222222222222222222222222222222222222222222222222222222222222
222222222222222222222222222222222222222222222222222222222222222222222222
222222222222222222222222222222222222222222222222222222222222222222222222
222222222222222222222222222222222222222222222222222222222222222222222222
222222222222222222222222222222222222222222222222222222222222222222222222
222222222222222222222222222222222222222222222222222222222222222222222222
222222222222222222222222222222222222222222222222222222222222222222222222
222222222222222222222222222222222222222222222222222222222222222222222222
222222222222222222222222222222222222222222222222222222222222222222222222
222222222222222222222222222222222222222222222222222222222222222222222222
222222222222222222222222222222222222222222222222222222222222222222222222
222222222222222222222222222222222222222222222222222222222222222222222222
222222222222222222222222222222222222222222222222222222222222222222222222
222222222222222222222222222222222222222222222222222222222222222222222222
222222222222222222222222222222222222222222222222
# atoms in fragment 1/2:   322  3542
 fragment masses (1/2) :     2085.00    22935.05
CMA distance (Bohr)    :  29.943
constraining FC (au)   :  0.0500

           -------------------------------------------------
          |                 G F N 2 - x T B                 |
           -------------------------------------------------

        Reference                      10.1021/acs.jctc.8b01176
      * Hamiltonian:
        H0-scaling (s, p, d)           1.850000    2.230000    2.230000
        zeta-weighting                 0.500000
      * Dispersion:
        s8                             2.700000
        a1                             0.520000
        a2                             5.000000
        s9                             5.000000
      * Repulsion:
        kExp                           1.500000    1.000000
        rExp                           1.000000
      * Coulomb:
        alpha                          2.000000
        third order                    shell-resolved
        anisotropic                    true
        a3                             3.000000
        a5                             4.000000
        cn-shift                       1.200000
        cn-exp                         4.000000
        max-rad                        5.000000


          ...................................................
          :                      SETUP                      :
          :.................................................:
          :  # basis functions                9624          :
          :  # atomic orbitals                9624          :
          :  # shells                         5784          :
          :  # electrons                      9624          :
          :  max. iterations                   250          :
          :  Hamiltonian                  GFN2-xTB          :
          :  restarted?                      false          :
          :  GBSA solvation                  false          :
          :  PC potential                    false          :
          :  electronic temp.          300.0000000     K    :
          :  accuracy                    1.0000000          :
          :  -> integral cutoff          0.2500000E+02      :
          :  -> integral neglect         0.1000000E-07      :
          :  -> SCF convergence          0.1000000E-05 Eh   :
          :  -> wf. convergence          0.1000000E-03 e    :
          :  Broyden damping             0.4000000          :
          ...................................................

 iter      E             dE          RMSdq      gap      omega  full diag
   1  -5195.8103877 -0.519581E+04  0.366E+00    4.32       0.0  T
   2  -5198.3617954 -0.255141E+01  0.216E+00    4.24       1.0  T
   3  -5198.2765645  0.852309E-01  0.495E-01    4.05       1.0  T
   4  -5198.4843291 -0.207765E+00  0.244E-01    3.94       1.0  T
   5  -5198.6478129 -0.163484E+00  0.479E-02    4.02       1.0  T
   6  -5198.6507757 -0.296281E-02  0.297E-02    4.01       1.0  T
   7  -5198.6522403 -0.146462E-02  0.112E-02    4.02       1.0  T
   8  -5198.6525274 -0.287032E-03  0.294E-03    4.02       1.0  T
   9  -5198.6525441 -0.167339E-04  0.126E-03    4.02       1.3  T
  10  -5198.6525458 -0.171793E-05  0.568E-04    4.02       2.8  T
  11  -5198.6525462 -0.402059E-06  0.301E-04    4.02       5.3  T
  12  -5198.6525464 -0.191156E-06  0.103E-04    4.02      15.7  T

   *** convergence criteria satisfied after 12 iterations ***

         #    Occupation            Energy/Eh            Energy/eV
      -------------------------------------------------------------
         1        2.0000           -0.6532474             -17.7758
       ...           ...                  ...                  ...
      4806        2.0000           -0.3811384             -10.3713
      4807        2.0000           -0.3808792             -10.3643
      4808        2.0000           -0.3801810             -10.3453
      4809        2.0000           -0.3801572             -10.3446
      4810        2.0000           -0.3794355             -10.3250
      4811        2.0000           -0.3791639             -10.3176
      4812        2.0000           -0.3776847             -10.2773 (HOMO)
      4813                         -0.2299863              -6.2582 (LUMO)
      4814                         -0.2293556              -6.2411
      4815                         -0.2290661              -6.2332
      4816                         -0.2286430              -6.2217
      4817                         -0.2285127              -6.2181
       ...                                ...                  ...
      9624                          0.6850299              18.6406
      -------------------------------------------------------------
                  HL-Gap            0.1476984 Eh            4.0191 eV
             Fermi-level           -0.3038355 Eh           -8.2678 eV

 SCC (total)                   0 d,  0 h, 48 min, 11.049 sec
 SCC setup                      ...        0 min,  0.713 sec (  0.025%)
 Dispersion                     ...        0 min,  6.905 sec (  0.239%)
 classical contributions        ...        0 min,  0.169 sec (  0.006%)
 integral evaluation            ...        0 min, 11.731 sec (  0.406%)
 iterations                     ...       42 min,  8.150 sec ( 87.448%)
 molecular gradient             ...        5 min, 16.544 sec ( 10.949%)
 printout                       ...        0 min, 26.836 sec (  0.928%)

         :::::::::::::::::::::::::::::::::::::::::::::::::::::
         ::                     SUMMARY                     ::
         :::::::::::::::::::::::::::::::::::::::::::::::::::::
         :: total energy           -5104.095579093586 Eh    ::
         :: gradient norm              0.028041981439 Eh/a0 ::
         :: HOMO-LUMO gap              4.019077251291 eV    ::
         ::.................................................::
         :: SCC energy             -5198.652546422200 Eh    ::
         :: -> isotropic ES            0.264137357015 Eh    ::
         :: -> anisotropic ES          0.793230319470 Eh    ::
         :: -> anisotropic XC          3.251330596696 Eh    ::
         :: -> dispersion             -7.075071032383 Eh    ::
         :: repulsion energy          93.378209228424 Eh    ::
         :: add. restraining           0.000000000000 Eh    ::
         :: total charge              -0.000000000033 e     ::
         :::::::::::::::::::::::::::::::::::::::::::::::::::::

      ----------------------------------------------------------- 
     |              Fast Inertial Relaxation Engine              |
      ----------------------------------------------------------- 

          ...................................................
          :                      SETUP                      :
          :.................................................:
          :   energy convergence        0.5000000E-05 Eh    :
          :   grad. convergence         0.1000000E-02 Eh/a0 :
          :   optimization log               true           :
          :   writing optlog all                1     steps :
          :   Hessian reset                    20     steps :
          :   time step scaling                 5     steps :
          :   maximium step len.        1.0000000     a0    :
          :   initial time step         0.2500000     fs    :
          :   maximum time step         1.2500000     fs    :
          :   power reset thr           0.0000000     au    :
          :   alpha parameter           0.1000000           :
          :   BFGS update                   false           :
          :   preconditioning               false           :
          ...................................................

........................................................................
.............................. CYCLE    1 ..............................
........................................................................

 iter      E             dE          RMSdq      gap      omega  full diag
   1  -5198.6536661 -0.519865E+04  0.379E-04    4.02       0.0  T
   2  -5198.6536661 -0.216769E-07  0.234E-04    4.02       6.9  T
   3  -5198.6536661  0.462078E-07  0.102E-04    4.02      15.8  T
     SCC iter.                  ...       10 min, 34.966 sec
     gradient                   ...        5 min, 15.275 sec
 * total energy  : -5104.0956685 Eh     change    :  -0.8937339E-04 Eh
   gradient norm :     0.0263790 Eh/a0  converged?    E=F G=F D=F
   time step     :     0.2500000 fs     power     :   0.4597872E-08
   step length   :     0.0032865 a0     speed     :   0.3179827E-03

........................................................................
.............................. CYCLE    2 ..............................
........................................................................

 iter      E             dE          RMSdq      gap      omega  full diag
   1  -5198.6553338 -0.519866E+04  0.558E-04    4.02       0.0  T
   2  -5198.6553338 -0.415439E-07  0.342E-04    4.02       4.7  T
   3  -5198.6553338  0.616483E-07  0.122E-04    4.02      13.2  T
     SCC iter.                  ...       10 min, 38.559 sec
     gradient                   ...        5 min, 16.234 sec
 * total energy  : -5104.0957899 Eh     change    :  -0.1214579E-03 Eh
   gradient norm :     0.0240245 Eh/a0  converged?    E=F G=F D=F
   time step     :     0.2500000 fs     power     :   0.6135857E-08
   step length   :     0.0048313 a0     speed     :   0.4674572E-03

........................................................................
.............................. CYCLE    3 ..............................
........................................................................

 iter      E             dE          RMSdq      gap      omega  full diag
   1  -5198.6575516 -0.519866E+04  0.720E-04    4.02       0.0  T
   2  -5198.6575517 -0.644905E-07  0.441E-04    4.02       3.6  T
   3  -5198.6575516  0.962582E-07  0.148E-04    4.02      10.9  T
     SCC iter.                  ...       10 min, 36.316 sec
     gradient                   ...        5 min, 16.688 sec
 * total energy  : -5104.0959298 Eh     change    :  -0.1398447E-03 Eh
   gradient norm :     0.0212068 Eh/a0  converged?    E=F G=F D=F
   time step     :     0.2500000 fs     power     :   0.6924945E-08
   step length   :     0.0062338 a0     speed     :   0.6031542E-03

........................................................................
.............................. CYCLE    4 ..............................
........................................................................

 iter      E             dE          RMSdq      gap      omega  full diag
   1  -5198.6603283 -0.519866E+04  0.862E-04    4.02       0.0  T
   2  -5198.6603284 -0.856326E-07  0.529E-04    4.02       3.0  T
   3  -5198.6603283  0.151864E-06  0.179E-04    4.02       9.0  T
     SCC iter.                  ...       10 min, 35.519 sec
     gradient                   ...        5 min, 17.064 sec
 * total energy  : -5104.0960737 Eh     change    :  -0.1439570E-03 Eh
   gradient norm :     0.0182228 Eh/a0  converged?    E=F G=F D=F
   time step     :     0.2500000 fs     power     :   0.6961223E-08
   step length   :     0.0074581 a0     speed     :   0.7216146E-03

........................................................................
.............................. CYCLE    5 ..............................
........................................................................

 iter      E             dE          RMSdq      gap      omega  full diag
   1  -5198.6636774 -0.519866E+04  0.979E-04    4.02       0.0  T
   2  -5198.6636775 -0.101424E-06  0.604E-04    4.02       2.7  T
   3  -5198.6636773  0.236761E-06  0.214E-04    4.02       7.5  T
     SCC iter.                  ...       10 min, 32.991 sec
     gradient                   ...        5 min, 19.685 sec
 * total energy  : -5104.0962091 Eh     change    :  -0.1353546E-03 Eh
   gradient norm :     0.0154304 Eh/a0  converged?    E=F G=F D=F
   time step     :     0.2500000 fs     power     :   0.6369510E-08
   step length   :     0.0084758 a0     speed     :   0.8200832E-03

........................................................................
.............................. CYCLE    6 ..............................
........................................................................

 iter      E             dE          RMSdq      gap      omega  full diag
   1  -5198.6680539 -0.519867E+04  0.119E-03    4.02       0.0  T
   2  -5198.6680541 -0.136146E-06  0.738E-04    4.02       2.2  T
   3  -5198.6680536  0.479639E-06  0.292E-04    4.02       5.5  T
     SCC iter.                  ...       10 min, 36.409 sec
     gradient                   ...        5 min, 16.650 sec
 * total energy  : -5104.0963380 Eh     change    :  -0.1289662E-03 Eh
   gradient norm :     0.0130013 Eh/a0  converged?    E=F G=F D=F
   time step     :     0.2750000 fs     power     :   0.5245624E-08
   step length   :     0.0102821 a0     speed     :   0.9044041E-03

........................................................................
.............................. CYCLE    7 ..............................
........................................................................

 iter      E             dE          RMSdq      gap      omega  full diag
   1  -5198.6736591 -0.519867E+04  0.139E-03    4.02       0.0  T
   2  -5198.6736593 -0.167190E-06  0.875E-04    4.02       1.8  T
   3  -5198.6736584  0.878918E-06  0.386E-04    4.02       4.2  T
     SCC iter.                  ...       10 min, 34.469 sec
     gradient                   ...        5 min, 18.798 sec
 * total energy  : -5104.0964492 Eh     change    :  -0.1111157E-03 Eh
   gradient norm :     0.0114106 Eh/a0  converged?    E=F G=F D=F
   time step     :     0.3025000 fs     power     :   0.3809831E-08
   step length   :     0.0120785 a0     speed     :   0.9658323E-03

........................................................................
.............................. CYCLE    8 ..............................
........................................................................

 iter      E             dE          RMSdq      gap      omega  full diag
   1  -5198.6805919 -0.519868E+04  0.157E-03    4.02       0.0  T
   2  -5198.6805921 -0.197199E-06  0.100E-03    4.03       1.6  T
   3  -5198.6805908  0.136348E-05  0.481E-04    4.02       3.3  T
   4  -5198.6805923 -0.157437E-05  0.535E-05    4.03      30.1  T
   5  -5198.6805924 -0.496948E-08  0.266E-05    4.03      60.5  T
   6  -5198.6805924 -0.138061E-08  0.131E-05    4.03     123.1  T
     SCC iter.                  ...       21 min,  9.080 sec
     gradient                   ...        5 min, 17.327 sec
 * total energy  : -5104.0965369 Eh     change    :  -0.8774294E-04 Eh
   gradient norm :     0.0106447 Eh/a0  converged?    E=F G=F D=F
   time step     :     0.3327500 fs     power     :   0.2360810E-08
   step length   :     0.0136881 a0     speed     :   0.9950363E-03

........................................................................
.............................. CYCLE    9 ..............................
........................................................................

 iter      E             dE          RMSdq      gap      omega  full diag
   1  -5198.6886508 -0.519869E+04  0.171E-03    4.02       0.0  T
   2  -5198.6886510 -0.248294E-06  0.109E-03    4.03       1.5  T
   3  -5198.6886493  0.177004E-05  0.568E-04    4.03       2.8  T
   4  -5198.6886514 -0.211770E-05  0.564E-05    4.03      28.5  T
   5  -5198.6886514 -0.700220E-08  0.282E-05    4.03      57.1  T
   6  -5198.6886514 -0.122236E-08  0.134E-05    4.03     119.8  T
     SCC iter.                  ...       21 min, 10.159 sec
     gradient                   ...        5 min, 18.314 sec
 * total energy  : -5104.0965969 Eh     change    :  -0.6000779E-04 Eh
   gradient norm :     0.0102755 Eh/a0  converged?    E=F G=F D=F
   time step     :     0.3660250 fs     power     :   0.1136137E-08
   step length   :     0.0149530 a0     speed     :   0.9881696E-03

........................................................................
.............................. CYCLE   10 ..............................
........................................................................

 iter      E             dE          RMSdq      gap      omega  full diag
   1  -5198.6973458 -0.519870E+04  0.179E-03    4.02       0.0  T
   2  -5198.6973461 -0.274548E-06  0.114E-03    4.03       1.4  T
   3  -5198.6973443  0.179665E-05  0.592E-04    4.03       2.7  T
   4  -5198.6973464 -0.218104E-05  0.619E-05    4.03      26.0  T
   5  -5198.6973465 -0.120863E-07  0.266E-05    4.03      60.4  T
   6  -5198.6973465 -0.746695E-09  0.136E-05    4.03     117.9  T
     SCC iter.                  ...       21 min,  7.430 sec
     gradient                   ...        5 min, 19.040 sec
 * total energy  : -5104.0966310 Eh     change    :  -0.3411963E-04 Eh
   gradient norm :     0.0100988 Eh/a0  converged?    E=F G=F D=F
   time step     :     0.4026275 fs     power     :   0.1566220E-09
   step length   :     0.0158111 a0     speed     :   0.9498913E-03

........................................................................
.............................. CYCLE   11 ..............................
........................................................................

 iter      E             dE          RMSdq      gap      omega  full diag
   1  -5198.7058272 -0.519871E+04  0.181E-03    4.03       0.0  T
   2  -5198.7058275 -0.286277E-06  0.112E-03    4.03       1.4  T
   3  -5198.7058259  0.155848E-05  0.566E-04    4.03       2.8  T
   4  -5198.7058278 -0.187398E-05  0.671E-05    4.03      24.0  T
   5  -5198.7058278 -0.171049E-07  0.255E-05    4.03      63.2  T
   6  -5198.7058278 -0.742148E-09  0.133E-05    4.03     121.1  T
     SCC iter.                  ...       21 min,  5.814 sec
     gradient                   ...        5 min, 17.816 sec
 * total energy  : -5104.0966421 Eh     change    :  -0.1111406E-04 Eh
   gradient norm :     0.0105035 Eh/a0  converged?    E=F G=F D=F
   time step     :     0.4428903 fs     power     :  -0.5308835E-09
   step length   :     0.0162268 a0     speed     :   0.8862430E-03

........................................................................
.............................. CYCLE   12 ..............................
........................................................................
 * reset velocities

 iter      E             dE          RMSdq      gap      omega  full diag
   1  -5198.7056747 -0.519871E+04  0.434E-05    4.03       0.0  T
   2  -5198.7056747 -0.522050E-09  0.325E-05    4.03      49.6  T
   3  -5198.7056747  0.364707E-09  0.147E-05    4.03     109.6  T
     SCC iter.                  ...       10 min, 34.692 sec
     gradient                   ...        5 min, 20.517 sec
 * total energy  : -5104.0966472 Eh     change    :  -0.5021044E-05 Eh
   gradient norm :     0.0102964 Eh/a0  converged?    E=F G=F D=T
   time step     :     0.2214451 fs     power     :   0.2979407E-09
   step length   :     0.0004829 a0     speed     :   0.5275020E-04

........................................................................
.............................. CYCLE   13 ..............................
........................................................................

 iter      E             dE          RMSdq      gap      omega  full diag
   1  -5198.7053684 -0.519871E+04  0.883E-05    4.03       0.0  T
   2  -5198.7053684 -0.197088E-08  0.633E-05    4.03      25.4  T
   3  -5198.7053684  0.339514E-08  0.278E-05    4.03      57.9  T
     SCC iter.                  ...       10 min, 37.770 sec
     gradient                   ...        5 min, 19.650 sec
 * total energy  : -5104.0966568 Eh     change    :  -0.9622735E-05 Eh
   gradient norm :     0.0098906 Eh/a0  converged?    E=F G=F D=T
   time step     :     0.2214451 fs     power     :   0.5665949E-09
   step length   :     0.0009563 a0     speed     :   0.1044594E-03

........................................................................
.............................. CYCLE   14 ..............................
........................................................................

 iter      E             dE          RMSdq      gap      omega  full diag
   1  -5198.7049096 -0.519870E+04  0.131E-04    4.03       0.0  T
   2  -5198.7049096 -0.385080E-08  0.928E-05    4.03      17.3  T
   3  -5198.7049096  0.747059E-08  0.403E-05    4.03      39.9  T
     SCC iter.                  ...       10 min, 36.533 sec
     gradient                   ...        5 min, 17.243 sec
 * total energy  : -5104.0966703 Eh     change    :  -0.1352763E-04 Eh
   gradient norm :     0.0093023 Eh/a0  converged?    E=F G=F D=F
   time step     :     0.2214451 fs     power     :   0.7855608E-09
   step length   :     0.0014109 a0     speed     :   0.1541200E-03

........................................................................
.............................. CYCLE   15 ..............................
........................................................................

 iter      E             dE          RMSdq      gap      omega  full diag
   1  -5198.7042990 -0.519870E+04  0.171E-04    4.03       0.0  T
   2  -5198.7042991 -0.658201E-08  0.120E-04    4.03      13.4  T
   3  -5198.7042990  0.134614E-07  0.520E-05    4.03      30.9  T
     SCC iter.                  ...       10 min, 37.867 sec
     gradient                   ...        5 min, 18.965 sec
 * total energy  : -5104.0966867 Eh     change    :  -0.1639218E-04 Eh
   gradient norm :     0.0085576 Eh/a0  converged?    E=F G=F D=F
   time step     :     0.2214451 fs     power     :   0.9394654E-09
   step length   :     0.0018382 a0     speed     :   0.2007874E-03

........................................................................
.............................. CYCLE   16 ..............................
........................................................................

 iter      E             dE          RMSdq      gap      omega  full diag
   1  -5198.7035371 -0.519870E+04  0.206E-04    4.03       0.0  T
   2  -5198.7035371 -0.915588E-08  0.145E-04    4.03      11.1  T
   3  -5198.7035371  0.203963E-07  0.627E-05    4.03      25.6  T
     SCC iter.                  ...       10 min, 36.036 sec
     gradient                   ...        5 min, 24.480 sec
 * total energy  : -5104.0967047 Eh     change    :  -0.1798801E-04 Eh
   gradient norm :     0.0076923 Eh/a0  converged?    E=F G=F D=F
   time step     :     0.2214451 fs     power     :   0.1019600E-08
   step length   :     0.0022302 a0     speed     :   0.2436095E-03

........................................................................
.............................. CYCLE   17 ..............................
........................................................................

 iter      E             dE          RMSdq      gap      omega  full diag
   1  -5198.7026238 -0.519870E+04  0.237E-04    4.03       0.0  T
   2  -5198.7026238 -0.115797E-07  0.167E-04    4.03       9.6  T
   3  -5198.7026237  0.282116E-07  0.722E-05    4.03      22.3  T
     SCC iter.                  ...       10 min, 36.410 sec
     gradient                   ...        5 min, 17.749 sec
 * total energy  : -5104.0967231 Eh     change    :  -0.1842196E-04 Eh
   gradient norm :     0.0067537 Eh/a0  converged?    E=F G=F D=F
   time step     :     0.2214451 fs     power     :   0.1024901E-08
   step length   :     0.0025802 a0     speed     :   0.2818416E-03

........................................................................
.............................. CYCLE   18 ..............................
........................................................................

 iter      E             dE          RMSdq      gap      omega  full diag
   1  -5198.7014373 -0.519870E+04  0.290E-04    4.03       0.0  T
   2  -5198.7014374 -0.168075E-07  0.205E-04    4.03       7.8  T
   3  -5198.7014373  0.449345E-07  0.899E-05    4.03      17.9  T
     SCC iter.                  ...       10 min, 36.321 sec
     gradient                   ...        5 min, 20.035 sec
 * total energy  : -5104.0967425 Eh     change    :  -0.1942863E-04 Eh
   gradient norm :     0.0057050 Eh/a0  converged?    E=F G=F D=F
   time step     :     0.2435896 fs     power     :   0.9518444E-09
   step length   :     0.0032043 a0     speed     :   0.3181877E-03

........................................................................
.............................. CYCLE   19 ..............................
........................................................................

 iter      E             dE          RMSdq      gap      omega  full diag
   1  -5198.6999158 -0.519870E+04  0.345E-04    4.03       0.0  T
   2  -5198.6999158 -0.226137E-07  0.245E-04    4.03       6.6  T
   3  -5198.6999157  0.688578E-07  0.109E-04    4.03      14.8  T
     SCC iter.                  ...       10 min, 37.010 sec
     gradient                   ...        5 min, 17.430 sec
 * total energy  : -5104.0967613 Eh     change    :  -0.1873556E-04 Eh
   gradient norm :     0.0046614 Eh/a0  converged?    E=F G=F D=F
   time step     :     0.2679486 fs     power     :   0.7965976E-09
   step length   :     0.0038823 a0     speed     :   0.3504739E-03

........................................................................
.............................. CYCLE   20 ..............................
........................................................................

 iter      E             dE          RMSdq      gap      omega  full diag
   1  -5198.6979932 -0.519870E+04  0.397E-04    4.03       0.0  T
   2  -5198.6979933 -0.272348E-07  0.282E-04    4.02       5.7  T
   3  -5198.6979932  0.100581E-06  0.127E-04    4.03      12.6  T
     SCC iter.                  ...       10 min, 36.518 sec
     gradient                   ...        5 min, 25.212 sec
 * total energy  : -5104.0967774 Eh     change    :  -0.1613296E-04 Eh
   gradient norm :     0.0038670 Eh/a0  converged?    E=F G=F D=F
   time step     :     0.2947435 fs     power     :   0.5765176E-09
   step length   :     0.0045761 a0     speed     :   0.3755528E-03
 * RMSD in coord.:     0.0015933 a0     energy gain  -0.1198325E-02 Eh

........................................................................
.............................. CYCLE   21 ..............................
........................................................................

 iter      E             dE          RMSdq      gap      omega  full diag
   1  -5198.6962038 -0.519870E+04  0.336E-04    4.03       0.0  T
   2  -5198.6962038 -0.163291E-07  0.236E-04    4.02       6.8  T
   3  -5198.6962038  0.764558E-07  0.108E-04    4.02      14.9  T
     SCC iter.                  ...       10 min, 37.250 sec
     gradient                   ...        5 min, 18.532 sec
 * total energy  : -5104.0967873 Eh     change    :  -0.9924352E-05 Eh
   gradient norm :     0.0036227 Eh/a0  converged?    E=F G=F D=F
   time step     :     0.2500000 fs     power     :   0.4040004E-09
   step length   :     0.0039610 a0     speed     :   0.3832452E-03

........................................................................
.............................. CYCLE   22 ..............................
........................................................................

 iter      E             dE          RMSdq      gap      omega  full diag
   1  -5198.6943219 -0.519869E+04  0.320E-04    4.02       0.0  T
   2  -5198.6943219 -0.126183E-07  0.222E-04    4.02       7.2  T
   3  -5198.6943218  0.741275E-07  0.105E-04    4.02      15.3  T
     SCC iter.                  ...       10 min, 38.390 sec
     gradient                   ...        5 min, 18.852 sec
 * total energy  : -5104.0967944 Eh     change    :  -0.7106324E-05 Eh
   gradient norm :     0.0036984 Eh/a0  converged?    E=F G=F D=F
   time step     :     0.2500000 fs     power     :   0.2819376E-09
   step length   :     0.0039216 a0     speed     :   0.3794399E-03

........................................................................
.............................. CYCLE   23 ..............................
........................................................................

 iter      E             dE          RMSdq      gap      omega  full diag
   1  -5198.6924350 -0.519869E+04  0.301E-04    4.02       0.0  T
   2  -5198.6924350 -0.862929E-08  0.204E-04    4.02       7.9  T
   3  -5198.6924350  0.591317E-07  0.946E-05    4.02      17.0  T
     SCC iter.                  ...       10 min, 31.427 sec
     gradient                   ...        5 min, 23.693 sec
 * total energy  : -5104.0968001 Eh     change    :  -0.5611037E-05 Eh
   gradient norm :     0.0039075 Eh/a0  converged?    E=F G=F D=F
   time step     :     0.2500000 fs     power     :   0.2225703E-09
   step length   :     0.0037950 a0     speed     :   0.3671870E-03

........................................................................
.............................. CYCLE   24 ..............................
........................................................................

 iter      E             dE          RMSdq      gap      omega  full diag
   1  -5198.6906268 -0.519869E+04  0.283E-04    4.02       0.0  T
   2  -5198.6906268 -0.571345E-08  0.184E-04    4.02       8.8  T
   3  -5198.6906268  0.343316E-07  0.739E-05    4.02      21.8  T
     SCC iter.                  ...       10 min, 35.586 sec
     gradient                   ...        5 min, 18.134 sec
 * total energy  : -5104.0968052 Eh     change    :  -0.5135399E-05 Eh
   gradient norm :     0.0041009 Eh/a0  converged?    E=F G=F D=F
   time step     :     0.2500000 fs     power     :   0.2175370E-09
   step length   :     0.0036347 a0     speed     :   0.3516797E-03

........................................................................
.............................. CYCLE   25 ..............................
........................................................................

 iter      E             dE          RMSdq      gap      omega  full diag
   1  -5198.6889633 -0.519869E+04  0.272E-04    4.02       0.0  T
   2  -5198.6889633 -0.382624E-08  0.168E-04    4.02       9.6  T
   3  -5198.6889633  0.996988E-08  0.432E-05    4.02      37.2  T
     SCC iter.                  ...       10 min, 36.197 sec
     gradient                   ...        5 min, 16.043 sec
 * total energy  : -5104.0968107 Eh     change    :  -0.5459086E-05 Eh
   gradient norm :     0.0042026 Eh/a0  converged?    E=F G=F D=F
   time step     :     0.2500000 fs     power     :   0.2481078E-09
   step length   :     0.0034859 a0     speed     :   0.3372842E-03

........................................................................
.............................. CYCLE   26 ..............................
........................................................................

 iter      E             dE          RMSdq      gap      omega  full diag
   1  -5198.6873468 -0.519869E+04  0.294E-04    4.02       0.0  T
   2  -5198.6873468 -0.337513E-08  0.174E-04    4.02       9.2  T
   3  -5198.6873468  0.170712E-08  0.266E-05    4.02      60.5  T
     SCC iter.                  ...       10 min, 38.251 sec
     gradient                   ...        5 min, 15.261 sec
 * total energy  : -5104.0968174 Eh     change    :  -0.6792542E-05 Eh
   gradient norm :     0.0041802 Eh/a0  converged?    E=F G=F D=F
   time step     :     0.2750000 fs     power     :   0.2935790E-09
   step length   :     0.0037249 a0     speed     :   0.3276425E-03

........................................................................
.............................. CYCLE   27 ..............................
........................................................................

 iter      E             dE          RMSdq      gap      omega  full diag
   1  -5198.6858562 -0.519869E+04  0.324E-04    4.02       0.0  T
   2  -5198.6858562 -0.368709E-08  0.191E-04    4.02       8.4  T
   3  -5198.6858562  0.445198E-08  0.341E-05    4.02      47.2  T
     SCC iter.                  ...       10 min, 34.664 sec
     gradient                   ...        5 min, 16.292 sec
 * total energy  : -5104.0968259 Eh     change    :  -0.8433345E-05 Eh
   gradient norm :     0.0040104 Eh/a0  converged?    E=F G=F D=F
   time step     :     0.3025000 fs     power     :   0.3373352E-09
   step length   :     0.0040520 a0     speed     :   0.3240068E-03

........................................................................
.............................. CYCLE   28 ..............................
........................................................................

 iter      E             dE          RMSdq      gap      omega  full diag
   1  -5198.6845873 -0.519868E+04  0.366E-04    4.02       0.0  T
   2  -5198.6845873 -0.487125E-08  0.216E-04    4.02       7.4  T
   3  -5198.6845873  0.193140E-07  0.626E-05    4.02      25.7  T
     SCC iter.                  ...       10 min, 37.166 sec
     gradient                   ...        5 min, 20.177 sec
 * total energy  : -5104.0968360 Eh     change    :  -0.1007147E-04 Eh
   gradient norm :     0.0036980 Eh/a0  converged?    E=F G=F D=F
   time step     :     0.3327500 fs     power     :   0.3636073E-09
   step length   :     0.0044874 a0     speed     :   0.3262091E-03

........................................................................
.............................. CYCLE   29 ..............................
........................................................................

 iter      E             dE          RMSdq      gap      omega  full diag
   1  -5198.6836572 -0.519868E+04  0.419E-04    4.02       0.0  T
   2  -5198.6836572 -0.742330E-08  0.250E-04    4.02       6.4  T
   3  -5198.6836572  0.552855E-07  0.103E-04    4.02      15.7  T
     SCC iter.                  ...       10 min, 35.890 sec
     gradient                   ...        5 min, 25.994 sec
 * total energy  : -5104.0968471 Eh     change    :  -0.1113529E-04 Eh
   gradient norm :     0.0032845 Eh/a0  converged?    E=F G=F D=F
   time step     :     0.3660250 fs     power     :   0.3598616E-09
   step length   :     0.0050377 a0     speed     :   0.3329161E-03

........................................................................
.............................. CYCLE   30 ..............................
........................................................................

 iter      E             dE          RMSdq      gap      omega  full diag
   1  -5198.6832009 -0.519868E+04  0.475E-04    4.02       0.0  T
   2  -5198.6832009 -0.107093E-07  0.288E-04    4.02       5.6  T
   3  -5198.6832008  0.995633E-07  0.137E-04    4.02      11.7  T
     SCC iter.                  ...       10 min, 37.144 sec
     gradient                   ...        5 min, 20.388 sec
 * total energy  : -5104.0968585 Eh     change    :  -0.1138707E-04 Eh
   gradient norm :     0.0028689 Eh/a0  converged?    E=F G=F D=F
   time step     :     0.4026275 fs     power     :   0.3217049E-09
   step length   :     0.0056882 a0     speed     :   0.3417299E-03

........................................................................
.............................. CYCLE   31 ..............................
........................................................................

 iter      E             dE          RMSdq      gap      omega  full diag
   1  -5198.6833444 -0.519868E+04  0.525E-04    4.02       0.0  T
   2  -5198.6833444 -0.139999E-07  0.322E-04    4.02       5.0  T
   3  -5198.6833443  0.134060E-06  0.159E-04    4.02      10.1  T
     SCC iter.                  ...       10 min, 33.823 sec
     gradient                   ...        5 min, 35.834 sec
 * total energy  : -5104.0968692 Eh     change    :  -0.1074240E-04 Eh
   gradient norm :     0.0025940 Eh/a0  converged?    E=F G=F D=F
   time step     :     0.4428903 fs     power     :   0.2586199E-09
   step length   :     0.0063970 a0     speed     :   0.3493801E-03

........................................................................
.............................. CYCLE   32 ..............................
........................................................................

 iter      E             dE          RMSdq      gap      omega  full diag
   1  -5198.6841364 -0.519868E+04  0.557E-04    4.02       0.0  T
   2  -5198.6841364 -0.160808E-07  0.341E-04    4.02       4.7  T
   3  -5198.6841363  0.139112E-06  0.160E-04    4.02      10.0  T
     SCC iter.                  ...       10 min, 36.058 sec
     gradient                   ...        5 min, 26.413 sec
 * total energy  : -5104.0968786 Eh     change    :  -0.9356446E-05 Eh
   gradient norm :     0.0025365 Eh/a0  converged?    E=F G=F D=F
   time step     :     0.4871793 fs     power     :   0.1934069E-09
   step length   :     0.0070985 a0     speed     :   0.3524486E-03

........................................................................
.............................. CYCLE   33 ..............................
........................................................................

 iter      E             dE          RMSdq      gap      omega  full diag
   1  -5198.6854708 -0.519869E+04  0.564E-04    4.02       0.0  T
   2  -5198.6854709 -0.168211E-07  0.341E-04    4.02       4.7  T
   3  -5198.6854708  0.939872E-07  0.132E-04    4.02      12.2  T
     SCC iter.                  ...       10 min, 35.962 sec
     gradient                   ...        5 min, 17.321 sec
 * total energy  : -5104.0968869 Eh     change    :  -0.8325486E-05 Eh
   gradient norm :     0.0026336 Eh/a0  converged?    E=F G=F D=F
   time step     :     0.5358972 fs     power     :   0.1494123E-09
   step length   :     0.0077462 a0     speed     :   0.3496423E-03

........................................................................
.............................. CYCLE   34 ..............................
........................................................................

 iter      E             dE          RMSdq      gap      omega  full diag
   1  -5198.6870859 -0.519869E+04  0.544E-04    4.02       0.0  T
   2  -5198.6870859 -0.156997E-07  0.325E-04    4.02       5.0  T
   3  -5198.6870859  0.226864E-07  0.735E-05    4.02      21.9  T
     SCC iter.                  ...       10 min, 37.713 sec
     gradient                   ...        5 min, 17.856 sec
 * total energy  : -5104.0968952 Eh     change    :  -0.8283700E-05 Eh
   gradient norm :     0.0027692 Eh/a0  converged?    E=F G=F D=F
   time step     :     0.5894869 fs     power     :   0.1381613E-09
   step length   :     0.0083697 a0     speed     :   0.3434383E-03

........................................................................
.............................. CYCLE   35 ..............................
........................................................................

 iter      E             dE          RMSdq      gap      omega  full diag
   1  -5198.6886313 -0.519869E+04  0.507E-04    4.02       0.0  T
   2  -5198.6886314 -0.120563E-07  0.307E-04    4.02       5.2  T
   3  -5198.6886313  0.204273E-07  0.653E-05    4.02      24.6  T
     SCC iter.                  ...       10 min, 36.428 sec
     gradient                   ...        5 min, 16.865 sec
 * total energy  : -5104.0969047 Eh     change    :  -0.9505688E-05 Eh
   gradient norm :     0.0027960 Eh/a0  converged?    E=F G=F D=F
   time step     :     0.6484356 fs     power     :   0.1557732E-09
   step length   :     0.0090709 a0     speed     :   0.3383763E-03

........................................................................
.............................. CYCLE   36 ..............................
........................................................................

 iter      E             dE          RMSdq      gap      omega  full diag
   1  -5198.6897479 -0.519869E+04  0.481E-04    4.02       0.0  T
   2  -5198.6897479 -0.900309E-08  0.297E-04    4.02       5.4  T
   3  -5198.6897478  0.337241E-07  0.784E-05    4.02      20.5  T
     SCC iter.                  ...       10 min, 34.762 sec
     gradient                   ...        5 min, 15.990 sec
 * total energy  : -5104.0969164 Eh     change    :  -0.1167991E-04 Eh
   gradient norm :     0.0026096 Eh/a0  converged?    E=F G=F D=F
   time step     :     0.7132792 fs     power     :   0.1775705E-09
   step length   :     0.0099774 a0     speed     :   0.3383564E-03

........................................................................
.............................. CYCLE   37 ..............................
........................................................................

 iter      E             dE          RMSdq      gap      omega  full diag
   1  -5198.6901716 -0.519869E+04  0.474E-04    4.02       0.0  T
   2  -5198.6901716 -0.147611E-07  0.308E-04    4.02       5.2  T
   3  -5198.6901715  0.980954E-07  0.125E-04    4.02      12.9  T
     SCC iter.                  ...       10 min, 33.975 sec
     gradient                   ...        5 min, 21.405 sec
 * total energy  : -5104.0969295 Eh     change    :  -0.1313642E-04 Eh
   gradient norm :     0.0024720 Eh/a0  converged?    E=F G=F D=F
   time step     :     0.7846071 fs     power     :   0.1780267E-09
   step length   :     0.0111481 a0     speed     :   0.3436864E-03

........................................................................
.............................. CYCLE   38 ..............................
........................................................................

 iter      E             dE          RMSdq      gap      omega  full diag
   1  -5198.6898548 -0.519869E+04  0.500E-04    4.02       0.0  T
   2  -5198.6898548 -0.213940E-07  0.320E-04    4.02       5.0  T
   3  -5198.6898547  0.898708E-07  0.124E-04    4.02      12.9  T
     SCC iter.                  ...       10 min, 37.258 sec
     gradient                   ...        5 min, 17.142 sec
 * total energy  : -5104.0969443 Eh     change    :  -0.1478822E-04 Eh
   gradient norm :     0.0026536 Eh/a0  converged?    E=F G=F D=F
   time step     :     0.8630678 fs     power     :   0.1857501E-09
   step length   :     0.0125234 a0     speed     :   0.3509890E-03

........................................................................
.............................. CYCLE   39 ..............................
........................................................................

 iter      E             dE          RMSdq      gap      omega  full diag
   1  -5198.6891225 -0.519869E+04  0.577E-04    4.02       0.0  T
   2  -5198.6891226 -0.189948E-07  0.350E-04    4.02       4.6  T
   3  -5198.6891225  0.379869E-07  0.895E-05    4.02      18.0  T
     SCC iter.                  ...       10 min, 36.438 sec
     gradient                   ...        5 min, 17.743 sec
 * total energy  : -5104.0969633 Eh     change    :  -0.1898530E-04 Eh
   gradient norm :     0.0026334 Eh/a0  converged?    E=F G=F D=F
   time step     :     0.9493746 fs     power     :   0.2343145E-09
   step length   :     0.0141906 a0     speed     :   0.3615595E-03

........................................................................
.............................. CYCLE   40 ..............................
........................................................................

 iter      E             dE          RMSdq      gap      omega  full diag
   1  -5198.6886335 -0.519869E+04  0.676E-04    4.02       0.0  T
   2  -5198.6886335 -0.199534E-07  0.411E-04    4.02       3.9  T
   3  -5198.6886335  0.577274E-07  0.107E-04    4.02      15.0  T
     SCC iter.                  ...       10 min, 38.252 sec
     gradient                   ...        5 min, 19.009 sec
 * total energy  : -5104.0969875 Eh     change    :  -0.2419730E-04 Eh
   gradient norm :     0.0022703 Eh/a0  converged?    E=F G=F D=F
   time step     :     1.0443120 fs     power     :   0.2629148E-09
   step length   :     0.0164723 a0     speed     :   0.3815388E-03

........................................................................
.............................. CYCLE   41 ..............................
........................................................................

 iter      E             dE          RMSdq      gap      omega  full diag
   1  -5198.6892270 -0.519869E+04  0.730E-04    4.02       0.0  T
   2  -5198.6892270 -0.260734E-07  0.452E-04    4.02       3.6  T
   3  -5198.6892269  0.105522E-06  0.138E-04    4.02      11.7  T
     SCC iter.                  ...       10 min, 38.447 sec
     gradient                   ...        5 min, 17.031 sec
 * total energy  : -5104.0970132 Eh     change    :  -0.2576971E-04 Eh
   gradient norm :     0.0022902 Eh/a0  converged?    E=F G=F D=F
   time step     :     1.1487432 fs     power     :   0.2411418E-09
   step length   :     0.0193231 a0     speed     :   0.4068815E-03

........................................................................
.............................. CYCLE   42 ..............................
........................................................................

 iter      E             dE          RMSdq      gap      omega  full diag
   1  -5198.6911210 -0.519869E+04  0.774E-04    4.02       0.0  T
   2  -5198.6911210 -0.197942E-07  0.463E-04    4.02       3.5  T
   3  -5198.6911210  0.270538E-07  0.815E-05    4.02      19.7  T
     SCC iter.                  ...       10 min, 36.960 sec
     gradient                   ...        5 min, 16.944 sec
 * total energy  : -5104.0970426 Eh     change    :  -0.2939310E-04 Eh
   gradient norm :     0.0025283 Eh/a0  converged?    E=F G=F D=F
   time step     :     1.2500000 fs     power     :   0.2753393E-09
   step length   :     0.0221332 a0     speed     :   0.4283012E-03
 * RMSD in coord.:     0.0025125 a0     energy gain  -0.2652196E-03 Eh

........................................................................
.............................. CYCLE   43 ..............................
........................................................................

 iter      E             dE          RMSdq      gap      omega  full diag
   1  -5198.6914938 -0.519869E+04  0.151E-04    4.02       0.0  T
   2  -5198.6914938 -0.874024E-09  0.878E-05    4.02      18.3  T
   3  -5198.6914938  0.493128E-08  0.338E-05    4.02      47.6  T
     SCC iter.                  ...       10 min, 39.329 sec
     gradient                   ...        5 min, 17.758 sec
 * total energy  : -5104.0970487 Eh     change    :  -0.6096177E-05 Eh
   gradient norm :     0.0024818 Eh/a0  converged?    E=F G=F D=F
   time step     :     0.2500000 fs     power     :   0.3176443E-09
   step length   :     0.0042899 a0     speed     :   0.4150698E-03

........................................................................
.............................. CYCLE   44 ..............................
........................................................................

 iter      E             dE          RMSdq      gap      omega  full diag
   1  -5198.6918412 -0.519869E+04  0.155E-04    4.02       0.0  T
   2  -5198.6918412 -0.915861E-09  0.927E-05    4.02      17.4  T
   3  -5198.6918412  0.280124E-08  0.259E-05    4.02      62.1  T
     SCC iter.                  ...       10 min, 38.164 sec
     gradient                   ...        5 min, 15.809 sec
 * total energy  : -5104.0970554 Eh     change    :  -0.6664661E-05 Eh
   gradient norm :     0.0022810 Eh/a0  converged?    E=F G=F D=F
   time step     :     0.2500000 fs     power     :   0.3462844E-09
   step length   :     0.0042107 a0     speed     :   0.4074051E-03

........................................................................
.............................. CYCLE   45 ..............................
........................................................................

 iter      E             dE          RMSdq      gap      omega  full diag
   1  -5198.6921509 -0.519869E+04  0.172E-04    4.02       0.0  T
   2  -5198.6921509 -0.162891E-08  0.104E-04    4.02      15.5  T
   3  -5198.6921509  0.554974E-08  0.343E-05    4.02      46.9  T
     SCC iter.                  ...       10 min, 35.232 sec
     gradient                   ...        5 min, 17.087 sec
 * total energy  : -5104.0970623 Eh     change    :  -0.6873896E-05 Eh
   gradient norm :     0.0019921 Eh/a0  converged?    E=F G=F D=F
   time step     :     0.2500000 fs     power     :   0.3521539E-09
   step length   :     0.0041863 a0     speed     :   0.4050434E-03

........................................................................
.............................. CYCLE   46 ..............................
........................................................................

 iter      E             dE          RMSdq      gap      omega  full diag
   1  -5198.6924127 -0.519869E+04  0.189E-04    4.02       0.0  T
   2  -5198.6924127 -0.208001E-08  0.115E-04    4.02      14.0  T
   3  -5198.6924127  0.750060E-08  0.388E-05    4.02      41.5  T
     SCC iter.                  ...       10 min, 36.125 sec
     gradient                   ...        5 min, 18.570 sec
 * total energy  : -5104.0970689 Eh     change    :  -0.6624450E-05 Eh
   gradient norm :     0.0017100 Eh/a0  converged?    E=F G=F D=F
   time step     :     0.2500000 fs     power     :   0.3356851E-09
   step length   :     0.0042061 a0     speed     :   0.4069602E-03

........................................................................
.............................. CYCLE   47 ..............................
........................................................................

 iter      E             dE          RMSdq      gap      omega  full diag
   1  -5198.6926203 -0.519869E+04  0.199E-04    4.02       0.0  T
   2  -5198.6926203 -0.227465E-08  0.122E-04    4.02      13.2  T
   3  -5198.6926203  0.829641E-08  0.398E-05    4.02      40.4  T
     SCC iter.                  ...       10 min, 35.968 sec
     gradient                   ...        5 min, 18.214 sec
 * total energy  : -5104.0970751 Eh     change    :  -0.6190703E-05 Eh
   gradient norm :     0.0015458 Eh/a0  converged?    E=F G=F D=F
   time step     :     0.2500000 fs     power     :   0.3062618E-09
   step length   :     0.0042507 a0     speed     :   0.4112739E-03

........................................................................
.............................. CYCLE   48 ..............................
........................................................................

 iter      E             dE          RMSdq      gap      omega  full diag
   1  -5198.6927865 -0.519869E+04  0.219E-04    4.02       0.0  T
   2  -5198.6927865 -0.248838E-08  0.134E-04    4.02      12.0  T
   3  -5198.6927865  0.902128E-08  0.408E-05    4.02      39.4  T
     SCC iter.                  ...       10 min, 36.302 sec
     gradient                   ...        5 min, 18.354 sec
 * total energy  : -5104.0970813 Eh     change    :  -0.6163977E-05 Eh
   gradient norm :     0.0015566 Eh/a0  converged?    E=F G=F D=F
   time step     :     0.2750000 fs     power     :   0.2756224E-09
   step length   :     0.0047231 a0     speed     :   0.4154400E-03

........................................................................
.............................. CYCLE   49 ..............................
........................................................................

 iter      E             dE          RMSdq      gap      omega  full diag
   1  -5198.6929065 -0.519869E+04  0.223E-04    4.02       0.0  T
   2  -5198.6929066 -0.211003E-08  0.135E-04    4.02      11.9  T
   3  -5198.6929065  0.641285E-08  0.351E-05    4.02      45.9  T
     SCC iter.                  ...       10 min, 35.541 sec
     gradient                   ...        5 min, 17.702 sec
 * total energy  : -5104.0970876 Eh     change    :  -0.6305100E-05 Eh
   gradient norm :     0.0017008 Eh/a0  converged?    E=F G=F D=F
   time step     :     0.3025000 fs     power     :   0.2592895E-09
   step length   :     0.0052005 a0     speed     :   0.4158443E-03

........................................................................
.............................. CYCLE   50 ..............................
........................................................................

 iter      E             dE          RMSdq      gap      omega  full diag
   1  -5198.6929796 -0.519869E+04  0.216E-04    4.02       0.0  T
   2  -5198.6929796 -0.158343E-08  0.129E-04    4.02      12.5  T
   3  -5198.6929796  0.273849E-08  0.251E-05    4.02      64.1  T
     SCC iter.                  ...       10 min, 37.977 sec
     gradient                   ...        5 min, 16.160 sec
 * total energy  : -5104.0970944 Eh     change    :  -0.6829720E-05 Eh
   gradient norm :     0.0018482 Eh/a0  converged?    E=F G=F D=F
   time step     :     0.3327500 fs     power     :   0.2635294E-09
   step length   :     0.0056790 a0     speed     :   0.4128311E-03

........................................................................
.............................. CYCLE   51 ..............................
........................................................................

 iter      E             dE          RMSdq      gap      omega  full diag
   1  -5198.6930007 -0.519869E+04  0.206E-04    4.02       0.0  T
   2  -5198.6930007 -0.112959E-08  0.122E-04    4.02      13.2  T
   3  -5198.6930007  0.117507E-08  0.178E-05    4.02      90.2  T
     SCC iter.                  ...       10 min, 35.477 sec
     gradient                   ...        5 min, 17.761 sec
 * total energy  : -5104.0971023 Eh     change    :  -0.7960901E-05 Eh
   gradient norm :     0.0018919 Eh/a0  converged?    E=F G=F D=F
   time step     :     0.3660250 fs     power     :   0.2819457E-09
   step length   :     0.0062029 a0     speed     :   0.4099195E-03

........................................................................
.............................. CYCLE   52 ..............................
........................................................................

 iter      E             dE          RMSdq      gap      omega  full diag
   1  -5198.6929553 -0.519869E+04  0.209E-04    4.02       0.0  T
   2  -5198.6929553 -0.948603E-09  0.124E-04    4.02      12.9  T
   3  -5198.6929553  0.245745E-08  0.229E-05    4.02      70.4  T
     SCC iter.                  ...       10 min, 37.950 sec
     gradient                   ...        5 min, 18.345 sec
 * total energy  : -5104.0971117 Eh     change    :  -0.9343837E-05 Eh
   gradient norm :     0.0017785 Eh/a0  converged?    E=F G=F D=F
   time step     :     0.4026275 fs     power     :   0.3003773E-09
   step length   :     0.0068293 a0     speed     :   0.4102868E-03

........................................................................
.............................. CYCLE   53 ..............................
........................................................................

 iter      E             dE          RMSdq      gap      omega  full diag
   1  -5198.6928115 -0.519869E+04  0.232E-04    4.02       0.0  T
   2  -5198.6928115 -0.208820E-08  0.141E-04    4.02      11.4  T
   3  -5198.6928114  0.805630E-08  0.392E-05    4.02      41.0  T
     SCC iter.                  ...       10 min, 35.009 sec
     gradient                   ...        5 min, 24.652 sec
 * total energy  : -5104.0971222 Eh     change    :  -0.1055669E-04 Eh
   gradient norm :     0.0015763 Eh/a0  converged?    E=F G=F D=F
   time step     :     0.4428903 fs     power     :   0.3043334E-09
   step length   :     0.0076105 a0     speed     :   0.4156563E-03

........................................................................
.............................. CYCLE   54 ..............................
........................................................................

 iter      E             dE          RMSdq      gap      omega  full diag
   1  -5198.6925235 -0.519869E+04  0.267E-04    4.02       0.0  T
   2  -5198.6925235 -0.354612E-08  0.165E-04    4.02       9.7  T
   3  -5198.6925235  0.145064E-07  0.517E-05    4.02      31.1  T
     SCC iter.                  ...       10 min, 36.057 sec
     gradient                   ...        5 min, 22.861 sec
 * total energy  : -5104.0971336 Eh     change    :  -0.1134746E-04 Eh
   gradient norm :     0.0014765 Eh/a0  converged?    E=F G=F D=F
   time step     :     0.4871793 fs     power     :   0.2923837E-09
   step length   :     0.0085692 a0     speed     :   0.4254700E-03

........................................................................
.............................. CYCLE   55 ..............................
........................................................................

 iter      E             dE          RMSdq      gap      omega  full diag
   1  -5198.6920625 -0.519869E+04  0.294E-04    4.02       0.0  T
   2  -5198.6920625 -0.351702E-08  0.180E-04    4.02       8.9  T
   3  -5198.6920625  0.139544E-07  0.508E-05    4.02      31.7  T
     SCC iter.                  ...       10 min, 37.357 sec
     gradient                   ...        5 min, 18.459 sec
 * total energy  : -5104.0971456 Eh     change    :  -0.1201085E-04 Eh
   gradient norm :     0.0015649 Eh/a0  converged?    E=F G=F D=F
   time step     :     0.5358972 fs     power     :   0.2828136E-09
   step length   :     0.0096540 a0     speed     :   0.4357521E-03

........................................................................
.............................. CYCLE   56 ..............................
........................................................................

 iter      E             dE          RMSdq      gap      omega  full diag
   1  -5198.6914762 -0.519869E+04  0.307E-04    4.02       0.0  T
   2  -5198.6914762 -0.268301E-08  0.183E-04    4.03       8.8  T
   3  -5198.6914762  0.567070E-08  0.361E-05    4.02      44.6  T
     SCC iter.                  ...       10 min, 36.346 sec
     gradient                   ...        5 min, 19.890 sec
 * total energy  : -5104.0971589 Eh     change    :  -0.1331767E-04 Eh
   gradient norm :     0.0016652 Eh/a0  converged?    E=F G=F D=F
   time step     :     0.5894869 fs     power     :   0.2906541E-09
   step length   :     0.0108098 a0     speed     :   0.4435678E-03

........................................................................
.............................. CYCLE   57 ..............................
........................................................................

 iter      E             dE          RMSdq      gap      omega  full diag
   1  -5198.6909128 -0.519869E+04  0.323E-04    4.03       0.0  T
   2  -5198.6909128 -0.268210E-08  0.191E-04    4.03       8.4  T
   3  -5198.6909128  0.666569E-08  0.388E-05    4.03      41.5  T
     SCC iter.                  ...       10 min, 34.653 sec
     gradient                   ...        5 min, 22.130 sec
 * total energy  : -5104.0971744 Eh     change    :  -0.1546549E-04 Eh
   gradient norm :     0.0016515 Eh/a0  converged?    E=F G=F D=F
   time step     :     0.6484356 fs     power     :   0.3097925E-09
   step length   :     0.0121156 a0     speed     :   0.4519541E-03

........................................................................
.............................. CYCLE   58 ..............................
........................................................................

 iter      E             dE          RMSdq      gap      omega  full diag
   1  -5198.6906206 -0.519869E+04  0.363E-04    4.03       0.0  T
   2  -5198.6906206 -0.355794E-08  0.219E-04    4.03       7.3  T
   3  -5198.6906206  0.228210E-07  0.629E-05    4.03      25.6  T
     SCC iter.                  ...       10 min, 34.930 sec
     gradient                   ...        5 min, 17.700 sec
 * total energy  : -5104.0971922 Eh     change    :  -0.1784388E-04 Eh
   gradient norm :     0.0015020 Eh/a0  converged?    E=F G=F D=F
   time step     :     0.7132792 fs     power     :   0.3231771E-09
   step length   :     0.0136920 a0     speed     :   0.4643249E-03

........................................................................
.............................. CYCLE   59 ..............................
........................................................................

 iter      E             dE          RMSdq      gap      omega  full diag
   1  -5198.6908947 -0.519869E+04  0.420E-04    4.03       0.0  T
   2  -5198.6908947 -0.554428E-08  0.256E-04    4.02       6.3  T
   3  -5198.6908946  0.416958E-07  0.848E-05    4.03      19.0  T
     SCC iter.                  ...       10 min, 35.661 sec
     gradient                   ...        5 min, 23.126 sec
 * total energy  : -5104.0972122 Eh     change    :  -0.1994134E-04 Eh
   gradient norm :     0.0014717 Eh/a0  converged?    E=F G=F D=F
   time step     :     0.7846071 fs     power     :   0.3213602E-09
   step length   :     0.0156291 a0     speed     :   0.4818336E-03

........................................................................
.............................. CYCLE   60 ..............................
........................................................................

 iter      E             dE          RMSdq      gap      omega  full diag
   1  -5198.6917949 -0.519869E+04  0.452E-04    4.02       0.0  T
   2  -5198.6917949 -0.433647E-08  0.269E-04    4.02       6.0  T
   3  -5198.6917949  0.141399E-07  0.539E-05    4.03      29.9  T
     SCC iter.                  ...       10 min, 35.572 sec
     gradient                   ...        5 min, 17.478 sec
 * total energy  : -5104.0972344 Eh     change    :  -0.2222486E-04 Eh
   gradient norm :     0.0015836 Eh/a0  converged?    E=F G=F D=F
   time step     :     0.8630678 fs     power     :   0.3310309E-09
   step length   :     0.0178342 a0     speed     :   0.4998314E-03

........................................................................
.............................. CYCLE   61 ..............................
........................................................................

 iter      E             dE          RMSdq      gap      omega  full diag
   1  -5198.6929284 -0.519869E+04  0.497E-04    4.03       0.0  T
   2  -5198.6929284 -0.564160E-08  0.294E-04    4.03       5.5  T
   3  -5198.6929284  0.317195E-07  0.780E-05    4.03      20.6  T
     SCC iter.                  ...       10 min, 36.002 sec
     gradient                   ...        5 min, 21.368 sec
 * total energy  : -5104.0972601 Eh     change    :  -0.2571198E-04 Eh
   gradient norm :     0.0014916 Eh/a0  converged?    E=F G=F D=F
   time step     :     0.9493746 fs     power     :   0.3519786E-09
   step length   :     0.0203254 a0     speed     :   0.5178655E-03

........................................................................
.............................. CYCLE   62 ..............................
........................................................................

 iter      E             dE          RMSdq      gap      omega  full diag
   1  -5198.6936346 -0.519869E+04  0.575E-04    4.03       0.0  T
   2  -5198.6936346 -0.839646E-08  0.344E-04    4.03       4.7  T
   3  -5198.6936346  0.447153E-07  0.889E-05    4.03      18.1  T
     SCC iter.                  ...       10 min, 36.944 sec
     gradient                   ...        5 min, 20.917 sec
 * total energy  : -5104.0972893 Eh     change    :  -0.2918348E-04 Eh
   gradient norm :     0.0014296 Eh/a0  converged?    E=F G=F D=F
   time step     :     1.0443120 fs     power     :   0.3574447E-09
   step length   :     0.0233757 a0     speed     :   0.5414394E-03

........................................................................
.............................. CYCLE   63 ..............................
........................................................................

 iter      E             dE          RMSdq      gap      omega  full diag
   1  -5198.6934819 -0.519869E+04  0.625E-04    4.03       0.0  T
   2  -5198.6934819 -0.853925E-08  0.371E-04    4.03       4.3  T
   3  -5198.6934818  0.296568E-07  0.793E-05    4.03      20.3  T
     SCC iter.                  ...       10 min, 36.067 sec
     gradient                   ...        5 min, 19.344 sec
 * total energy  : -5104.0973224 Eh     change    :  -0.3311575E-04 Eh
   gradient norm :     0.0015534 Eh/a0  converged?    E=F G=F D=F
   time step     :     1.1487432 fs     power     :   0.3722445E-09
   step length   :     0.0269382 a0     speed     :   0.5672313E-03

........................................................................
.............................. CYCLE   64 ..............................
........................................................................

 iter      E             dE          RMSdq      gap      omega  full diag
   1  -5198.6928921 -0.519869E+04  0.695E-04    4.03       0.0  T
   2  -5198.6928921 -0.119226E-07  0.415E-04    4.03       3.9  T
   3  -5198.6928921  0.628715E-07  0.109E-04    4.03      14.8  T
     SCC iter.                  ...       10 min, 35.594 sec
     gradient                   ...        5 min, 19.288 sec
 * total energy  : -5104.0973607 Eh     change    :  -0.3825860E-04 Eh
   gradient norm :     0.0014250 Eh/a0  converged?    E=F G=F D=F
   time step     :     1.2500000 fs     power     :   0.3945070E-09
   step length   :     0.0306429 a0     speed     :   0.5929729E-03

........................................................................
.............................. CYCLE   65 ..............................
........................................................................

 iter      E             dE          RMSdq      gap      omega  full diag
   1  -5198.6928211 -0.519869E+04  0.733E-04    4.03       0.0  T
   2  -5198.6928211 -0.149585E-07  0.440E-04    4.02       3.7  T
   3  -5198.6928211  0.842419E-07  0.124E-04    4.03      12.9  T
     SCC iter.                  ...       10 min, 38.020 sec
     gradient                   ...        5 min, 24.164 sec
 * total energy  : -5104.0973997 Eh     change    :  -0.3904686E-04 Eh
   gradient norm :     0.0015060 Eh/a0  converged?    E=F G=F D=F
   time step     :     1.2500000 fs     power     :   0.3973750E-09
   step length   :     0.0321286 a0     speed     :   0.6217222E-03

........................................................................
.............................. CYCLE   66 ..............................
........................................................................

 iter      E             dE          RMSdq      gap      omega  full diag
   1  -5198.6934258 -0.519869E+04  0.769E-04    4.03       0.0  T
   2  -5198.6934258 -0.108903E-07  0.455E-04    4.03       3.5  T
   3  -5198.6934257  0.643950E-07  0.115E-04    4.03      14.0  T
     SCC iter.                  ...       10 min, 37.694 sec
     gradient                   ...        5 min, 20.457 sec
 * total energy  : -5104.0974404 Eh     change    :  -0.4073195E-04 Eh
   gradient norm :     0.0015054 Eh/a0  converged?    E=F G=F D=F
   time step     :     1.2500000 fs     power     :   0.4190821E-09
   step length   :     0.0333725 a0     speed     :   0.6457943E-03

........................................................................
.............................. CYCLE   67 ..............................
........................................................................

 iter      E             dE          RMSdq      gap      omega  full diag
   1  -5198.6939069 -0.519869E+04  0.779E-04    4.02       0.0  T
   2  -5198.6939069 -0.172950E-07  0.463E-04    4.03       3.5  T
   3  -5198.6939069  0.540304E-07  0.111E-04    4.03      14.4  T
     SCC iter.                  ...       10 min, 34.038 sec
     gradient                   ...        5 min, 18.863 sec
 * total energy  : -5104.0974823 Eh     change    :  -0.4184585E-04 Eh
   gradient norm :     0.0014747 Eh/a0  converged?    E=F G=F D=F
   time step     :     1.2500000 fs     power     :   0.4235756E-09
   step length   :     0.0346512 a0     speed     :   0.6705376E-03
 * RMSD in coord.:     0.0054881 a0     energy gain  -0.4396561E-03 Eh

........................................................................
.............................. CYCLE   68 ..............................
........................................................................

 iter      E             dE          RMSdq      gap      omega  full diag
   1  -5198.6939644 -0.519869E+04  0.154E-04    4.03       0.0  T
   2  -5198.6939644 -0.580258E-09  0.902E-05    4.03      17.8  T
   3  -5198.6939644  0.298223E-08  0.247E-05    4.03      65.2  T
     SCC iter.                  ...       10 min, 37.858 sec
     gradient                   ...        5 min, 23.071 sec
 * total energy  : -5104.0974907 Eh     change    :  -0.8378307E-05 Eh
   gradient norm :     0.0014136 Eh/a0  converged?    E=F G=F D=F
   time step     :     0.2500000 fs     power     :   0.4378226E-09
   step length   :     0.0068631 a0     speed     :   0.6640438E-03

........................................................................
.............................. CYCLE   69 ..............................
........................................................................

 iter      E             dE          RMSdq      gap      omega  full diag
   1  -5198.6939849 -0.519869E+04  0.159E-04    4.03       0.0  T
   2  -5198.6939849 -0.165346E-08  0.941E-05    4.03      17.1  T
   3  -5198.6939849  0.232285E-08  0.297E-05    4.03      54.1  T
     SCC iter.                  ...       10 min, 38.371 sec
     gradient                   ...        5 min, 19.621 sec
 * total energy  : -5104.0974991 Eh     change    :  -0.8409866E-05 Eh
   gradient norm :     0.0013029 Eh/a0  converged?    E=F G=F D=F
   time step     :     0.2500000 fs     power     :   0.4385718E-09
   step length   :     0.0068427 a0     speed     :   0.6620728E-03

........................................................................
.............................. CYCLE   70 ..............................
........................................................................

 iter      E             dE          RMSdq      gap      omega  full diag
   1  -5198.6939897 -0.519869E+04  0.161E-04    4.03       0.0  T
   2  -5198.6939897 -0.142700E-08  0.960E-05    4.03      16.8  T
   3  -5198.6939897  0.340697E-08  0.304E-05    4.03      52.8  T
     SCC iter.                  ...       10 min, 36.585 sec
[...]
  3608   6 C     3615   6 C                                       1.5347533
  3615   6 C     3616   6 C                                       1.5336457
  3617   6 C     3618   6 C                                       1.3894094
  3618   6 C     3619   6 C                                       1.3837223
  3619   6 C     3620   6 C                                       1.3834037
  3620   6 C     3621   6 C                                       1.3829840
  3617   6 C     3622   6 C                                       1.3899227
  3621   6 C     3622   6 C                                       1.3826672
  3616   6 C     3623   6 C                                       1.5365818
  3625   6 C     3626   6 C                                       1.3883005
  3626   6 C     3627   6 C                                       1.3839396
  3627   6 C     3628   6 C                                       1.3836431
  3628   6 C     3629   6 C                                       1.3848370
  3625   6 C     3630   6 C                                       1.3903048
  3629   6 C     3630   6 C                                       1.3822311
  3624   6 C     3631   6 C                                       1.5375723
  3631   6 C     3632   6 C                                       1.5337146
  3633   6 C     3634   6 C                                       1.3901693
  3634   6 C     3635   6 C                                       1.3825199
  3635   6 C     3636   6 C                                       1.3842118
  3636   6 C     3637   6 C                                       1.3842114
  3633   6 C     3638   6 C                                       1.3893835
  3637   6 C     3638   6 C                                       1.3842514
  3632   6 C     3639   6 C                                       1.5375057
  3639   6 C     3640   6 C                                       1.5320793
  3641   6 C     3642   6 C                                       1.3913498
  3642   6 C     3643   6 C                                       1.3818021
  3643   6 C     3644   6 C                                       1.3846745
  3644   6 C     3645   6 C                                       1.3829880
  3641   6 C     3646   6 C                                       1.3899934
  3645   6 C     3646   6 C                                       1.3847366
  3649   6 C     3650   6 C                                       1.3902770
  3650   6 C     3651   6 C                                       1.3838653
  3651   6 C     3652   6 C                                       1.3842065
  3652   6 C     3653   6 C                                       1.3838567
  3649   6 C     3654   6 C                                       1.3888402
  3653   6 C     3654   6 C                                       1.3843135
  3648   6 C     3655   6 C                                       1.5379825
  3655   6 C     3656   6 C                                       1.5353878
  3657   6 C     3658   6 C                                       1.3904249
  3658   6 C     3659   6 C                                       1.3826972
  3659   6 C     3660   6 C                                       1.3842036
  3660   6 C     3661   6 C                                       1.3836045
  3657   6 C     3662   6 C                                       1.3889240
  3661   6 C     3662   6 C                                       1.3841206
  3656   6 C     3663   6 C                                       1.5366734
  3663   6 C     3664   6 C                                       1.5387228
  3665   6 C     3666   6 C                                       1.3884990
  3666   6 C     3667   6 C                                       1.3826569
  3667   6 C     3668   6 C                                       1.3830098
  3668   6 C     3669   6 C                                       1.3846090
  3665   6 C     3670   6 C                                       1.3900162
  3669   6 C     3670   6 C                                       1.3823669
  3664   6 C     3671   6 C                                       1.5334659
  3671   6 C     3672   6 C                                       1.5332561
  3673   6 C     3674   6 C                                       1.3903504
  3674   6 C     3675   6 C                                       1.3823984
  3675   6 C     3676   6 C                                       1.3841269
  3676   6 C     3677   6 C                                       1.3836653
  3673   6 C     3678   6 C                                       1.3876486
  3677   6 C     3678   6 C                                       1.3840317
  3672   6 C     3679   6 C                                       1.5405608
  3679   6 C     3680   6 C                                       1.5391193
  3681   6 C     3682   6 C                                       1.3900231
  3682   6 C     3683   6 C                                       1.3831121
  3683   6 C     3684   6 C                                       1.3845938
  3684   6 C     3685   6 C                                       1.3841572
  3681   6 C     3686   6 C                                       1.3892337
  3685   6 C     3686   6 C                                       1.3833914
  3680   6 C     3687   6 C                                       1.5324069
  3687   6 C     3688   6 C                                       1.5360520
  3549   6 C     3689   1 H                                       1.0968039
  3551   6 C     3690   1 H                                       1.0908634
  3551   6 C     3691   1 H                                       1.0931446
  3552   6 C     3692   1 H                                       1.0945523
  3559   6 C     3693   1 H                                       1.0898324
  3559   6 C     3694   1 H                                       1.0912680
  3560   6 C     3695   1 H                                       1.0942601
  3567   6 C     3696   1 H                                       1.0925668
  3567   6 C     3697   1 H                                       1.0925154
  3568   6 C     3698   1 H                                       1.0947608
  3575   6 C     3699   1 H                                       1.0891833
  3576   6 C     3700   1 H                                       1.0949799
  3583   6 C     3701   1 H                                       1.0919795
  3583   6 C     3702   1 H                                       1.0928560
  3584   6 C     3703   1 H                                       1.0939998
  3591   6 C     3704   1 H                                       1.0909000
  3591   6 C     3705   1 H                                       1.0924740
  3592   6 C     3706   1 H                                       1.0948307
  3599   6 C     3707   1 H                                       1.0925184
  3599   6 C     3708   1 H                                       1.0918431
  3600   6 C     3709   1 H                                       1.0942213
  3608   6 C     3710   1 H                                       1.0957776
  3615   6 C     3711   1 H                                       1.0907269
  3615   6 C     3712   1 H                                       1.0915785
  3616   6 C     3713   1 H                                       1.0960249
  3623   6 C     3714   1 H                                       1.0912134
  3623   6 C     3715   1 H                                       1.0899127
  3624   6 C     3716   1 H                                       1.0955164
  3631   6 C     3717   1 H                                       1.0922406
  3631   6 C     3718   1 H                                       1.0909693
  3632   6 C     3719   1 H                                       1.0945212
  3639   6 C     3720   1 H                                       1.0907033
  3639   6 C     3721   1 H                                       1.0931897
  3640   6 C     3722   1 H                                       1.0981602
  3647   6 C     3723   1 H                                       1.0928708
  3647   6 C     3724   1 H                                       1.0927161
  3648   6 C     3725   1 H                                       1.0924675
  3655   6 C     3726   1 H                                       1.0914761
  3655   6 C     3727   1 H                                       1.0897013
  3656   6 C     3728   1 H                                       1.0944376
  3663   6 C     3729   1 H                                       1.0925905
  3663   6 C     3730   1 H                                       1.0925820
  3664   6 C     3731   1 H                                       1.0943656
  3671   6 C     3732   1 H                                       1.0910896
  3671   6 C     3733   1 H                                       1.0920006
  3672   6 C     3734   1 H                                       1.0949565
  3679   6 C     3735   1 H                                       1.0914626
  3679   6 C     3736   1 H                                       1.0933313
  3543   6 C     3737   1 H                                       1.0808214
  3548   6 C     3738   1 H                                       1.0829289
  3547   6 C     3739   1 H                                       1.0800096
  3546   6 C     3740   1 H                                       1.0804631
  3545   6 C     3741   1 H                                       1.0801669
  3554   6 C     3742   1 H                                       1.0817585
  3555   6 C     3743   1 H                                       1.0805504
  3556   6 C     3744   1 H                                       1.0797161
  3557   6 C     3745   1 H                                       1.0801757
  3558   6 C     3746   1 H                                       1.0805716
  3562   6 C     3747   1 H                                       1.0803976
  3563   6 C     3748   1 H                                       1.0804726
  3564   6 C     3749   1 H                                       1.0803071
  3565   6 C     3750   1 H                                       1.0804294
  3566   6 C     3751   1 H                                       1.0816611
  3570   6 C     3752   1 H                                       1.0803281
  3571   6 C     3753   1 H                                       1.0798776
  3572   6 C     3754   1 H                                       1.0796756
  3573   6 C     3755   1 H                                       1.0809652
  3574   6 C     3756   1 H                                       1.0811508
  3575   6 C     3757   1 H                                       1.0904780
  3578   6 C     3758   1 H                                       1.0807801
  3579   6 C     3759   1 H                                       1.0803749
  3580   6 C     3760   1 H                                       1.0802423
  3581   6 C     3761   1 H                                       1.0809094
  3582   6 C     3762   1 H                                       1.0795513
  3586   6 C     3763   1 H                                       1.0810779
  3587   6 C     3764   1 H                                       1.0803175
  3588   6 C     3765   1 H                                       1.0804409
  3589   6 C     3766   1 H                                       1.0812581
  3590   6 C     3767   1 H                                       1.0793704
  3594   6 C     3768   1 H                                       1.0802014
  3595   6 C     3769   1 H                                       1.0801626
  3596   6 C     3770   1 H                                       1.0794677
  3597   6 C     3771   1 H                                       1.0803334
  3598   6 C     3772   1 H                                       1.0812909
  3602   6 C     3773   1 H                                       1.0800449
  3603   6 C     3774   1 H                                       1.0807560
  3604   6 C     3775   1 H                                       1.0794396
  3605   6 C     3776   1 H                                       1.0796689
  3606   6 C     3777   1 H                                       1.0812473
  3607   6 C     3778   1 H                                       1.0919925
  3607   6 C     3779   1 H                                       1.0922088
  3610   6 C     3780   1 H                                       1.0811411
  3611   6 C     3781   1 H                                       1.0809068
  3612   6 C     3782   1 H                                       1.0807620
  3613   6 C     3783   1 H                                       1.0808208
  3614   6 C     3784   1 H                                       1.0797457
  3618   6 C     3785   1 H                                       1.0813321
  3619   6 C     3786   1 H                                       1.0803567
  3620   6 C     3787   1 H                                       1.0803273
  3621   6 C     3788   1 H                                       1.0791956
  3622   6 C     3789   1 H                                       1.0810450
  3626   6 C     3790   1 H                                       1.0815835
  3627   6 C     3791   1 H                                       1.0804540
  3628   6 C     3792   1 H                                       1.0801850
  3629   6 C     3793   1 H                                       1.0807996
  3630   6 C     3794   1 H                                       1.0806451
  3634   6 C     3795   1 H                                       1.0807615
  3635   6 C     3796   1 H                                       1.0808885
  3636   6 C     3797   1 H                                       1.0790328
  3637   6 C     3798   1 H                                       1.0804296
  3638   6 C     3799   1 H                                       1.0815210
  3642   6 C     3800   1 H                                       1.0816491
  3643   6 C     3801   1 H                                       1.0804862
  3644   6 C     3802   1 H                                       1.0800548
  3645   6 C     3803   1 H                                       1.0804922
  3646   6 C     3804   1 H                                       1.0802097
  3650   6 C     3805   1 H                                       1.0822679
  3651   6 C     3806   1 H                                       1.0806346
  3652   6 C     3807   1 H                                       1.0799210
  3653   6 C     3808   1 H                                       1.0802678
  3654   6 C     3809   1 H                                       1.0808242
  3658   6 C     3810   1 H                                       1.0808816
  3659   6 C     3811   1 H                                       1.0798865
  3660   6 C     3812   1 H                                       1.0795276
  3661   6 C     3813   1 H                                       1.0804695
  3662   6 C     3814   1 H                                       1.0812508
  3666   6 C     3815   1 H                                       1.0810148
  3667   6 C     3816   1 H                                       1.0785808
  3668   6 C     3817   1 H                                       1.0807077
  3669   6 C     3818   1 H                                       1.0797827
  3670   6 C     3819   1 H                                       1.0807017
  3674   6 C     3820   1 H                                       1.0797008
  3675   6 C     3821   1 H                                       1.0805092
  3676   6 C     3822   1 H                                       1.0802453
  3677   6 C     3823   1 H                                       1.0802678
  3678   6 C     3824   1 H                                       1.0777958
  3686   6 C     3825   1 H                                       1.0800951
  3685   6 C     3826   1 H                                       1.0806592
  3684   6 C     3827   1 H                                       1.0802942
  3683   6 C     3828   1 H                                       1.0803963
  3682   6 C     3829   1 H                                       1.0809946
  3550   6 C     3830   1 H                                       1.0873472
  3550   6 C     3831   1 H                                       1.0875027
  3550   6 C     3832   1 H                                       1.0880001
  3680   6 C     3833   1 H                                       1.0947977
  3687   6 C     3834   1 H                                       1.0925141
  3687   6 C     3835   1 H                                       1.0907436
  3688   6 C     3836   6 C                                       1.5372892
  3837   6 C     3838   6 C                                       1.3897999
  3838   6 C     3839   6 C                                       1.3843207
  3839   6 C     3840   6 C                                       1.3840606
  3840   6 C     3841   6 C                                       1.3848895
  3837   6 C     3842   6 C                                       1.3906947
  3841   6 C     3842   6 C                                       1.3832460
  3838   6 C     3843   1 H                                       1.0800063
  3839   6 C     3844   1 H                                       1.0803438
  3840   6 C     3845   1 H                                       1.0801355
  3841   6 C     3846   1 H                                       1.0802886
  3842   6 C     3847   1 H                                       1.0802044
  3836   6 C     3848   6 C                                       1.5349815
  3836   6 C     3849   1 H                                       1.0916862
  3836   6 C     3850   1 H                                       1.0928134
  3851   6 C     3852   6 C                                       1.3895862
  3852   6 C     3853   6 C                                       1.3823576
  3853   6 C     3854   6 C                                       1.3849035
  3854   6 C     3855   6 C                                       1.3833882
  3851   6 C     3856   6 C                                       1.3879770
  3855   6 C     3856   6 C                                       1.3841763
  3852   6 C     3857   1 H                                       1.0809612
  3853   6 C     3858   1 H                                       1.0808483
  3854   6 C     3859   1 H                                       1.0796401
  3855   6 C     3860   1 H                                       1.0801870
  3856   6 C     3861   1 H                                       1.0803736
  3688   6 C     3862   1 H                                       1.0951606
  3848   6 C     3863   1 H                                       1.0948300
  3848   6 C     3864   1 H                                       1.0913576

 * 2 distinct bonds (by element types)

   Z      Z             #   av. dist./Å        max./Å        min./Å
   1 H    6 C        1944     1.0850807     1.0985904     1.0772588
   6 C    6 C        1845     1.4186208     1.5407662     1.3804172


optimized geometry written to: xtbopt.xyz


           -------------------------------------------------
          | TOTAL ENERGY            -5104.102885477924 Eh   |
          | GRADIENT NORM               0.000968929608 Eh/α |
          | HOMO-LUMO GAP               4.025191551450 eV   |
           -------------------------------------------------

------------------------------------------------------------------------
 * finished run on 2024/10/08 at 15:59:28.463     
------------------------------------------------------------------------
 total:
 * wall-time:     3 d, 19 h, 44 min, 17.173 sec
 *  cpu-time:    23 d, 23 h, 57 min, 53.664 sec
 * ratio c/w:     6.278 speedup
 SCF:
 * wall-time:     0 d,  0 h, 48 min, 11.268 sec
 *  cpu-time:     0 d,  5 h, 45 min, 43.032 sec
 * ratio c/w:     7.174 speedup
 ANC optimizer:
 * wall-time:     3 d, 18 h, 54 min, 55.468 sec
 *  cpu-time:    23 d, 18 h, 10 min, 38.240 sec
 * ratio c/w:     6.272 speedup

